  ==> Input File <==

--------------------------------------------------------------------------
set {
	reference rhf
	basis cc-pvtz
}

set_num_threads( 4 )
memory 2 gb

molecule MOL {
0 1

H	 -0.366580	 2.045936	 -0.305741
C	 0.351829	 1.335402	 0.083179
N	 -0.000018	 0.000080	 -0.334836
H	 1.327156	 1.599860	 -0.305475
H	 0.380566	 1.445403	 1.171445
C	 -1.308103	 -0.048264	 -0.942254
C	 1.010801	 -0.584261	 -1.182794
H	 -1.567963	 -1.072155	 -1.179342
H	 -2.050334	 0.333600	 -0.252719
H	 -1.369644	 0.538157	 -1.863879
H	 1.963821	 -0.594427	 -0.669148
H	 0.748360	 -1.607519	 -1.419843
H	 1.140283	 -0.041745	 -2.124081

	symmetry c1
}
set optking {
	frozen_dihedral = ("
		6 3 2 1
	")
}

ee = optimize('scf')
oeprop('DIPOLE', 'QUADRUPOLE', 'MULLIKEN_CHARGES')
f=open( 'psi4out.xyz', 'w' )
f.write( "13  " )
f.write( str(ee) + "\n" )
f.write( MOL.save_string_xyz() )
f.close()
--------------------------------------------------------------------------

    Molecular point group: c1
  Charge       = 0
  Multiplicity = 1
  Basis Set: CC-PVTZ
  Basis Set:
  @DF-RHF Final Energy:  -173.32692557246588
    Total Energy =                       -173.3269255724658251
    Molecular point group: c1
  Basis Set: CC-PVTZ
  Basis Set:
  Basis Set: CC-PVTZ
  Basis Set:
  @DF-RHF Final Energy:  -173.32754250339951
    Total Energy =                       -173.3275425033995703
  Basis Set: CC-PVTZ
  Basis Set:
  Basis Set: CC-PVTZ
  Basis Set:
  @DF-RHF Final Energy:  -173.32768169396010
    Total Energy =                       -173.3276816939601304
  Basis Set: CC-PVTZ
  Basis Set:
  Basis Set: CC-PVTZ
  Basis Set:
  @DF-RHF Final Energy:  -173.32768428834638
    Total Energy =                       -173.3276842883461768
  Basis Set: CC-PVTZ
  Basis Set:
  Charge       = 0
  Multiplicity = 1
  Basis Set: CC-PVTZ
  Basis Set:

    Orbital Energies (a.u.)
    -----------------------

    Doubly Occupied:

       1A    -15.535803     2A    -11.233900     3A    -11.233873
       4A    -11.233698     5A     -1.221278     6A     -0.951825
       7A     -0.951282     8A     -0.807065     9A     -0.638603
      10A     -0.629120    11A     -0.627962    12A     -0.549828
      13A     -0.547556    14A     -0.514217    15A     -0.501121
      16A     -0.500059    17A     -0.342686

  @DF-RHF Final Energy:  -173.32768459903480

   => Energetics <=

    Nuclear Repulsion Energy =            138.9708828316439053
    One-Electron Energy =                -508.5573900090392385
    Two-Electron Energy =                 196.2588225783604798
    DFT Exchange-Correlation Energy =       0.0000000000000000
    Empirical Dispersion Energy =           0.0000000000000000
    PCM Polarization Energy =               0.0000000000000000
    EFP Energy =                            0.0000000000000000
    Total Energy =                       -173.3276845990348534
    Molecular point group: c1
  Basis Set: CC-PVTZ
  Basis Set:

  -Total Gradient:
     Atom            X                  Y                   Z
    ------   -----------------  -----------------  -----------------
       1       -0.000791483516    -0.000194018024     0.001201815421
       2        0.001194715822     0.000355130658    -0.001929478914
       3       -0.000807708967    -0.000340685958     0.001741187116
       4       -0.000009605290    -0.000016406684     0.000002502672
       5       -0.000008342833     0.000005406815     0.000007077766
       6        0.000395018925     0.000212213694    -0.001011225497
       7        0.000029265641    -0.000012637564    -0.000035361255
       8       -0.000006289928    -0.000003284224    -0.000000785944
       9       -0.000006348470     0.000000225159    -0.000002579031
      10        0.000017340045    -0.000002344500     0.000015496588
      11        0.000003583419    -0.000002038517    -0.000003577686
      12        0.000003120125    -0.000004594661    -0.000003912621
      13       -0.000013264975     0.000003033806     0.000018841384

  **** Optimization is complete! (in 5 steps) ****
    Final optimized geometry and variables:
    Molecular point group: c1

    Geometry (in Angstrom), charge = 0, multiplicity = 1:

    H           -0.373681051354     1.904506370150     0.358741090962
    C            0.340095779315     1.164044652022     0.707063427822
    N           -0.012542158653    -0.175879083795     0.262018875228
    H            1.316690981765     1.458165478917     0.341238501521
    H            0.362629563592     1.221585725839     1.790426837274
    C           -1.325680795113    -0.247330561985    -0.330411908181
    C            0.995256295376    -0.785757976768    -0.571267088414
    H           -1.579595377103    -1.278291274659    -0.543551903200
    H           -2.066229650140     0.137976284167     0.359287867388
    H           -1.405698301431     0.320023692712    -1.262735873494
    H            1.945795291420    -0.802666330368    -0.053527138235
    H            0.721131965557    -1.810540103628    -0.789296152428
    H            1.138067454053    -0.266306253784    -1.523911022561

  Mulliken Charges: (a.u.)
   Center  Symbol    Alpha    Beta     Spin     Total
       1     H     0.46375  0.46375  0.00000  0.07251
       2     C     3.08508  3.08508  0.00000 -0.17015
       3     N     3.59949  3.59949  0.00000 -0.19898
       4     H     0.46075  0.46075  0.00000  0.07850
       5     H     0.45120  0.45120  0.00000  0.09760
       6     C     3.09077  3.09077  0.00000 -0.18155
       7     C     3.09048  3.09048  0.00000 -0.18096
       8     H     0.45364  0.45364  0.00000  0.09273
       9     H     0.45210  0.45210  0.00000  0.09581
      10     H     0.47344  0.47344  0.00000  0.05311
      11     H     0.45217  0.45217  0.00000  0.09566
      12     H     0.45359  0.45359  0.00000  0.09282
      13     H     0.47354  0.47354  0.00000  0.05291

   Total alpha = 17.00000, Total beta = 17.00000, Total charge =  0.00000
