  ==> Input File <==

--------------------------------------------------------------------------
set {
	reference rhf
	basis 6-31G*
}

set_num_threads( 1 )
memory 2 gb

molecule MOL {
0 1

H	 -2.469670	 -0.126946	 0.657605
N	 -1.852125	 0.165761	 -0.074816
C	 -0.563778	 -0.502042	 0.037919
H	 -1.742869	 1.157865	 0.017642
C	 0.575259	 0.508231	 -0.048326
H	 -0.482092	 -1.204004	 -0.786564
H	 -0.460411	 -1.085169	 0.956626
C	 1.954651	 -0.143624	 0.035137
H	 0.475158	 1.060484	 -0.977307
H	 0.469181	 1.234488	 0.755973
H	 2.103292	 -0.853109	 -0.774172
H	 2.742821	 0.599562	 -0.030094
H	 2.083613	 -0.679371	 0.971560

	symmetry c1
}
set optking {
	frozen_dihedral = ("
		6 3 5 9
	")
}

ee = energy('scf')
oeprop('DIPOLE', 'QUADRUPOLE', 'MULLIKEN_CHARGES')
f=open( 'psi4out.xyz', 'w' )
f.write( "13  " )
f.write( str(ee) + "\n" )
f.write( MOL.save_string_xyz() )
f.close()
--------------------------------------------------------------------------

    Molecular point group: c1

    Geometry (in Angstrom), charge = 0, multiplicity = 1:

       Center              X                  Y                   Z               Mass
    ------------   -----------------  -----------------  -----------------  -----------------
           H         -2.476414817995    -0.140091586392     0.656816715556     1.007825032070
           N         -1.858869817995     0.152615413608    -0.075604284444    14.003074004780
           C         -0.570522817995    -0.515187586392     0.037130715556    12.000000000000
           H         -1.749613817995     1.144719413608     0.016853715556     1.007825032070
           C          0.568514182005     0.495085413608    -0.049114284444    12.000000000000
           H         -0.488836817995    -1.217149586392    -0.787352284444     1.007825032070
           H         -0.467155817995    -1.098314586392     0.955837715556     1.007825032070
           C          1.947906182005    -0.156769586392     0.034348715556    12.000000000000
           H          0.468413182005     1.047338413608    -0.978095284444     1.007825032070
           H          0.462436182005     1.221342413608     0.755184715556     1.007825032070
           H          2.096547182005    -0.866254586392    -0.774960284444     1.007825032070
           H          2.736076182005     0.586416413608    -0.030882284444     1.007825032070
           H          2.076868182005    -0.692516586392     0.970771715556     1.007825032070

  Charge       = 0
  Multiplicity = 1
  Basis Set: 6-31G*
  Basis Set:

    Orbital Energies (a.u.)
    -----------------------

    Doubly Occupied:

       1A    -15.529767     2A    -11.239092     3A    -11.218712
       4A    -11.212648     5A     -1.177125     6A     -1.037533
       7A     -0.899224     8A     -0.808293     9A     -0.657120
      10A     -0.632664    11A     -0.604094    12A     -0.553180
      13A     -0.547583    14A     -0.498721    15A     -0.481732
      16A     -0.469896    17A     -0.377262

  @DF-RHF Final Energy:  -173.27766402792159

   => Energetics <=

    Nuclear Repulsion Energy =            132.0882752599661387
    One-Electron Energy =                -494.8425619938326463
    Two-Electron Energy =                 189.4766227059449761
    DFT Exchange-Correlation Energy =       0.0000000000000000
    Empirical Dispersion Energy =           0.0000000000000000
    PCM Polarization Energy =               0.0000000000000000
    EFP Energy =                            0.0000000000000000
    Total Energy =                       -173.2776640279215030

  Mulliken Charges: (a.u.)
   Center  Symbol    Alpha    Beta     Spin     Total
       1     H     0.33275  0.33275  0.00000  0.33449
       2     N     3.92830  3.92830  0.00000 -0.85660
       3     C     3.04676  3.04676  0.00000 -0.09351
       4     H     0.33228  0.33228  0.00000  0.33544
       5     C     3.16837  3.16837  0.00000 -0.33674
       6     H     0.42000  0.42000  0.00000  0.16001
       7     H     0.43025  0.43025  0.00000  0.13949
       8     C     3.24257  3.24257  0.00000 -0.48514
       9     H     0.41588  0.41588  0.00000  0.16824
      10     H     0.42528  0.42528  0.00000  0.14945
      11     H     0.41886  0.41886  0.00000  0.16227
      12     H     0.41768  0.41768  0.00000  0.16464
      13     H     0.42102  0.42102  0.00000  0.15795

   Total alpha = 17.00000, Total beta = 17.00000, Total charge =  0.00000
