                              Psi4 1.0.54 Driver

  ==> Input File <==

--------------------------------------------------------------------------
set {
	reference rhf
	basis cc-pvtz
}

set_num_threads( 4 )
memory 2 gb

molecule MOL {
0 1

H	 2.661055	 0.109157	 0.594138
O	 2.063695	 -0.083403	 -0.105237
C	 0.742924	 0.005675	 0.350750
H	 0.731380	 0.039219	 1.440080
C	 -0.064076	 -1.193495	 -0.124425
C	 -0.047832	 1.190568	 -0.194462
H	 0.194729	 -1.376165	 -1.161308
H	 0.163013	 -2.094508	 0.429933
C	 -1.533112	 -0.752002	 0.006102
H	 0.148003	 1.266545	 -1.259275
H	 0.226235	 2.136493	 0.259722
C	 -1.506634	 0.799189	 0.067162
H	 -2.124360	 -1.110499	 -0.826089
H	 -1.983103	 -1.158030	 0.903403
H	 -2.183808	 1.252169	 -0.644677
H	 -1.813926	 1.138698	 1.049457

	symmetry c1
}
set optking {
	frozen_dihedral = ("
		1 2 3 6
	")
}

ee,wfn = optimize('scf', return_wfn=True)
oeprop( wfn, 'DIPOLE', 'QUADRUPOLE', 'MULLIKEN_CHARGES')
f=open( 'psi4out.xyz', 'w' )
f.write( "16  " )
f.write( str(ee) + "\n" )
f.write( MOL.save_string_xyz() )
f.close()
--------------------------------------------------------------------------

    Molecular point group: c1
  Charge       = 0
  Multiplicity = 1
  Basis Set: CC-PVTZ
  Basis Set:
  @DF-RHF Final Energy:  -270.11541193325729
    Total Energy =                       -270.1154119332572918
    Molecular point group: c1
  Basis Set: CC-PVTZ
  Basis Set:
  Basis Set: CC-PVTZ
  Basis Set:
  @DF-RHF Final Energy:  -270.11561028624044
    Total Energy =                       -270.1156102862402122
  Basis Set: CC-PVTZ
  Basis Set:
  Basis Set: CC-PVTZ
  Basis Set:
  @DF-RHF Final Energy:  -270.11562816423623
    Total Energy =                       -270.1156281642362842
  Basis Set: CC-PVTZ
  Basis Set:
  Charge       = 0
  Multiplicity = 1
  Basis Set: CC-PVTZ
  Basis Set:

    Orbital Energies (a.u.)
    -----------------------

    Doubly Occupied:

       1A    -20.545091     2A    -11.268241     3A    -11.212758
       4A    -11.212024     5A    -11.206220     6A    -11.205945
       7A     -1.364697     8A     -1.113578     9A     -0.964178
      10A     -0.949228    11A     -0.782662    12A     -0.777621
      13A     -0.717808    14A     -0.653477    15A     -0.621549
      16A     -0.579747    17A     -0.552490    18A     -0.530204
      19A     -0.521729    20A     -0.479235    21A     -0.469184
      22A     -0.456508    23A     -0.452499    24A     -0.413418

  @DF-RHF Final Energy:  -270.11562892743444

   => Energetics <=

    Nuclear Repulsion Energy =            255.3363094827458895
    One-Electron Energy =                -872.8036937637277788
    Two-Electron Energy =                 347.3517553535475599
    DFT Exchange-Correlation Energy =       0.0000000000000000
    Empirical Dispersion Energy =           0.0000000000000000
    PCM Polarization Energy =               0.0000000000000000
    EFP Energy =                            0.0000000000000000
    Total Energy =                       -270.1156289274342726
    Molecular point group: c1
  Basis Set: CC-PVTZ
  Basis Set:

  -Total Gradient:
     Atom            X                  Y                   Z
    ------   -----------------  -----------------  -----------------
       1        0.000038101741    -0.000912913990     0.000203417345
       2       -0.000130439091     0.000986036205    -0.000414271102
       3        0.000361562659     0.000272257161     0.000657896995
       4       -0.000009017454    -0.000002666791    -0.000004388151
       5       -0.000040671063     0.000038409006    -0.000002357807
       6       -0.000158234167    -0.000367909263    -0.000494440788
       7        0.000008316829    -0.000006252324    -0.000012269986
       8        0.000006589323     0.000008203420     0.000001453097
       9        0.000019499107     0.000034882696     0.000000320977
      10        0.000023070859    -0.000010017642     0.000017570251
      11        0.000008013270    -0.000019076290     0.000008061866
      12       -0.000082400986    -0.000010942058     0.000022802630
      13       -0.000001525765     0.000000555401     0.000002381033
      14       -0.000008635442     0.000012767783     0.000001837443
      15       -0.000014875288    -0.000011312947     0.000001712282
      16       -0.000019354527    -0.000012020369     0.000010273915

  **** Optimization is complete! (in 4 steps) ****
    Final optimized geometry and variables:
    Molecular point group: c1

    Geometry (in Angstrom), charge = 0, multiplicity = 1:

    H            2.672587643458     0.138654894562     0.562204472775
    O            2.064186116765    -0.059941524282    -0.122945387518
    C            0.744191510633     0.003183378574     0.350045218717
    H            0.742720408592     0.045471803678     1.437405687804
    C           -0.075813675738    -1.196316202216    -0.111790794428
    C           -0.041470227002     1.187197450111    -0.201606962643
    H            0.185766197100    -1.392778833113    -1.145526470602
    H            0.142880603416    -2.094039719737     0.452324960806
    C           -1.541633512501    -0.743686398380     0.007662647758
    H            0.160683081254     1.253949073345    -1.265524014246
    H            0.242191671870     2.132517317819     0.245322923235
    C           -1.503064993625     0.807942324891     0.057173662100
    H           -2.131459305401    -1.103479430448    -0.825031687497
    H           -2.000026217254    -1.139549377508     0.905426694400
    H           -2.175558460820     1.259697271331    -0.659893889423
    H           -1.811695219960     1.156459655853     1.036173960444

  Mulliken Charges: (a.u.)
   Center  Symbol    Alpha    Beta     Spin     Total
       1     H     0.39191  0.39191  0.00000  0.21617
       2     O     4.20419  4.20419  0.00000 -0.40837
       3     C     2.92135  2.92135  0.00000  0.15731
       4     H     0.46985  0.46985  0.00000  0.06030
       5     C     3.10108  3.10108  0.00000 -0.20216
       6     C     3.09488  3.09488  0.00000 -0.18975
       7     H     0.45178  0.45178  0.00000  0.09644
       8     H     0.44646  0.44646  0.00000  0.10708
       9     C     3.11086  3.11086  0.00000 -0.22172
      10     H     0.45361  0.45361  0.00000  0.09278
      11     H     0.44974  0.44974  0.00000  0.10051
      12     C     3.11462  3.11462  0.00000 -0.22923
      13     H     0.44553  0.44553  0.00000  0.10895
      14     H     0.44921  0.44921  0.00000  0.10158
      15     H     0.44365  0.44365  0.00000  0.11269
      16     H     0.45128  0.45128  0.00000  0.09744

   Total alpha = 24.00000, Total beta = 24.00000, Total charge =  0.00000

*** Psi4 exiting successfully. Buy a developer a beer!
