  ==> Input File <==

--------------------------------------------------------------------------
set {
	reference rhf
	basis 6-31G*
}

set_num_threads( 4 )
memory 2 gb

molecule MOL {
0 1

O	 -1.381589	 -0.194151	 -0.991025
C	 -1.083277	 0.139568	 0.115197
C	 0.323299	 -0.082943	 0.642902
C	 -2.087705	 0.773335	 1.051835
C	 1.355627	 -0.005344	 -0.493127
H	 0.396251	 -1.044647	 1.143147
H	 0.528637	 0.693580	 1.371677
C	 2.786168	 -0.195604	 0.007473
H	 1.132807	 -0.760304	 -1.243899
H	 1.259610	 0.958506	 -0.981915
H	 3.495561	 -0.130713	 -0.811210
H	 2.912696	 -1.165395	 0.480041
H	 3.049284	 0.565503	 0.735850
H	 -2.102119	 0.257492	 2.007537
H	 -3.072997	 0.751262	 0.607484
H	 -1.803716	 1.803848	 1.248297

	symmetry c1
}
set optking {
	frozen_dihedral = ("
		4 2 3 5
	")
}

ee = optimize('scf')
oeprop('DIPOLE', 'QUADRUPOLE', 'MULLIKEN_CHARGES')
f=open( 'psi4out.xyz', 'w' )
f.write( "16  " )
f.write( str(ee) + "\n" )
f.write( MOL.save_string_xyz() )
f.close()
--------------------------------------------------------------------------

    Molecular point group: c1
  Charge       = 0
  Multiplicity = 1
  Basis Set: 6-31G*
  Basis Set:
  @DF-RHF Final Energy:  -270.03052973496563
    Total Energy =                       -270.0305297349656257
    Molecular point group: c1
  Basis Set: 6-31G*
  Basis Set:
  Basis Set: 6-31G*
  Basis Set:
  @DF-RHF Final Energy:  -270.03046092114903
    Total Energy =                       -270.0304609211490288
  Basis Set: 6-31G*
  Basis Set:
  Basis Set: 6-31G*
  Basis Set:
  @DF-RHF Final Energy:  -270.03057977050491
    Total Energy =                       -270.0305797705049144
  Basis Set: 6-31G*
  Basis Set:
  Basis Set: 6-31G*
  Basis Set:
  @DF-RHF Final Energy:  -270.03147178389600
    Total Energy =                       -270.0314717838962792
  Basis Set: 6-31G*
  Basis Set:
  Basis Set: 6-31G*
  Basis Set:
  @DF-RHF Final Energy:  -270.03158220399393
    Total Energy =                       -270.0315822039938780
  Basis Set: 6-31G*
  Basis Set:
  Basis Set: 6-31G*
  Basis Set:
  @DF-RHF Final Energy:  -270.03158647362363
    Total Energy =                       -270.0315864736236335
  Basis Set: 6-31G*
  Basis Set:
  Charge       = 0
  Multiplicity = 1
  Basis Set: 6-31G*
  Basis Set:

    Orbital Energies (a.u.)
    -----------------------

    Doubly Occupied:

       1A    -20.549641     2A    -11.326655     3A    -11.231967
       4A    -11.229030     5A    -11.221955     6A    -11.214507
       7A     -1.395467     8A     -1.077498     9A     -1.015614
      10A     -0.947274    11A     -0.824855    12A     -0.732579
      13A     -0.656139    14A     -0.648986    15A     -0.621735
      16A     -0.599896    17A     -0.568907    18A     -0.559888
      19A     -0.546242    20A     -0.503757    21A     -0.493099
      22A     -0.481510    23A     -0.475005    24A     -0.400053

  @DF-RHF Final Energy:  -270.03158669391757

   => Energetics <=

    Nuclear Repulsion Energy =            236.7529977894599540
    One-Electron Energy =                -834.9246511231976910
    Two-Electron Energy =                 328.1400666398199633
    DFT Exchange-Correlation Energy =       0.0000000000000000
    Empirical Dispersion Energy =           0.0000000000000000
    PCM Polarization Energy =               0.0000000000000000
    EFP Energy =                            0.0000000000000000
    Total Energy =                       -270.0315866939177454
    Molecular point group: c1
  Basis Set: 6-31G*
  Basis Set:

  -Total Gradient:
     Atom            X                  Y                   Z
    ------   -----------------  -----------------  -----------------
       1        0.000062403021    -0.000028836168     0.000060707372
       2       -0.000326915719    -0.001018075340     0.000722790079
       3       -0.000046162601    -0.001117698479    -0.000432153557
       4        0.000244807691     0.001182486057    -0.000502543274
       5        0.000118085986     0.001328341762     0.000183086144
       6       -0.000003396842    -0.000135910598     0.000049826859
       7        0.000042268184    -0.000061096140    -0.000155496894
       8       -0.000009323475    -0.000015007861     0.000026632781
       9       -0.000058758889    -0.000047833695     0.000115405876
      10        0.000024867534     0.000040169927    -0.000082646261
      11       -0.000009240785     0.000002119173    -0.000005747564
      12        0.000010228506    -0.000010009663     0.000003132820
      13       -0.000023039046    -0.000010699084    -0.000018195421
      14        0.000009165781    -0.000049469883     0.000000659687
      15       -0.000032666824    -0.000004745522     0.000008122959
      16       -0.000002322520    -0.000053734485     0.000026418397

  **** Optimization is complete! (in 7 steps) ****
    Final optimized geometry and variables:
    Molecular point group: c1

    Geometry (in Angstrom), charge = 0, multiplicity = 1:

    O           -1.411381821912    -0.292831291336    -1.037812699204
    C           -1.085006611918     0.054325847131     0.055926298464
    C            0.339697444730    -0.119102954773     0.555986906850
    C           -2.070940247596     0.689980061833     1.011172578567
    C            1.388135751711    -0.057069251572    -0.554503707839
    H            0.380704101170    -1.085429956331     1.059000940255
    H            0.548640720445     0.624496592000     1.320846902174
    C            2.805238524145    -0.279136928778    -0.028808232481
    H            1.148305136557    -0.799033226525    -1.306325943994
    H            1.328121024054     0.909020815117    -1.048243179763
    H            3.530378414988    -0.225753918519    -0.834435693999
    H            2.903265668965    -1.254760486575     0.439183181989
    H            3.076925591721     0.470013559432     0.709777858712
    H           -2.034498452586     0.206889803671     1.983309512467
    H           -3.071477809155     0.627289967721     0.606382395113
    H           -1.807900464719     1.733676869699     1.160935660465

  Mulliken Charges: (a.u.)
   Center  Symbol    Alpha    Beta     Spin     Total
       1     O     4.26246  4.26246  0.00000 -0.52492
       2     C     2.73447  2.73447  0.00000  0.53107
       3     C     3.20813  3.20813  0.00000 -0.41626
       4     C     3.28795  3.28795  0.00000 -0.57591
       5     C     3.15147  3.15147  0.00000 -0.30293
       6     H     0.40483  0.40483  0.00000  0.19033
       7     H     0.41461  0.41461  0.00000  0.17078
       8     C     3.24160  3.24160  0.00000 -0.48319
       9     H     0.40386  0.40386  0.00000  0.19227
      10     H     0.41780  0.41780  0.00000  0.16440
      11     H     0.41564  0.41564  0.00000  0.16872
      12     H     0.42113  0.42113  0.00000  0.15773
      13     H     0.42260  0.42260  0.00000  0.15481
      14     H     0.40986  0.40986  0.00000  0.18028
      15     H     0.39699  0.39699  0.00000  0.20602
      16     H     0.40660  0.40660  0.00000  0.18680

   Total alpha = 24.00000, Total beta = 24.00000, Total charge =  0.00000
