                              Psi4 1.0.54 Driver

  ==> Input File <==

--------------------------------------------------------------------------
set {
	reference rhf
	basis cc-pvtz
}

set_num_threads( 4 )
memory 2 gb

molecule MOL {
0 1

H	 1.258961	 -5.445908	 -1.298746
O	 2.134133	 -5.217514	 -1.551212
C	 2.121985	 -4.075227	 -2.366261
C	 1.810817	 -2.793003	 -1.608789
H	 3.111764	 -4.009564	 -2.797547
H	 1.420287	 -4.203054	 -3.188288
C	 0.400185	 -2.734861	 -1.026909
H	 2.540017	 -2.676550	 -0.812633
H	 1.952882	 -1.958754	 -2.291609
C	 0.113298	 -1.420414	 -0.302504
H	 0.260930	 -3.563487	 -0.340622
H	 -0.325464	 -2.866396	 -1.827795
C	 -1.311023	 -1.277304	 0.237018
H	 0.820251	 -1.301779	 0.515035
H	 0.304570	 -0.599693	 -0.988288
C	 -2.041121	 -0.006551	 -0.194127
H	 -1.888548	 -2.136293	 -0.093331
H	 -1.289731	 -1.328757	 1.323321
C	 -3.489218	 0.042606	 0.286507
H	 -2.022185	 0.066287	 -1.279394
H	 -1.518764	 0.869305	 0.178730
C	 -4.219984	 1.311773	 -0.139038
H	 -4.022855	 -0.824300	 -0.093339
H	 -3.510372	 -0.038577	 1.370031
H	 -4.244251	 1.405725	 -1.219696
H	 -5.244345	 1.313233	 0.215630
H	 -3.732090	 2.196311	 0.257073

	symmetry c1
}
set optking {
	frozen_dihedral = ("
		14 10 13 16
	")
}

ee,wfn = optimize('scf', return_wfn=True)
oeprop( wfn, 'DIPOLE', 'QUADRUPOLE', 'MULLIKEN_CHARGES')
f=open( 'psi4out.xyz', 'w' )
f.write( "27  " )
f.write( str(ee) + "\n" )
f.write( MOL.save_string_xyz() )
f.close()
--------------------------------------------------------------------------

    Molecular point group: c1
  Charge       = 0
  Multiplicity = 1
  Basis Set: CC-PVTZ
  Basis Set:
  @DF-RHF Final Energy:  -388.42389757528701
    Total Energy =                       -388.4238975752867873
    Molecular point group: c1
  Basis Set: CC-PVTZ
  Basis Set:
  Basis Set: CC-PVTZ
  Basis Set:
  @DF-RHF Final Energy:  -388.42431166918050
    Total Energy =                       -388.4243116691799287
  Basis Set: CC-PVTZ
  Basis Set:
  Basis Set: CC-PVTZ
  Basis Set:
  @DF-RHF Final Energy:  -388.42450254909784
    Total Energy =                       -388.4245025490980652
  Basis Set: CC-PVTZ
  Basis Set:
  Basis Set: CC-PVTZ
  Basis Set:
  @DF-RHF Final Energy:  -388.42450554077885
    Total Energy =                       -388.4245055407792506
  Basis Set: CC-PVTZ
  Basis Set:
  Basis Set: CC-PVTZ
  Basis Set:
  @DF-RHF Final Energy:  -388.42450879690000
    Total Energy =                       -388.4245087969005681
  Basis Set: CC-PVTZ
  Basis Set:
  Charge       = 0
  Multiplicity = 1
  Basis Set: CC-PVTZ
  Basis Set:

    Orbital Energies (a.u.)
    -----------------------

    Doubly Occupied:

       1A    -20.545207     2A    -11.265036     3A    -11.217793
       4A    -11.214193     5A    -11.213656     6A    -11.213172
       7A    -11.212862     8A    -11.212263     9A    -11.207265
      10A     -1.363168    11A     -1.094822    12A     -1.063618
      13A     -1.011763    14A     -0.951373    15A     -0.883290
      16A     -0.821389    17A     -0.792740    18A     -0.790804
      19A     -0.696494    20A     -0.654256    21A     -0.635675
      22A     -0.616679    23A     -0.605065    24A     -0.583479
      25A     -0.579031    26A     -0.555515    27A     -0.536552
      28A     -0.524716    29A     -0.507985    30A     -0.500791
      31A     -0.477635    32A     -0.476918    33A     -0.470698
      34A     -0.462008    35A     -0.454953    36A     -0.443348
      37A     -0.423187

  @DF-RHF Final Energy:  -388.42450904588304

   => Energetics <=

    Nuclear Repulsion Energy =            453.0057174623293577
    One-Electron Energy =               -1424.3016453603654554
    Two-Electron Energy =                 582.8714188521524875
    DFT Exchange-Correlation Energy =       0.0000000000000000
    Empirical Dispersion Energy =           0.0000000000000000
    PCM Polarization Energy =               0.0000000000000000
    EFP Energy =                            0.0000000000000000
    Total Energy =                       -388.4245090458836103
    Molecular point group: c1
  Basis Set: CC-PVTZ
  Basis Set:

  -Total Gradient:
     Atom            X                  Y                   Z
    ------   -----------------  -----------------  -----------------
       1       -0.000004383152    -0.000005787898    -0.000003987745
       2        0.000020872528    -0.000009110246     0.000018206757
       3       -0.000028842053     0.000010327026    -0.000015083300
       4        0.000006130309    -0.000010959483     0.000012582654
       5        0.000008713513    -0.000006297890     0.000000563528
       6       -0.000004056204     0.000000131238    -0.000011790043
       7        0.000015616246    -0.000014544449    -0.000007823390
       8        0.000013111299     0.000003572334     0.000010496725
       9        0.000005300353     0.000009616265    -0.000005604714
      10       -0.000197039493     0.002131563209    -0.000874113063
      11       -0.000004660381     0.000002012349     0.000008546408
      12       -0.000008655669     0.000007891016    -0.000010723653
      13        0.000689604002     0.000488736879     0.001680504517
      14       -0.000007282128    -0.001937842618     0.000321170995
      15       -0.000013063729    -0.000004377884     0.000007456647
      16       -0.000511525617    -0.000674502793    -0.001134741416
      17        0.000007243269    -0.000003595749     0.000003500376
      18        0.000004818197     0.000008679732     0.000000115064
      19        0.000005327262     0.000013739266     0.000003564228
      20        0.000011159420    -0.000004945884    -0.000016458421
      21        0.000008122611     0.000009559375     0.000013000960
      22        0.000000759744    -0.000014621967    -0.000006721494
      23       -0.000010743151    -0.000013640246    -0.000001619477
      24        0.000000340887     0.000003203603     0.000015532217
      25       -0.000000703050     0.000003688285    -0.000018659547
      26       -0.000014852694    -0.000002509249     0.000003781192
      27        0.000008687685     0.000010015772     0.000008303999

  **** Optimization is complete! (in 6 steps) ****
    Final optimized geometry and variables:
    Molecular point group: c1

    Geometry (in Angstrom), charge = 0, multiplicity = 1:

    H            1.673665413594    -3.596302680960    -0.515016221171
    O            2.562147041529    -3.399660842369    -0.746586326000
    C            2.609496571628    -2.265673247880    -1.571636079450
    C            2.306524564326    -0.968343645243    -0.836846024515
    H            3.615189076357    -2.231000680260    -1.968240606742
    H            1.933787742164    -2.382758966941    -2.416707244195
    C            0.880051650492    -0.868079707050    -0.303691375374
    H            3.011862120389    -0.862128564499    -0.018157146960
    H            2.492188155659    -0.144667496867    -1.522234751515
    C            0.587644920160     0.462193997064     0.388999155099
    H            0.694236025259    -1.674325072471     0.401366007097
    H            0.177098607351    -1.005012692024    -1.123412103375
    C           -0.843442940035     0.560245866433     0.952880065754
    H            1.308366706567     0.592274749111     1.189916022996
    H            0.762532400821     1.269671809454    -0.315291214961
    C           -1.586203837891     1.823772493367     0.524611885543
    H           -1.419505882697    -0.302021718675     0.628594220962
    H           -0.818274741676     0.509074887695     2.036679243266
    C           -2.999915207795     1.920247659323     1.089713114630
    H           -1.630205174491     1.858209181750    -0.561695016716
    H           -1.017070757060     2.698337114241     0.832007668990
    C           -3.737797553002     3.180201089254     0.649142917050
    H           -3.568370418261     1.045401877995     0.785415634698
    H           -2.954976046281     1.890531712820     2.175024274261
    H           -3.829793246040     3.222451356950    -0.431160383135
    H           -4.737234890840     3.217101348348     1.067247487035
    H           -3.212281532404     4.073677548147     0.969665168048

  Mulliken Charges: (a.u.)
   Center  Symbol    Alpha    Beta     Spin     Total
       1     H     0.39238  0.39238  0.00000  0.21523
       2     O     4.20570  4.20570  0.00000 -0.41141
       3     C     2.97997  2.97997  0.00000  0.04006
       4     C     3.08973  3.08973  0.00000 -0.17946
       5     H     0.44856  0.44856  0.00000  0.10288
       6     H     0.47007  0.47007  0.00000  0.05986
       7     C     3.10184  3.10184  0.00000 -0.20368
       8     H     0.45103  0.45103  0.00000  0.09794
       9     H     0.45560  0.45560  0.00000  0.08879
      10     C     3.09559  3.09559  0.00000 -0.19117
      11     H     0.45590  0.45590  0.00000  0.08819
      12     H     0.45352  0.45352  0.00000  0.09296
      13     C     3.09558  3.09558  0.00000 -0.19116
      14     H     0.44859  0.44859  0.00000  0.10282
      15     H     0.45294  0.45294  0.00000  0.09411
      16     C     3.08607  3.08607  0.00000 -0.17214
      17     H     0.45572  0.45572  0.00000  0.08857
      18     H     0.44930  0.44930  0.00000  0.10141
      19     C     3.08494  3.08494  0.00000 -0.16988
      20     H     0.45530  0.45530  0.00000  0.08941
      21     H     0.45353  0.45353  0.00000  0.09294
      22     C     3.15002  3.15002  0.00000 -0.30004
      23     H     0.45461  0.45461  0.00000  0.09078
      24     H     0.45456  0.45456  0.00000  0.09089
      25     H     0.45546  0.45546  0.00000  0.08909
      26     H     0.44842  0.44842  0.00000  0.10315
      27     H     0.45508  0.45508  0.00000  0.08984

   Total alpha = 37.00000, Total beta = 37.00000, Total charge = -0.00000

*** Psi4 exiting successfully. Buy a developer a beer!
