  ==> Input File <==

--------------------------------------------------------------------------
set {
	reference rhf
	basis 6-31G*
}

set_num_threads( 4 )
memory 2 gb

molecule MOL {
0 1

H	 -3.814131	 -2.320019	 0.341777
C	 -2.742821	 -2.225382	 0.352904
C	 -1.959571	 -3.286246	 0.782131
C	 -2.149814	 -1.043338	 -0.061883
H	 -2.420744	 -4.202419	 1.103555
C	 -0.582148	 -3.163810	 0.796155
H	 -2.758591	 -0.222053	 -0.394279
C	 -0.771185	 -0.918510	 -0.048697
H	 0.039635	 -3.974281	 1.125085
C	 0.016601	 -1.979914	 0.380928
H	 -0.308051	 -0.005627	 -0.368808
C	 1.504197	 -1.899048	 0.415209
O	 1.970282	 -0.730723	 0.000018
O	 2.210856	 -2.787175	 0.776763
C	 3.377318	 -0.566646	 -0.000065
H	 3.695437	 -0.028981	 -0.881264
H	 3.789299	 -1.563704	 0.000236
H	 3.695516	 -0.028316	 0.880770

	symmetry c1
}
set optking {
	frozen_dihedral = ("
		12 13 15 16
	")
}

ee = optimize('scf')
oeprop('DIPOLE', 'QUADRUPOLE', 'MULLIKEN_CHARGES')
f=open( 'psi4out.xyz', 'w' )
f.write( "18  " )
f.write( str(ee) + "\n" )
f.write( MOL.save_string_xyz() )
f.close()
--------------------------------------------------------------------------

    Molecular point group: c1
  Charge       = 0
  Multiplicity = 1
  Basis Set: 6-31G*
  Basis Set:
  @DF-RHF Final Energy:  -457.34698173743396
    Total Energy =                       -457.3469817374339073
    Molecular point group: c1
  Basis Set: 6-31G*
  Basis Set:
  Basis Set: 6-31G*
  Basis Set:
  @DF-RHF Final Energy:  -457.34810838237394
    Total Energy =                       -457.3481083823737663
  Basis Set: 6-31G*
  Basis Set:
  Basis Set: 6-31G*
  Basis Set:
  @DF-RHF Final Energy:  -457.34879495758150
    Total Energy =                       -457.3487949575817311
  Basis Set: 6-31G*
  Basis Set:
  Basis Set: 6-31G*
  Basis Set:
  @DF-RHF Final Energy:  -457.34867231703930
    Total Energy =                       -457.3486723170392452
  Basis Set: 6-31G*
  Basis Set:
  Basis Set: 6-31G*
  Basis Set:
  @DF-RHF Final Energy:  -457.34892618041096
    Total Energy =                       -457.3489261804107855
  Basis Set: 6-31G*
  Basis Set:
  Charge       = 0
  Multiplicity = 1
  Basis Set: 6-31G*
  Basis Set:

    Orbital Energies (a.u.)
    -----------------------

    Doubly Occupied:

       1A    -20.606858     2A    -20.543758     3A    -11.379118
       4A    -11.281783     5A    -11.245150     6A    -11.244950
       7A    -11.243696     8A    -11.241279     9A    -11.237084
      10A    -11.236320    11A     -1.470623    12A     -1.364337
      13A     -1.164830    14A     -1.047821    15A     -1.024398
      16A     -0.979096    17A     -0.859749    18A     -0.833890
      19A     -0.777133    20A     -0.739831    21A     -0.683719
      22A     -0.675757    23A     -0.671528    24A     -0.631142
      25A     -0.623577    26A     -0.597359    27A     -0.584538
      28A     -0.566665    29A     -0.524457    30A     -0.516259
      31A     -0.503761    32A     -0.498239    33A     -0.456452
      34A     -0.444521    35A     -0.344604    36A     -0.340576

  @DF-RHF Final Energy:  -457.34893084059706

   => Energetics <=

    Nuclear Repulsion Energy =            492.6461164458061148
    One-Electron Energy =               -1599.6203765331179056
    Two-Electron Energy =                 649.6253292467140454
    DFT Exchange-Correlation Energy =       0.0000000000000000
    Empirical Dispersion Energy =           0.0000000000000000
    PCM Polarization Energy =               0.0000000000000000
    EFP Energy =                            0.0000000000000000
    Total Energy =                       -457.3489308405978591
    Molecular point group: c1
  Basis Set: 6-31G*
  Basis Set:

  -Total Gradient:
     Atom            X                  Y                   Z
    ------   -----------------  -----------------  -----------------
       1       -0.000000637871     0.000000571339    -0.000000770683
       2       -0.000003107478    -0.000002620898     0.000000748032
       3       -0.000012587030     0.000002055735    -0.000000700069
       4       -0.000004259777    -0.000005627182     0.000003772995
       5       -0.000002598896     0.000000263328    -0.000000430283
       6        0.000002325825     0.000001720898    -0.000005241164
       7       -0.000003309024     0.000000116764     0.000001020897
       8       -0.000010861478     0.000005594118    -0.000004948394
       9       -0.000001743901     0.000003230444     0.000000445064
      10       -0.000036537470     0.000007784136     0.000022553288
      11       -0.000007411447    -0.000010235861     0.000003648824
      12        0.000049972013    -0.000431805599    -0.001198485986
      13        0.000071143945     0.000409955272     0.001489103263
      14        0.000058492407     0.000085437894    -0.000001583014
      15       -0.000244509994     0.001124166322     0.000371216174
      16        0.000096135324    -0.001154073788    -0.000655344198
      17        0.000067654477    -0.000047662788    -0.000000067771
      18       -0.000018159630     0.000011129867    -0.000024936974

  **** Optimization is complete! (in 6 steps) ****
    Final optimized geometry and variables:
    Molecular point group: c1

    Geometry (in Angstrom), charge = 0, multiplicity = 1:

    H           -4.029919727881    -0.454112160618    -0.016844741862
    C           -2.957932252435    -0.369122593778     0.001623020465
    C           -2.186979268049    -1.437681445673     0.434000146760
    C           -2.351589294707     0.808323226262    -0.406728711520
    H           -2.658324128093    -2.350380250679     0.750660587665
    C           -0.808698698691    -1.327481201007     0.457617889587
    H           -2.950771432529     1.635697256464    -0.741444231715
    C           -0.971987375760     0.920772786736    -0.384111146699
    H           -0.196702244174    -2.144145999866     0.789291509936
    C           -0.196272126637    -0.148341588995     0.048552179231
    H           -0.499039096917     1.830282316880    -0.698958476802
    C            1.292718355232    -0.082544095184     0.093244265397
    O            1.764897160183     1.087208908295    -0.312806747842
    O            1.982728212673    -0.982848470521     0.456262189481
    C            3.168562213731     1.282892326586    -0.350136226430
    H            3.380370868016     1.840806744861    -1.250016996119
    H            3.686372880815     0.338552312276    -0.366528592549
    H            3.469628733113     1.852308434989     0.518491540844

  Mulliken Charges: (a.u.)
   Center  Symbol    Alpha    Beta     Spin     Total
       1     H     0.39547  0.39547  0.00000  0.20906
       2     C     3.09000  3.09000  0.00000 -0.18001
       3     C     3.10704  3.10704  0.00000 -0.21407
       4     C     3.10710  3.10710  0.00000 -0.21419
       5     H     0.39547  0.39547  0.00000  0.20906
       6     C     3.08655  3.08655  0.00000 -0.17309
       7     H     0.39638  0.39638  0.00000  0.20724
       8     C     3.08697  3.08697  0.00000 -0.17395
       9     H     0.37595  0.37595  0.00000  0.24811
      10     C     3.07772  3.07772  0.00000 -0.15544
      11     H     0.38061  0.38061  0.00000  0.23879
      12     C     2.57949  2.57949  0.00000  0.84101
      13     O     4.31630  4.31630  0.00000 -0.63260
      14     O     4.29137  4.29137  0.00000 -0.58274
      15     C     3.09699  3.09699  0.00000 -0.19398
      16     H     0.41006  0.41006  0.00000  0.17988
      17     H     0.39469  0.39469  0.00000  0.21062
      18     H     0.41185  0.41185  0.00000  0.17631

   Total alpha = 36.00000, Total beta = 36.00000, Total charge =  0.00000
