  ==> Input File <==

--------------------------------------------------------------------------
set {
	reference rhf
	basis 6-31G*
}

set_num_threads( 4 )
memory 2 gb

molecule MOL {
0 1

H	 -0.803532	 1.877931	 0.899212
C	 -0.101672	 1.069196	 1.108084
N	 0.538815	 0.649616	 0.000000
O	 0.051307	 0.633687	 2.210871
C	 1.521968	 -0.411503	 0.000000
H	 0.318675	 1.097968	 -0.859536
H	 2.150599	 -0.357004	 -0.881901
H	 0.999455	 -1.354525	 0.000000
H	 2.150599	 -0.357004	 0.881901

	symmetry c1
}
set optking {
	frozen_dihedral = ("
		6 3 5 7
	")
}

ee = optimize('scf')
oeprop('DIPOLE', 'QUADRUPOLE', 'MULLIKEN_CHARGES')
f=open( 'psi4out.xyz', 'w' )
f.write( "9  " )
f.write( str(ee) + "\n" )
f.write( MOL.save_string_xyz() )
f.close()
--------------------------------------------------------------------------

    Molecular point group: c1
  Charge       = 0
  Multiplicity = 1
  Basis Set: 6-31G*
  Basis Set:
  @DF-RHF Final Energy:  -207.96022391989328
    Total Energy =                       -207.9602239198932807
    Molecular point group: c1
  Basis Set: 6-31G*
  Basis Set:
  Basis Set: 6-31G*
  Basis Set:
  @DF-RHF Final Energy:  -207.96087187430456
    Total Energy =                       -207.9608718743045301
  Basis Set: 6-31G*
  Basis Set:
  Basis Set: 6-31G*
  Basis Set:
  @DF-RHF Final Energy:  -207.96101122849512
    Total Energy =                       -207.9610112284951242
  Basis Set: 6-31G*
  Basis Set:
  Basis Set: 6-31G*
  Basis Set:
  @DF-RHF Final Energy:  -207.96093764865270
    Total Energy =                       -207.9609376486526742
  Basis Set: 6-31G*
  Basis Set:
  Basis Set: 6-31G*
  Basis Set:
  @DF-RHF Final Energy:  -207.96104553457536
    Total Energy =                       -207.9610455345754190
  Basis Set: 6-31G*
  Basis Set:
  Basis Set: 6-31G*
  Basis Set:
  @DF-RHF Final Energy:  -207.96106094455860
    Total Energy =                       -207.9610609445585965
  Basis Set: 6-31G*
  Basis Set:
  Charge       = 0
  Multiplicity = 1
  Basis Set: 6-31G*
  Basis Set:

    Orbital Energies (a.u.)
    -----------------------

    Doubly Occupied:

       1A    -20.526050     2A    -15.590400     3A    -11.342841
       4A    -11.261178     5A     -1.389320     6A     -1.235971
       7A     -0.967803     8A     -0.807964     9A     -0.746591
      10A     -0.641057    11A     -0.626741    12A     -0.592479
      13A     -0.557786    14A     -0.532789    15A     -0.423807
      16A     -0.391224

  @DF-RHF Final Energy:  -207.96106297071103

   => Energetics <=

    Nuclear Repulsion Energy =            122.6872304981611990
    One-Electron Energy =                -526.0285864242887328
    Two-Electron Energy =                 195.3802929554165644
    DFT Exchange-Correlation Energy =       0.0000000000000000
    Empirical Dispersion Energy =           0.0000000000000000
    PCM Polarization Energy =               0.0000000000000000
    EFP Energy =                            0.0000000000000000
    Total Energy =                       -207.9610629707109979
    Molecular point group: c1
  Basis Set: 6-31G*
  Basis Set:

  -Total Gradient:
     Atom            X                  Y                   Z
    ------   -----------------  -----------------  -----------------
       1        0.000004257768    -0.000007463685     0.000022053259
       2        0.000026439160     0.000013350677    -0.000137132131
       3       -0.000123670700     0.000012303632    -0.000016734485
       4       -0.000001787847    -0.000035029548     0.000103878648
       5        0.000100697802     0.000020358313     0.000053612560
       6        0.000047690110     0.000025687506     0.000003088501
       7       -0.000036882812    -0.000030670321    -0.000023228338
       8       -0.000005145962     0.000002576415    -0.000000938192
       9       -0.000011597519    -0.000001112989    -0.000004599824

  **** Optimization is complete! (in 7 steps) ****
    Final optimized geometry and variables:
    Molecular point group: c1

    Geometry (in Angstrom), charge = 0, multiplicity = 1:

    H           -1.309248563024     1.417224509638     0.096806632887
    C           -0.616320089491     0.594836370385     0.281511714232
    N            0.065999738971     0.228132602814    -0.818717394615
    O           -0.490640883794     0.098514360747     1.361966267156
    C            1.002481929087    -0.875672785303    -0.805483929546
    H           -0.166618927953     0.657426930477    -1.683874235941
    H            1.584134084581    -0.851532300642    -1.717163550239
    H            0.494623350488    -1.831254854658    -0.736626269978
    H            1.668950571903    -0.781241890525     0.039858063263

  Mulliken Charges: (a.u.)
   Center  Symbol    Alpha    Beta     Spin     Total
       1     H     0.42692  0.42692  0.00000  0.14616
       2     C     2.74723  2.74723  0.00000  0.50553
       3     N     3.87471  3.87471  0.00000 -0.74941
       4     O     4.28307  4.28307  0.00000 -0.56615
       5     C     3.13728  3.13728  0.00000 -0.27455
       6     H     0.30806  0.30806  0.00000  0.38388
       7     H     0.41557  0.41557  0.00000  0.16885
       8     H     0.40914  0.40914  0.00000  0.18171
       9     H     0.39801  0.39801  0.00000  0.20398

   Total alpha = 16.00000, Total beta = 16.00000, Total charge = -0.00000
