  ==> Input File <==

--------------------------------------------------------------------------
set {
	reference rhf
	basis 6-31G*
}

set_num_threads( 1 )
memory 2 gb

molecule MOL {
0 1

O	 3.225979	 0.970355	 -0.599647
C	 2.701189	 0.057885	 -0.047330
C	 1.245376	 -0.013843	 0.345420
O	 3.347903	 -1.046386	 0.304773
C	 0.455112	 1.231400	 -0.050772
H	 0.838542	 -0.913825	 -0.103701
H	 1.208210	 -0.175333	 1.419774
C	 -0.998893	 1.219485	 0.433193
H	 0.482531	 1.345121	 -1.130325
H	 0.957290	 2.103070	 0.354729
C	 -1.572147	 -0.171231	 0.720248
H	 -1.611179	 1.697202	 -0.328133
H	 -1.089348	 1.838383	 1.324704
C	 -3.055604	 -0.137853	 1.093397
H	 -1.436199	 -0.802161	 -0.156829
H	 -1.017884	 -0.645789	 1.526820
C	 -3.637908	 -1.521526	 1.387510
H	 -3.619646	 0.323995	 0.284825
H	 -3.193643	 0.501510	 1.963949
C	 -5.120637	 -1.479811	 1.755579
H	 -3.499910	 -2.162019	 0.518968
H	 -3.078180	 -1.982992	 2.198396
H	 -5.504182	 -2.475000	 1.958311
H	 -5.712754	 -1.055055	 0.949865
H	 -5.287736	 -0.874133	 2.641866
C	 4.728119	 -1.109107	 -0.004993
H	 4.882018	 -1.033965	 -1.071845
H	 5.068212	 -2.067527	 0.355250
H	 5.265056	 -0.311663	 0.488280

	symmetry c1
}
set optking {
	frozen_dihedral = ("
		21 17 14 11,
		17 14 11 15,
		15 11 8 5,
		6 3 5 9,
		2 4 26 27,
		1 2 4 26,
		6 3 2 1
	")
}

ee = energy('scf')
oeprop('DIPOLE', 'QUADRUPOLE', 'MULLIKEN_CHARGES')
f=open( 'psi4out.xyz', 'w' )
f.write( "29  " )
f.write( str(ee) + "\n" )
f.write( MOL.save_string_xyz() )
f.close()
--------------------------------------------------------------------------

    Molecular point group: c1

    Geometry (in Angstrom), charge = 0, multiplicity = 1:

       Center              X                  Y                   Z               Mass
    ------------   -----------------  -----------------  -----------------  -----------------
           O          3.064041838667     1.166735950682    -1.081328949271    15.994914619560
           C          2.539251838667     0.254265950682    -0.529011949271    12.000000000000
           C          1.083438838667     0.182537950682    -0.136261949271    12.000000000000
           O          3.185965838667    -0.850005049318    -0.176908949271    15.994914619560
           C          0.293174838667     1.427780950682    -0.532453949271    12.000000000000
           H          0.676604838667    -0.717444049318    -0.585382949271     1.007825032070
           H          1.046272838667     0.021047950682     0.938092050729     1.007825032070
           C         -1.160830161333     1.415865950682    -0.048488949271    12.000000000000
           H          0.320593838667     1.541501950682    -1.612006949271     1.007825032070
           H          0.795352838667     2.299450950682    -0.126952949271     1.007825032070
           C         -1.734084161333     0.025149950682     0.238566050729    12.000000000000
           H         -1.773116161333     1.893582950682    -0.809814949271     1.007825032070
           H         -1.251285161333     2.034763950682     0.843022050729     1.007825032070
           C         -3.217541161333     0.058527950682     0.611715050729    12.000000000000
           H         -1.598136161333    -0.605780049318    -0.638510949271     1.007825032070
           H         -1.179821161333    -0.449408049318     1.045138050729     1.007825032070
           C         -3.799845161333    -1.325145049318     0.905828050729    12.000000000000
           H         -3.781583161333     0.520375950682    -0.196856949271     1.007825032070
           H         -3.355580161333     0.697890950682     1.482267050729     1.007825032070
           C         -5.282574161333    -1.283430049318     1.273897050729    12.000000000000
           H         -3.661847161333    -1.965638049318     0.037286050729     1.007825032070
           H         -3.240117161333    -1.786611049318     1.716714050729     1.007825032070
           H         -5.666119161333    -2.278619049318     1.476629050729     1.007825032070
           H         -5.874691161333    -0.858674049318     0.468183050729     1.007825032070
           H         -5.449673161333    -0.677752049318     2.160184050729     1.007825032070
           C          4.566181838667    -0.912726049318    -0.486674949271    12.000000000000
           H          4.720080838667    -0.837584049318    -1.553526949271     1.007825032070
           H          4.906274838667    -1.871146049318    -0.126431949271     1.007825032070
           H          5.103118838667    -0.115282049318     0.006598050729     1.007825032070

  Charge       = 0
  Multiplicity = 1
  Basis Set: 6-31G*
  Basis Set:

    Orbital Energies (a.u.)
    -----------------------

    Doubly Occupied:

       1A    -20.602920     2A    -20.544436     3A    -11.371052
       4A    -11.280375     5A    -11.233965     6A    -11.217987
       7A    -11.216948     8A    -11.216300     9A    -11.216160
      10A    -11.214511    11A    -11.209302    12A     -1.468507
      13A     -1.361882    14A     -1.099850    15A     -1.066105
      16A     -1.018212    17A     -0.976505    18A     -0.929126
      19A     -0.865350    20A     -0.798671    21A     -0.791916
      22A     -0.758236    23A     -0.699141    24A     -0.683291
      25A     -0.670386    26A     -0.657617    27A     -0.629523
      28A     -0.603687    29A     -0.589984    30A     -0.579377
      31A     -0.568582    32A     -0.553751    33A     -0.531230
      34A     -0.525377    35A     -0.521077    36A     -0.512602
      37A     -0.500762    38A     -0.480101    39A     -0.467562
      40A     -0.459766    41A     -0.457117    42A     -0.450934
      43A     -0.439459    44A     -0.436519

  @DF-RHF Final Energy:  -501.03683261142896

   => Energetics <=

    Nuclear Repulsion Energy =            615.5089015286273479
    One-Electron Energy =               -1902.1389846864249193
    Two-Electron Energy =                 785.5932505463686084
    DFT Exchange-Correlation Energy =       0.0000000000000000
    Empirical Dispersion Energy =           0.0000000000000000
    PCM Polarization Energy =               0.0000000000000000
    EFP Energy =                            0.0000000000000000
    Total Energy =                       -501.0368326114289630

  Mulliken Charges: (a.u.)
   Center  Symbol    Alpha    Beta     Spin     Total
       1     O     4.28611  4.28611  0.00000 -0.57222
       2     C     2.60329  2.60329  0.00000  0.79341
       3     C     3.21492  3.21492  0.00000 -0.42983
       4     O     4.30747  4.30747  0.00000 -0.61494
       5     C     3.15440  3.15440  0.00000 -0.30880
       6     H     0.39798  0.39798  0.00000  0.20405
       7     H     0.40034  0.40034  0.00000  0.19933
       8     C     3.15619  3.15619  0.00000 -0.31239
       9     H     0.41169  0.41169  0.00000  0.17663
      10     H     0.40806  0.40806  0.00000  0.18388
      11     C     3.16010  3.16010  0.00000 -0.32021
      12     H     0.41847  0.41847  0.00000  0.16306
      13     H     0.42047  0.42047  0.00000  0.15906
      14     C     3.14872  3.14872  0.00000 -0.29745
      15     H     0.42344  0.42344  0.00000  0.15313
      16     H     0.42197  0.42197  0.00000  0.15606
      17     C     3.15145  3.15145  0.00000 -0.30290
      18     H     0.42353  0.42353  0.00000  0.15294
      19     H     0.42370  0.42370  0.00000  0.15259
      20     C     3.23934  3.23934  0.00000 -0.47868
      21     H     0.42325  0.42325  0.00000  0.15351
      22     H     0.42338  0.42338  0.00000  0.15323
      23     H     0.41923  0.41923  0.00000  0.16153
      24     H     0.42157  0.42157  0.00000  0.15685
      25     H     0.42169  0.42169  0.00000  0.15662
      26     C     3.09231  3.09231  0.00000 -0.18461
      27     H     0.40915  0.40915  0.00000  0.18169
      28     H     0.40857  0.40857  0.00000  0.18286
      29     H     0.40920  0.40920  0.00000  0.18161

   Total alpha = 44.00000, Total beta = 44.00000, Total charge = -0.00000
