  ==> Input File <==

--------------------------------------------------------------------------
set {
	reference rhf
	basis 6-31G*
}

set_num_threads( 4 )
memory 2 gb

molecule MOL {
0 1

O	 0.883584	 1.833083	 -0.466614
C	 0.140502	 1.681556	 -1.381988
C	 -1.132561	 0.871331	 -1.354793
O	 0.341690	 2.220534	 -2.577815
C	 -1.412532	 0.227344	 -0.000452
H	 -1.943418	 1.530676	 -1.652331
H	 -1.057793	 0.122680	 -2.138812
C	 -2.706999	 -0.587347	 -0.000541
H	 -1.464140	 1.000268	 0.760093
H	 -0.576961	 -0.409417	 0.273154
C	 -3.956778	 0.291888	 0.000910
H	 -2.726114	 -1.239230	 -0.871609
H	 -2.725217	 -1.240844	 0.869333
H	 -3.985213	 0.933254	 -0.875158
H	 -4.860123	 -0.309979	 0.000519
H	 -3.984618	 0.931166	 0.878514
C	 1.506578	 3.009227	 -2.739501
H	 1.492618	 3.850979	 -2.062194
H	 1.491269	 3.351988	 -3.762354
H	 2.393197	 2.419758	 -2.555273

	symmetry c1
}
set optking {
	frozen_dihedral = ("
		9 5 8 12
	")
}

ee = optimize('scf')
oeprop('DIPOLE', 'QUADRUPOLE', 'MULLIKEN_CHARGES')
f=open( 'psi4out.xyz', 'w' )
f.write( "20  " )
f.write( str(ee) + "\n" )
f.write( MOL.save_string_xyz() )
f.close()
--------------------------------------------------------------------------

    Molecular point group: c1
  Charge       = 0
  Multiplicity = 1
  Basis Set: 6-31G*
  Basis Set:
  @DF-RHF Final Energy:  -383.93951626073817
    Total Energy =                       -383.9395162607380598
    Molecular point group: c1
  Basis Set: 6-31G*
  Basis Set:
  Basis Set: 6-31G*
  Basis Set:
  @DF-RHF Final Energy:  -383.93970685063516
    Total Energy =                       -383.9397068506349342
  Basis Set: 6-31G*
  Basis Set:
  Basis Set: 6-31G*
  Basis Set:
  @DF-RHF Final Energy:  -383.93972430908565
    Total Energy =                       -383.9397243090860457
  Basis Set: 6-31G*
  Basis Set:
  Basis Set: 6-31G*
  Basis Set:
  @DF-RHF Final Energy:  -383.93972450288067
    Total Energy =                       -383.9397245028809493
  Basis Set: 6-31G*
  Basis Set:
  Basis Set: 6-31G*
  Basis Set:
  @DF-RHF Final Energy:  -383.93977460918234
    Total Energy =                       -383.9397746091823365
  Basis Set: 6-31G*
  Basis Set:
  Basis Set: 6-31G*
  Basis Set:
  @DF-RHF Final Energy:  -383.93978390627552
    Total Energy =                       -383.9397839062752382
  Basis Set: 6-31G*
  Basis Set:
  Basis Set: 6-31G*
  Basis Set:
  @DF-RHF Final Energy:  -383.93978581225758
    Total Energy =                       -383.9397858122574689
  Basis Set: 6-31G*
  Basis Set:
  Charge       = 0
  Multiplicity = 1
  Basis Set: 6-31G*
  Basis Set:

    Orbital Energies (a.u.)
    -----------------------

    Doubly Occupied:

       1A    -20.603685     2A    -20.545523     3A    -11.372360
       4A    -11.280889     5A    -11.235346     6A    -11.220554
       7A    -11.219535     8A    -11.212502     9A     -1.469393
      10A     -1.362851    11A     -1.088623    12A     -1.022722
      13A     -0.967956    14A     -0.893257    15A     -0.800626
      16A     -0.765146    17A     -0.701273    18A     -0.682821
      19A     -0.672224    20A     -0.633275    21A     -0.612395
      22A     -0.595181    23A     -0.570213    24A     -0.548273
      25A     -0.531661    26A     -0.523070    27A     -0.509514
      28A     -0.473830    29A     -0.473257    30A     -0.467166
      31A     -0.455736    32A     -0.437574

  @DF-RHF Final Energy:  -383.93978593377915

   => Energetics <=

    Nuclear Repulsion Energy =            384.4845180340495290
    One-Electron Energy =               -1284.9517442827777813
    Two-Electron Energy =                 516.5274403149488762
    DFT Exchange-Correlation Energy =       0.0000000000000000
    Empirical Dispersion Energy =           0.0000000000000000
    PCM Polarization Energy =               0.0000000000000000
    EFP Energy =                            0.0000000000000000
    Total Energy =                       -383.9397859337793761
    Molecular point group: c1
  Basis Set: 6-31G*
  Basis Set:

  -Total Gradient:
     Atom            X                  Y                   Z
    ------   -----------------  -----------------  -----------------
       1       -0.000004315052    -0.000002982454     0.000002507875
       2        0.000000833571     0.000011637899     0.000003772529
       3        0.000005529544    -0.000018758113    -0.000006171250
       4       -0.000002672339    -0.000006144773    -0.000007017507
       5        0.000628774695    -0.000960607769     0.001147070422
       6        0.000002252937     0.000006247799     0.000002151102
       7       -0.000004636505     0.000004520103    -0.000004691101
       8        0.000762051785    -0.001187045091     0.000794478212
       9       -0.000659564723     0.001007372084    -0.001076504308
      10        0.000002139725    -0.000006946031    -0.000003683214
      11        0.000008284498     0.000005378837    -0.000001953124
      12       -0.000738245663     0.001144175752    -0.000859334273
      13        0.000005674369     0.000004585997     0.000002155882
      14       -0.000008203065     0.000001325137     0.000000727604
      15        0.000008151517     0.000000252920    -0.000002946509
      16       -0.000001923565     0.000003453771     0.000002822096
      17        0.000001006443    -0.000005839976     0.000004929869
      18       -0.000001948746     0.000000497044     0.000001440628
      19       -0.000003655278    -0.000001680577     0.000000663138
      20        0.000000465852     0.000000557439    -0.000000418071

  **** Optimization is complete! (in 8 steps) ****
    Final optimized geometry and variables:
    Molecular point group: c1

    Geometry (in Angstrom), charge = 0, multiplicity = 1:

    O            1.661489383283     0.598768480165     0.611761919885
    C            0.915446380390     0.464179281737    -0.303864808358
    C           -0.369193740396    -0.328045365675    -0.282161252440
    O            1.123588484818     1.008698311808    -1.496133012166
    C           -0.652776707249    -0.977423659608     1.071238927346
    H           -1.165139072796     0.345974983861    -0.582741850439
    H           -0.301316428978    -1.075583564516    -1.068064479931
    C           -1.944796644965    -1.803560506225     1.084415191691
    H           -0.705858017451    -0.201034170437     1.828184639998
    H            0.188165247262    -1.608551573852     1.336652950929
    C           -3.223174065369    -0.962252373678     1.102624939267
    H           -1.965924095070    -2.460729627472     0.217323985177
    H           -1.938033624919    -2.446990103626     1.959581842017
    H           -3.313824429402    -0.339686442488     0.217799434644
    H           -4.102962427938    -1.596849661869     1.143007928766
    H           -3.246753787948    -0.308989341423     1.970235748520
    C            2.300075807463     1.780840596349    -1.653364846857
    H            2.299618426998     2.617679325861    -0.969838306938
    H            2.288805479826     2.131368826814    -2.673643217776
    H            3.177912993269     1.176715938836    -1.474614325828

  Mulliken Charges: (a.u.)
   Center  Symbol    Alpha    Beta     Spin     Total
       1     O     4.28587  4.28587  0.00000 -0.57175
       2     C     2.60528  2.60528  0.00000  0.78943
       3     C     3.20910  3.20910  0.00000 -0.41820
       4     O     4.30726  4.30726  0.00000 -0.61453
       5     C     3.15324  3.15324  0.00000 -0.30647
       6     H     0.39955  0.39955  0.00000  0.20090
       7     H     0.40097  0.40097  0.00000  0.19806
       8     C     3.15664  3.15664  0.00000 -0.31328
       9     H     0.41227  0.41227  0.00000  0.17547
      10     H     0.40951  0.40951  0.00000  0.18098
      11     C     3.24158  3.24158  0.00000 -0.48316
      12     H     0.42332  0.42332  0.00000  0.15337
      13     H     0.41672  0.41672  0.00000  0.16656
      14     H     0.42219  0.42219  0.00000  0.15561
      15     H     0.41771  0.41771  0.00000  0.16457
      16     H     0.41978  0.41978  0.00000  0.16045
      17     C     3.09243  3.09243  0.00000 -0.18485
      18     H     0.40905  0.40905  0.00000  0.18189
      19     H     0.40845  0.40845  0.00000  0.18310
      20     H     0.40907  0.40907  0.00000  0.18186

   Total alpha = 32.00000, Total beta = 32.00000, Total charge =  0.00000
