  ==> Input File <==

--------------------------------------------------------------------------
set {
	reference rhf
	basis 6-31G*
}

set_num_threads( 1 )
memory 2 gb

molecule MOL {
0 1

O	 1.845249	 1.299068	 -0.052277
C	 1.700933	 0.123500	 -0.153922
C	 0.377766	 -0.602507	 -0.151303
O	 2.713535	 -0.723313	 -0.290601
C	 -0.823008	 0.326187	 0.001381
H	 0.319014	 -1.173671	 -1.073818
H	 0.411918	 -1.336774	 0.648950
C	 -2.149452	 -0.435131	 -0.000098
H	 -0.815352	 1.055639	 -0.802379
H	 -0.723003	 0.891543	 0.922620
C	 -3.368779	 0.488503	 -0.000883
H	 -2.193746	 -1.087250	 -0.871175
H	 -2.195311	 -1.087803	 0.870418
C	 -4.693822	 -0.272754	 -0.001129
H	 -3.325798	 1.139422	 -0.871284
H	 -3.326423	 1.139959	 0.869145
H	 -4.781274	 -0.907928	 -0.878124
H	 -5.538651	 0.408946	 -0.001420
H	 -4.781694	 -0.907783	 0.875984
C	 4.016433	 -0.169225	 -0.310619
H	 4.124444	 0.518072	 -1.137350
H	 4.690216	 -1.003633	 -0.427468
H	 4.222164	 0.351690	 0.613410

	symmetry c1
}
set optking {
	frozen_dihedral = ("
		15 11 8 12,
		1 2 3 6,
		9 5 3 6,
		1 2 4 20
	")
}

ee = energy('scf')
oeprop('DIPOLE', 'QUADRUPOLE', 'MULLIKEN_CHARGES')
f=open( 'psi4out.xyz', 'w' )
f.write( "23  " )
f.write( str(ee) + "\n" )
f.write( MOL.save_string_xyz() )
f.close()
--------------------------------------------------------------------------

    Molecular point group: c1

    Geometry (in Angstrom), charge = 0, multiplicity = 1:

       Center              X                  Y                   Z               Mass
    ------------   -----------------  -----------------  -----------------  -----------------
           O          1.848201794274     1.293712014743     0.056528671491    15.994914619560
           C          1.703885794274     0.118144014743    -0.045116328509    12.000000000000
           C          0.380718794274    -0.607862985257    -0.042497328509    12.000000000000
           O          2.716487794274    -0.728668985257    -0.181795328509    15.994914619560
           C         -0.820055205726     0.320831014743     0.110186671491    12.000000000000
           H          0.321966794274    -1.179026985257    -0.965012328509     1.007825032070
           H          0.414870794274    -1.342129985257     0.757755671491     1.007825032070
           C         -2.146499205726    -0.440486985257     0.108707671491    12.000000000000
           H         -0.812399205726     1.050283014743    -0.693573328509     1.007825032070
           H         -0.720050205726     0.886187014743     1.031425671491     1.007825032070
           C         -3.365826205726     0.483147014743     0.107922671491    12.000000000000
           H         -2.190793205726    -1.092605985257    -0.762369328509     1.007825032070
           H         -2.192358205726    -1.093158985257     0.979223671491     1.007825032070
           C         -4.690869205726    -0.278109985257     0.107676671491    12.000000000000
           H         -3.322845205726     1.134066014743    -0.762478328509     1.007825032070
           H         -3.323470205726     1.134603014743     0.977950671491     1.007825032070
           H         -4.778321205726    -0.913283985257    -0.769318328509     1.007825032070
           H         -5.535698205726     0.403590014743     0.107385671491     1.007825032070
           H         -4.778741205726    -0.913138985257     0.984789671491     1.007825032070
           C          4.019385794274    -0.174580985257    -0.201813328509    12.000000000000
           H          4.127396794274     0.512716014743    -1.028544328509     1.007825032070
           H          4.693168794274    -1.008988985257    -0.318662328509     1.007825032070
           H          4.225116794274     0.346334014743     0.722215671491     1.007825032070

  Charge       = 0
  Multiplicity = 1
  Basis Set: 6-31G*
  Basis Set:

    Orbital Energies (a.u.)
    -----------------------

    Doubly Occupied:

       1A    -20.603624     2A    -20.545419     3A    -11.372244
       4A    -11.280849     5A    -11.235563     6A    -11.219233
       7A    -11.217840     8A    -11.216483     9A    -11.209643
      10A     -1.469321    11A     -1.362754    12A     -1.093224
      13A     -1.043658    14A     -0.987045    15A     -0.932102
      16A     -0.843570    17A     -0.795087    18A     -0.767289
      19A     -0.696916    20A     -0.683837    21A     -0.671510
      22A     -0.651609    23A     -0.609385    24A     -0.599399
      25A     -0.572753    26A     -0.558147    27A     -0.557198
      28A     -0.523896    29A     -0.521103    30A     -0.507633
      31A     -0.484531    32A     -0.469817    33A     -0.466180
      34A     -0.461236    35A     -0.455580    36A     -0.435458

  @DF-RHF Final Energy:  -422.97616288010704

   => Energetics <=

    Nuclear Repulsion Energy =            452.1472259670443918
    One-Electron Energy =               -1472.0044819918186931
    Two-Electron Energy =                 596.8810931446673749
    DFT Exchange-Correlation Energy =       0.0000000000000000
    Empirical Dispersion Energy =           0.0000000000000000
    PCM Polarization Energy =               0.0000000000000000
    EFP Energy =                            0.0000000000000000
    Total Energy =                       -422.9761628801069264

  Mulliken Charges: (a.u.)
   Center  Symbol    Alpha    Beta     Spin     Total
       1     O     4.28609  4.28609  0.00000 -0.57217
       2     C     2.60488  2.60488  0.00000  0.79025
       3     C     3.20831  3.20831  0.00000 -0.41662
       4     O     4.30741  4.30741  0.00000 -0.61482
       5     C     3.15248  3.15248  0.00000 -0.30496
       6     H     0.40058  0.40058  0.00000  0.19883
       7     H     0.40067  0.40067  0.00000  0.19866
       8     C     3.15337  3.15337  0.00000 -0.30675
       9     H     0.41180  0.41180  0.00000  0.17639
      10     H     0.41150  0.41150  0.00000  0.17699
      11     C     3.15162  3.15162  0.00000 -0.30324
      12     H     0.42444  0.42444  0.00000  0.15113
      13     H     0.42346  0.42346  0.00000  0.15307
      14     C     3.23960  3.23960  0.00000 -0.47920
      15     H     0.42142  0.42142  0.00000  0.15716
      16     H     0.42123  0.42123  0.00000  0.15755
      17     H     0.42185  0.42185  0.00000  0.15631
      18     H     0.41848  0.41848  0.00000  0.16304
      19     H     0.42179  0.42179  0.00000  0.15643
      20     C     3.09245  3.09245  0.00000 -0.18489
      21     H     0.40906  0.40906  0.00000  0.18189
      22     H     0.40843  0.40843  0.00000  0.18314
      23     H     0.40910  0.40910  0.00000  0.18181

   Total alpha = 36.00000, Total beta = 36.00000, Total charge = -0.00000
