                              Psi4 1.0.54 Driver

  ==> Input File <==

--------------------------------------------------------------------------
set {
	reference rhf
	basis cc-pvtz
}

set_num_threads( 4 )
memory 2 gb

molecule MOL {
0 1

O	 1.287795	 0.249054	 -0.943022
C	 0.576499	 0.134701	 -0.003900
C	 -0.765656	 -0.550508	 -0.002152
O	 0.872724	 0.614070	 1.192941
C	 -1.945526	 0.411052	 0.000603
H	 -0.794329	 -1.203792	 -0.868145
H	 -0.791555	 -1.205429	 0.862701
C	 -3.282915	 -0.321280	 0.002596
H	 -1.880300	 1.059126	 -0.864925
H	 -1.877207	 1.057892	 0.866807
H	 -3.388495	 -0.952755	 -0.873419
H	 -4.107811	 0.380864	 0.004116
H	 -3.385717	 -0.953283	 0.878571
C	 2.106730	 1.288739	 1.334576
H	 2.929942	 0.630734	 1.099188
H	 2.159802	 1.597357	 2.365899
H	 2.146883	 2.150253	 0.684788

	symmetry c1
}
set optking {
	frozen_dihedral = ("
		1 2 3 6
	")
}

ee,wfn = optimize('scf', return_wfn=True)
oeprop( wfn, 'DIPOLE', 'QUADRUPOLE', 'MULLIKEN_CHARGES')
f=open( 'psi4out.xyz', 'w' )
f.write( "17  " )
f.write( str(ee) + "\n" )
f.write( MOL.save_string_xyz() )
f.close()
--------------------------------------------------------------------------

    Molecular point group: c1
  Charge       = 0
  Multiplicity = 1
  Basis Set: CC-PVTZ
  Basis Set:
  @DF-RHF Final Energy:  -345.03374006103223
    Total Energy =                       -345.0337400610322902
    Molecular point group: c1
  Basis Set: CC-PVTZ
  Basis Set:
  Basis Set: CC-PVTZ
  Basis Set:
  @DF-RHF Final Energy:  -345.03406230311703
    Total Energy =                       -345.0340623031171958
  Basis Set: CC-PVTZ
  Basis Set:
  Basis Set: CC-PVTZ
  Basis Set:
  @DF-RHF Final Energy:  -345.03421354430475
    Total Energy =                       -345.0342135443046345
  Basis Set: CC-PVTZ
  Basis Set:
  Basis Set: CC-PVTZ
  Basis Set:
  @DF-RHF Final Energy:  -345.03425453860831
    Total Energy =                       -345.0342545386082520
  Basis Set: CC-PVTZ
  Basis Set:
  Basis Set: CC-PVTZ
  Basis Set:
  @DF-RHF Final Energy:  -345.03425593044244
    Total Energy =                       -345.0342559304425549
  Basis Set: CC-PVTZ
  Basis Set:
  Charge       = 0
  Multiplicity = 1
  Basis Set: CC-PVTZ
  Basis Set:

    Orbital Energies (a.u.)
    -----------------------

    Doubly Occupied:

       1A    -20.597443     2A    -20.532725     3A    -11.363597
       4A    -11.278710     5A    -11.232730     6A    -11.230488
       7A    -11.216930     8A     -1.472052     9A     -1.364782
      10A     -1.085674    11A     -1.000535    12A     -0.942418
      13A     -0.831206    14A     -0.776166    15A     -0.699617
      16A     -0.683260    17A     -0.676380    18A     -0.638163
      19A     -0.596986    20A     -0.582186    21A     -0.551938
      22A     -0.546173    23A     -0.527616    24A     -0.509227
      25A     -0.489497    26A     -0.485198    27A     -0.458340
      28A     -0.435280

  @DF-RHF Final Energy:  -345.03425604276754

   => Energetics <=

    Nuclear Repulsion Energy =            314.6068898088688002
    One-Electron Energy =               -1093.6716648825095035
    Two-Electron Energy =                 434.0305190308733927
    DFT Exchange-Correlation Energy =       0.0000000000000000
    Empirical Dispersion Energy =           0.0000000000000000
    PCM Polarization Energy =               0.0000000000000000
    EFP Energy =                            0.0000000000000000
    Total Energy =                       -345.0342560427673106
    Molecular point group: c1
  Basis Set: CC-PVTZ
  Basis Set:

  -Total Gradient:
     Atom            X                  Y                   Z
    ------   -----------------  -----------------  -----------------
       1       -0.000025184850     0.000014616845     0.000011759048
       2        0.000032934676    -0.000032441844    -0.000013973803
       3       -0.000016828110     0.000013774281    -0.000005100687
       4       -0.000005716039     0.000019638422     0.000011601387
       5        0.000003440497     0.000002279608    -0.000008843426
       6        0.000005704323    -0.000022813249     0.000001751125
       7        0.000004408117     0.000006712372    -0.000013531485
       8        0.000002209943     0.000001921389     0.000007115657
       9       -0.000005106373    -0.000007224012     0.000007394713
      10       -0.000010283067     0.000009328929    -0.000000242087
      11        0.000005952333     0.000003982772    -0.000001222855
      12        0.000002919062     0.000002494313     0.000002909312
      13        0.000001512655    -0.000001696722    -0.000001379682
      14        0.000013043141    -0.000011469681     0.000000603411
      15        0.000002841076     0.000002766890     0.000001439115
      16       -0.000003804983     0.000000440627    -0.000000057307
      17       -0.000008042394    -0.000002310942    -0.000000222436

  **** Optimization is complete! (in 6 steps) ****
    Final optimized geometry and variables:
    Molecular point group: c1

    Geometry (in Angstrom), charge = 0, multiplicity = 1:

    O            1.401089681036    -0.058471872240    -1.174741738628
    C            0.709927330700    -0.169422266975    -0.219586371572
    C           -0.631035990125    -0.854335508322    -0.205510277779
    O            1.027792439891     0.325000603007     0.965709124400
    C           -1.783071116652     0.156102597802    -0.244746807684
    H           -0.671189570367    -1.502351859121    -1.069605897305
    H           -0.705375902314    -1.460210802838     0.689274062938
    C           -3.145475067455    -0.527180021831    -0.258242620253
    H           -1.678627581467     0.777553461625    -1.127882306859
    H           -1.712025447776     0.813473919091     0.614121496963
    H           -3.251573360755    -1.172213222668    -1.123542452396
    H           -3.944245957030     0.204084110102    -0.289867056280
    H           -3.287139693862    -1.135296909634     0.628683429970
    C            2.249782039738     1.027700278514     1.068675129639
    H            3.080576458194     0.385098188239     0.817948214156
    H            2.323409198006     1.348384723834     2.095160883831
    H            2.254310076102     1.882886624871     0.409239142879

  Mulliken Charges: (a.u.)
   Center  Symbol    Alpha    Beta     Spin     Total
       1     O     4.20172  4.20172  0.00000 -0.40343
       2     C     2.80613  2.80613  0.00000  0.38773
       3     C     3.07781  3.07781  0.00000 -0.15563
       4     O     4.15038  4.15038  0.00000 -0.30077
       5     C     3.09348  3.09348  0.00000 -0.18697
       6     H     0.43873  0.43873  0.00000  0.12253
       7     H     0.44593  0.44593  0.00000  0.10813
       8     C     3.15115  3.15115  0.00000 -0.30230
       9     H     0.44577  0.44577  0.00000  0.10846
      10     H     0.44582  0.44582  0.00000  0.10836
      11     H     0.45283  0.45283  0.00000  0.09434
      12     H     0.44615  0.44615  0.00000  0.10770
      13     H     0.45416  0.45416  0.00000  0.09167
      14     C     3.03715  3.03715  0.00000 -0.07430
      15     H     0.45275  0.45275  0.00000  0.09450
      16     H     0.44549  0.44549  0.00000  0.10901
      17     H     0.45452  0.45452  0.00000  0.09095

   Total alpha = 28.00000, Total beta = 28.00000, Total charge =  0.00000

*** Psi4 exiting successfully. Buy a developer a beer!
