  ==> Input File <==

--------------------------------------------------------------------------
set {
	reference rhf
	basis 6-31G*
}

set_num_threads( 1 )
memory 2 gb

molecule MOL {
0 1

H	 2.591676	 2.013956	 0.335017
O	 3.341076	 1.666752	 -0.126416
C	 3.569581	 0.339145	 0.272707
C	 2.539767	 -0.640285	 -0.279495
H	 4.553106	 0.084646	 -0.100901
H	 3.608576	 0.269204	 1.359154
C	 1.480373	 -1.069244	 0.738614
H	 2.056071	 -0.183831	 -1.139177
H	 3.068986	 -1.519583	 -0.642992
C	 0.494144	 -2.093333	 0.169919
H	 0.936789	 -0.192407	 1.079259
H	 1.970983	 -1.494080	 1.614489
C	 -0.536858	 -2.621055	 1.174351
H	 -0.024137	 -1.656520	 -0.681800
H	 1.058530	 -2.937869	 -0.219861
C	 -1.543094	 -1.579843	 1.672190
H	 -1.084566	 -3.435957	 0.705559
H	 -0.017816	 -3.057370	 2.026444
C	 -2.613725	 -2.176040	 2.588561
H	 -2.025442	 -1.109034	 0.816742
H	 -1.026739	 -0.785667	 2.206011
C	 -3.615674	 -1.137657	 3.092071
H	 -3.145623	 -2.962002	 2.056737
H	 -2.133154	 -2.655383	 3.438953
H	 -4.136993	 -0.662910	 2.265593
H	 -4.362179	 -1.591100	 3.736862
H	 -3.118918	 -0.356268	 3.660427

	symmetry c1
}
set optking {
	frozen_dihedral = ("
		14 10 7 4,
		14 10 13 16,
		10 7 4 8,
		10 13 16 20,
		20 16 19 22,
		4 3 2 1
	")
}

ee = energy('scf')
oeprop('DIPOLE', 'QUADRUPOLE', 'MULLIKEN_CHARGES')
f=open( 'psi4out.xyz', 'w' )
f.write( "27  " )
f.write( str(ee) + "\n" )
f.write( MOL.save_string_xyz() )
f.close()
--------------------------------------------------------------------------

    Molecular point group: c1

    Geometry (in Angstrom), charge = 0, multiplicity = 1:

       Center              X                  Y                   Z               Mass
    ------------   -----------------  -----------------  -----------------  -----------------
           H          2.211350792384     2.993596995368    -0.693276114740     1.007825032070
           O          2.960750792384     2.646392995368    -1.154709114740    15.994914619560
           C          3.189255792384     1.318785995368    -0.755586114740    12.000000000000
           C          2.159441792384     0.339355995368    -1.307788114740    12.000000000000
           H          4.172780792384     1.064286995368    -1.129194114740     1.007825032070
           H          3.228250792384     1.248844995368     0.330860885260     1.007825032070
           C          1.100047792384    -0.089603004632    -0.289679114740    12.000000000000
           H          1.675745792384     0.795809995368    -2.167470114740     1.007825032070
           H          2.688660792384    -0.539942004632    -1.671285114740     1.007825032070
           C          0.113818792384    -1.113692004632    -0.858374114740    12.000000000000
           H          0.556463792384     0.787233995368     0.050965885260     1.007825032070
           H          1.590657792384    -0.514439004632     0.586195885260     1.007825032070
           C         -0.917183207616    -1.641414004632     0.146057885260    12.000000000000
           H         -0.404462207616    -0.676879004632    -1.710093114740     1.007825032070
           H          0.678204792384    -1.958228004632    -1.248154114740     1.007825032070
           C         -1.923419207616    -0.600202004632     0.643896885260    12.000000000000
           H         -1.464891207616    -2.456316004632    -0.322734114740     1.007825032070
           H         -0.398141207616    -2.077729004632     0.998150885260     1.007825032070
           C         -2.994050207616    -1.196399004632     1.560267885260    12.000000000000
           H         -2.405767207616    -0.129393004632    -0.211551114740     1.007825032070
           H         -1.407064207616     0.193973995368     1.177717885260     1.007825032070
           C         -3.995999207616    -0.158016004632     2.063777885260    12.000000000000
           H         -3.525948207616    -1.982361004632     1.028443885260     1.007825032070
           H         -2.513479207616    -1.675742004632     2.410659885260     1.007825032070
           H         -4.517318207616     0.316730995368     1.237299885260     1.007825032070
           H         -4.742504207616    -0.611459004632     2.708568885260     1.007825032070
           H         -3.499243207616     0.623372995368     2.632133885260     1.007825032070

  Charge       = 0
  Multiplicity = 1
  Basis Set: 6-31G*
  Basis Set:

    Orbital Energies (a.u.)
    -----------------------

    Doubly Occupied:

       1A    -20.551030     2A    -11.265752     3A    -11.219425
       4A    -11.216660     5A    -11.216377     6A    -11.215597
       7A    -11.214558     8A    -11.213036     9A    -11.209863
      10A     -1.358042    11A     -1.095417    12A     -1.062104
      13A     -1.011619    14A     -0.947081    15A     -0.885908
      16A     -0.820731    17A     -0.803669    18A     -0.778883
      19A     -0.690190    20A     -0.654275    21A     -0.641400
      22A     -0.610653    23A     -0.600273    24A     -0.583590
      25A     -0.577221    26A     -0.551323    27A     -0.540150
      28A     -0.531052    29A     -0.506648    30A     -0.500383
      31A     -0.483782    32A     -0.474400    33A     -0.464656
      34A     -0.460592    35A     -0.452863    36A     -0.441160
      37A     -0.421289

  @DF-RHF Final Energy:  -388.27688196483689

   => Energetics <=

    Nuclear Repulsion Energy =            456.4788334358396469
    One-Electron Energy =               -1430.9678897732601399
    Two-Electron Energy =                 586.2121743725839451
    DFT Exchange-Correlation Energy =       0.0000000000000000
    Empirical Dispersion Energy =           0.0000000000000000
    PCM Polarization Energy =               0.0000000000000000
    EFP Energy =                            0.0000000000000000
    Total Energy =                       -388.2768819648365479

  Mulliken Charges: (a.u.)
   Center  Symbol    Alpha    Beta     Spin     Total
       1     H     0.28312  0.28312  0.00000  0.43376
       2     O     4.36982  4.36982  0.00000 -0.73963
       3     C     2.99668  2.99668  0.00000  0.00665
       4     C     3.17093  3.17093  0.00000 -0.34186
       5     H     0.41454  0.41454  0.00000  0.17092
       6     H     0.42991  0.42991  0.00000  0.14017
       7     C     3.15863  3.15863  0.00000 -0.31726
       8     H     0.41031  0.41031  0.00000  0.17938
       9     H     0.42108  0.42108  0.00000  0.15785
      10     C     3.15308  3.15308  0.00000 -0.30617
      11     H     0.42624  0.42624  0.00000  0.14752
      12     H     0.42332  0.42332  0.00000  0.15335
      13     C     3.15336  3.15336  0.00000 -0.30672
      14     H     0.42275  0.42275  0.00000  0.15450
      15     H     0.42113  0.42113  0.00000  0.15775
      16     C     3.15258  3.15258  0.00000 -0.30515
      17     H     0.42130  0.42130  0.00000  0.15739
      18     H     0.42400  0.42400  0.00000  0.15199
      19     C     3.15118  3.15118  0.00000 -0.30237
      20     H     0.42437  0.42437  0.00000  0.15126
      21     H     0.42345  0.42345  0.00000  0.15310
      22     C     3.23920  3.23920  0.00000 -0.47840
      23     H     0.42279  0.42279  0.00000  0.15442
      24     H     0.42305  0.42305  0.00000  0.15391
      25     H     0.42173  0.42173  0.00000  0.15653
      26     H     0.41910  0.41910  0.00000  0.16180
      27     H     0.42235  0.42235  0.00000  0.15529

   Total alpha = 37.00000, Total beta = 37.00000, Total charge =  0.00000
