  ==> Input File <==

--------------------------------------------------------------------------
set {
	reference rhf
	basis cc-pvtz
}

set_num_threads( 4 )
memory 2 gb

molecule MOL {
0 1

H	 2.867672	 -0.456275	 0.875795
C	 2.403497	 -0.020426	 0.000000
N	 0.989899	 -0.304564	 0.000000
H	 2.867672	 -0.456275	 -0.875795
H	 2.620366	 1.051270	 0.000000
C	 0.447371	 -0.413614	 -1.338409
C	 0.233224	 0.651779	 0.781293
H	 0.568600	 0.520172	 -1.896165
H	 0.979999	 -1.188827	 -1.877001
C	 -1.026234	 -0.766820	 -1.275368
H	 0.608724	 0.658280	 1.797995
H	 0.338346	 1.665698	 0.382970
C	 -1.234880	 0.271198	 0.789870
H	 -1.460608	 -0.760016	 -2.265267
H	 -1.143614	 -1.763168	 -0.853927
O	 -1.735391	 0.161529	 -0.509594
H	 -1.820070	 1.028322	 1.292804
H	 -1.363056	 -0.671435	 1.318181

	symmetry c1
}
set optking {
	frozen_dihedral = ("
		6 3 2 5
	")
}

ee = optimize('scf')
oeprop('DIPOLE', 'QUADRUPOLE', 'MULLIKEN_CHARGES')
f=open( 'psi4out.xyz', 'w' )
f.write( "18  " )
f.write( str(ee) + "\n" )
f.write( MOL.save_string_xyz() )
f.close()
--------------------------------------------------------------------------

    Molecular point group: c1
  Charge       = 0
  Multiplicity = 1
  Basis Set: CC-PVTZ
  Basis Set:
  @DF-RHF Final Energy:  -325.14308073136488
    Total Energy =                       -325.1430807313646483
    Molecular point group: c1
  Basis Set: CC-PVTZ
  Basis Set:
  Basis Set: CC-PVTZ
  Basis Set:
  @DF-RHF Final Energy:  -325.14342287331874
    Total Energy =                       -325.1434228733185137
  Basis Set: CC-PVTZ
  Basis Set:
  Basis Set: CC-PVTZ
  Basis Set:
  @DF-RHF Final Energy:  -325.14347644732806
    Total Energy =                       -325.1434764473279984
  Basis Set: CC-PVTZ
  Basis Set:
  Charge       = 0
  Multiplicity = 1
  Basis Set: CC-PVTZ
  Basis Set:

    Orbital Energies (a.u.)
    -----------------------

    Doubly Occupied:

       1A    -20.547405     2A    -15.541993     3A    -11.264156
       4A    -11.263990     5A    -11.242633     6A    -11.242559
       7A    -11.239128     8A     -1.386223     9A     -1.231932
      10A     -1.039375    11A     -0.981829    12A     -0.884415
      13A     -0.869836    14A     -0.773429    15A     -0.684858
      16A     -0.646758    17A     -0.645164    18A     -0.634855
      19A     -0.628894    20A     -0.573365    21A     -0.558293
      22A     -0.542216    23A     -0.528111    24A     -0.500867
      25A     -0.487018    26A     -0.453944    27A     -0.410528
      28A     -0.349857

  @DF-RHF Final Energy:  -325.14347881939239

   => Energetics <=

    Nuclear Repulsion Energy =            341.6550630183008934
    One-Electron Energy =               -1119.2898212854729536
    Two-Electron Energy =                 452.4912794477795615
    DFT Exchange-Correlation Energy =       0.0000000000000000
    Empirical Dispersion Energy =           0.0000000000000000
    PCM Polarization Energy =               0.0000000000000000
    EFP Energy =                            0.0000000000000000
    Total Energy =                       -325.1434788193924987
    Molecular point group: c1
  Basis Set: CC-PVTZ
  Basis Set:

  -Total Gradient:
     Atom            X                  Y                   Z
    ------   -----------------  -----------------  -----------------
       1       -0.000026693265    -0.000007572094     0.000024941442
       2        0.000549435974    -0.001377497296    -0.005798160472
       3       -0.000815116783     0.004671513110     0.001208952211
       4       -0.000053618343    -0.000029492034     0.000010012153
       5       -0.000139997547     0.000059779671     0.004497200178
       6        0.000561146852    -0.003348337939     0.000021183834
       7       -0.000035116068     0.000080838498     0.000001828362
       8       -0.000011771324    -0.000045476167     0.000052518311
       9        0.000006319313     0.000002423165     0.000032329871
      10       -0.000020339848     0.000037391916    -0.000057144743
      11        0.000006413764    -0.000024358943    -0.000024321018
      12        0.000002521241    -0.000028069047     0.000009345990
      13        0.000000247565     0.000011396545     0.000018823566
      14       -0.000051143467    -0.000018265066    -0.000030193670
      15        0.000025448232     0.000036238019     0.000003254406
      16        0.000039628926    -0.000036358748     0.000026249514
      17       -0.000039231988     0.000006048632     0.000008120829
      18        0.000001866758     0.000009797777    -0.000004940765

  **** Optimization is complete! (in 4 steps) ****
    Final optimized geometry and variables:
    Molecular point group: c1

    Geometry (in Angstrom), charge = 0, multiplicity = 1:

    H            2.827777439441    -0.379501109669     1.146147490528
    C            2.401477738625     0.024623300059     0.233912658131
    N            0.979008825842    -0.223524880042     0.201465830145
    H            2.889117985129    -0.457775301832    -0.601781330486
    H            2.644342812663     1.088887138154     0.218801398943
    C            0.429313468345    -0.352127461479    -1.130619529398
    C            0.223002079751     0.706888774486     1.007956811802
    H            0.534420856369     0.572582872844    -1.707183515037
    H            0.960557892698    -1.132777694495    -1.661613457286
    C           -1.040994109259    -0.716708377770    -1.046599739675
    H            0.609690443026     0.697349058190     2.021082824215
    H            0.315783494858     1.729857642280     0.629804641194
    C           -1.241562537201     0.312856822291     1.024201084541
    H           -1.489244325083    -0.717078561999    -2.030466926137
    H           -1.143166344602    -1.712777253484    -0.620302991430
    O           -1.748255621270     0.206747998682    -0.273098161897
    H           -1.830758536475     1.061386571310     1.535512142564
    H           -1.358110422850    -0.634337464991     1.547091889955

  Mulliken Charges: (a.u.)
   Center  Symbol    Alpha    Beta     Spin     Total
       1     H     0.45030  0.45030  0.00000  0.09940
       2     C     3.09376  3.09376  0.00000 -0.18751
       3     N     3.61779  3.61779  0.00000 -0.23558
       4     H     0.45344  0.45344  0.00000  0.09313
       5     H     0.46742  0.46742  0.00000  0.06516
       6     C     3.03878  3.03878  0.00000 -0.07756
       7     C     3.04091  3.04091  0.00000 -0.08181
       8     H     0.47029  0.47029  0.00000  0.05942
       9     H     0.45423  0.45423  0.00000  0.09155
      10     C     2.98398  2.98398  0.00000  0.03205
      11     H     0.45442  0.45442  0.00000  0.09115
      12     H     0.46851  0.46851  0.00000  0.06298
      13     C     2.98358  2.98358  0.00000  0.03283
      14     H     0.44992  0.44992  0.00000  0.10017
      15     H     0.46817  0.46817  0.00000  0.06365
      16     O     4.18650  4.18650  0.00000 -0.37301
      17     H     0.45002  0.45002  0.00000  0.09997
      18     H     0.46799  0.46799  0.00000  0.06402

   Total alpha = 28.00000, Total beta = 28.00000, Total charge = -0.00000
