  ==> Input File <==

--------------------------------------------------------------------------
set {
	reference rhf
	basis cc-pvtz
}

set_num_threads( 4 )
memory 2 gb

molecule MOL {
0 1

H	 1.712323	 -1.698466	 -2.156636
O	 1.330297	 -1.630304	 -1.294577
C	 0.345067	 -0.738183	 -1.340005
C	 -0.318151	 -0.570512	 0.000144
O	 0.057697	 -0.168032	 -2.335151
C	 -1.454884	 0.441630	 -0.000560
H	 -0.663942	 -1.551142	 0.311085
H	 0.456290	 -0.292708	 0.707933
C	 -2.822577	 -0.232186	 0.000063
H	 -1.359760	 1.084704	 -0.867077
H	 -1.359641	 1.085996	 0.864983
H	 -2.954352	 -0.858985	 -0.875745
H	 -3.615886	 0.505352	 0.000019
H	 -2.953878	 -0.858359	 0.876394

	symmetry c1
}
set optking {
	frozen_dihedral = ("
		7 4 6 10
	")
}

ee = optimize('scf')
oeprop('DIPOLE', 'QUADRUPOLE', 'MULLIKEN_CHARGES')
f=open( 'psi4out.xyz', 'w' )
f.write( "14  " )
f.write( str(ee) + "\n" )
f.write( MOL.save_string_xyz() )
f.close()
--------------------------------------------------------------------------

    Molecular point group: c1
  Charge       = 0
  Multiplicity = 1
  Basis Set: CC-PVTZ
  Basis Set:
  @DF-RHF Final Energy:  -305.99702679922416
    Total Energy =                       -305.9970267992243294
    Molecular point group: c1
  Basis Set: CC-PVTZ
  Basis Set:
  Basis Set: CC-PVTZ
  Basis Set:
  @DF-RHF Final Energy:  -305.99741459880141
    Total Energy =                       -305.9974145988013561
  Basis Set: CC-PVTZ
  Basis Set:
  Basis Set: CC-PVTZ
  Basis Set:
  @DF-RHF Final Energy:  -305.99741968304647
    Total Energy =                       -305.9974196830465303
  Basis Set: CC-PVTZ
  Basis Set:
  Basis Set: CC-PVTZ
  Basis Set:
  @DF-RHF Final Energy:  -305.99738160824643
    Total Energy =                       -305.9973816082464282
  Basis Set: CC-PVTZ
  Basis Set:
  Basis Set: CC-PVTZ
  Basis Set:
  @DF-RHF Final Energy:  -305.99749605977161
    Total Energy =                       -305.9974960597717200
  Basis Set: CC-PVTZ
  Basis Set:
  Basis Set: CC-PVTZ
  Basis Set:
  @DF-RHF Final Energy:  -305.99749814240317
    Total Energy =                       -305.9974981424032876
  Basis Set: CC-PVTZ
  Basis Set:
  Basis Set: CC-PVTZ
  Basis Set:
  @DF-RHF Final Energy:  -305.99749986979748
    Total Energy =                       -305.9974998697974229
  Basis Set: CC-PVTZ
  Basis Set:
  Charge       = 0
  Multiplicity = 1
  Basis Set: CC-PVTZ
  Basis Set:

    Orbital Energies (a.u.)
    -----------------------

    Doubly Occupied:

       1A    -20.604903     2A    -20.541860     3A    -11.374758
       4A    -11.239949     5A    -11.222550     6A    -11.211984
       7A     -1.478804     8A     -1.370228     9A     -1.081587
      10A     -0.979092    11A     -0.860295    12A     -0.790833
      13A     -0.705895    14A     -0.696091    15A     -0.661539
      16A     -0.614381    17A     -0.599591    18A     -0.566437
      19A     -0.560523    20A     -0.493940    21A     -0.491029
      22A     -0.487343    23A     -0.480173    24A     -0.448947

  @DF-RHF Final Energy:  -305.99750007339497

   => Energetics <=

    Nuclear Repulsion Energy =            242.8142534533674848
    One-Electron Energy =                -898.4980468190628926
    Two-Electron Energy =                 349.6862932923004905
    DFT Exchange-Correlation Energy =       0.0000000000000000
    Empirical Dispersion Energy =           0.0000000000000000
    PCM Polarization Energy =               0.0000000000000000
    EFP Energy =                            0.0000000000000000
    Total Energy =                       -305.9975000733949742
    Molecular point group: c1
  Basis Set: CC-PVTZ
  Basis Set:

  -Total Gradient:
     Atom            X                  Y                   Z
    ------   -----------------  -----------------  -----------------
       1       -0.000007327724     0.000003622332     0.000003281564
       2        0.000015657107    -0.000025916149     0.000017815467
       3        0.000010989194     0.000041764913    -0.000051622322
       4        0.000433104868     0.000448934996     0.003682449405
       5       -0.000012412884    -0.000007808068     0.000034750920
       6        0.002167276346     0.002404767093     0.001371381169
       7       -0.000700490667    -0.000753850499    -0.003248188368
       8        0.000004279369     0.000000705158    -0.000005710411
       9       -0.000020739754     0.000002486859     0.000000254892
      10       -0.001889842301    -0.002123818871    -0.001796381499
      11       -0.000006639917     0.000007519946    -0.000007279978
      12        0.000004537118    -0.000000210268     0.000000803718
      13       -0.000004263914    -0.000002367332    -0.000000789476
      14        0.000005873165     0.000004169891    -0.000000765080

  **** Optimization is complete! (in 8 steps) ****
    Final optimized geometry and variables:
    Molecular point group: c1

    Geometry (in Angstrom), charge = 0, multiplicity = 1:

    H            2.164007107760    -1.187628920628    -1.303854574803
    O            1.810140596979    -1.088322909906    -0.432868869000
    C            0.787368946156    -0.240105745417    -0.488507178843
    C            0.159680070013    -0.044362834276     0.868833211700
    O            0.444927834205     0.263783449100    -1.501920938124
    C           -0.995749711026     0.961677034248     0.882948512156
    H           -0.171484979181    -1.032309850947     1.172028142305
    H            0.957115517361     0.232979176014     1.546889695973
    C           -2.366516471905     0.290597723404     0.838363481803
    H           -0.907407171715     1.609441379465     0.022272726952
    H           -0.923640796538     1.577859057174     1.770801204824
    H           -2.470374618070    -0.317416984151    -0.053589622164
    H           -3.158903176563     1.029534772668     0.827636186130
    H           -2.521307310229    -0.349921393021     1.700490581772

  Mulliken Charges: (a.u.)
   Center  Symbol    Alpha    Beta     Spin     Total
       1     H     0.38232  0.38232  0.00000  0.23536
       2     O     4.16002  4.16002  0.00000 -0.32003
       3     C     2.80243  2.80243  0.00000  0.39515
       4     C     3.11355  3.11355  0.00000 -0.22711
       5     O     4.19217  4.19217  0.00000 -0.38433
       6     C     3.08830  3.08830  0.00000 -0.17659
       7     H     0.43891  0.43891  0.00000  0.12217
       8     H     0.43003  0.43003  0.00000  0.13995
       9     C     3.14867  3.14867  0.00000 -0.29734
      10     H     0.44018  0.44018  0.00000  0.11964
      11     H     0.44771  0.44771  0.00000  0.10457
      12     H     0.45048  0.45048  0.00000  0.09903
      13     H     0.44808  0.44808  0.00000  0.10385
      14     H     0.45716  0.45716  0.00000  0.08569

   Total alpha = 24.00000, Total beta = 24.00000, Total charge = -0.00000
