                              Psi4 1.0.54 Driver

  ==> Input File <==

--------------------------------------------------------------------------
set {
	reference rhf
	basis cc-pvtz
}

set_num_threads( 4 )
memory 2 gb

molecule MOL {
0 1

O	 -0.694481	 1.313155	 -0.204815
C	 -0.862519	 0.151932	 -0.046791
C	 -2.171428	 -0.477048	 0.339095
O	 0.085519	 -0.757083	 -0.192238
H	 -2.467997	 -1.191667	 -0.417688
H	 -2.923379	 0.287970	 0.444097
H	 -2.053854	 -1.015120	 1.270901
C	 1.330869	 -0.559038	 0.466824
C	 1.294851	 -1.062090	 1.894949
H	 1.590225	 0.487463	 0.429593
H	 2.043209	 -1.119022	 -0.120322
H	 2.276799	 -0.956151	 2.342169
H	 0.589138	 -0.495355	 2.486695
H	 1.018240	 -2.109075	 1.924969

	symmetry c1
}
set optking {
	frozen_dihedral = ("
		8 4 2 1
	")
}

ee,wfn = optimize('scf', return_wfn=True)
oeprop( wfn, 'DIPOLE', 'QUADRUPOLE', 'MULLIKEN_CHARGES')
f=open( 'psi4out.xyz', 'w' )
f.write( "14  " )
f.write( str(ee) + "\n" )
f.write( MOL.save_string_xyz() )
f.close()
--------------------------------------------------------------------------

    Molecular point group: c1
  Charge       = 0
  Multiplicity = 1
  Basis Set: CC-PVTZ
  Basis Set:
  @DF-RHF Final Energy:  -305.97993090225953
    Total Energy =                       -305.9799309022595821
    Molecular point group: c1
  Basis Set: CC-PVTZ
  Basis Set:
  Basis Set: CC-PVTZ
  Basis Set:
  @DF-RHF Final Energy:  -305.97773781833121
    Total Energy =                       -305.9777378183310930
  Basis Set: CC-PVTZ
  Basis Set:
  Basis Set: CC-PVTZ
  Basis Set:
  @DF-RHF Final Energy:  -305.97821622426227
    Total Energy =                       -305.9782162242624963
  Basis Set: CC-PVTZ
  Basis Set:
  Basis Set: CC-PVTZ
  Basis Set:
  @DF-RHF Final Energy:  -305.98095487555980
    Total Energy =                       -305.9809548755597461
  Basis Set: CC-PVTZ
  Basis Set:
  @DF-RHF Final Energy:  -305.98099696450458
    Total Energy =                       -305.9809969645045271
  @DF-RHF Final Energy:  -305.98100839704500
    Total Energy =                       -305.9810083970451160
  @DF-RHF Final Energy:  -305.98101379806326
    Total Energy =                       -305.9810137980634295
  @DF-RHF Final Energy:  -305.98101503164605
    Total Energy =                       -305.9810150316465638
  Basis Set: CC-PVTZ
  Basis Set:
  @DF-RHF Final Energy:  -305.98101468356668
    Total Energy =                       -305.9810146835663431
  Basis Set: CC-PVTZ
  Basis Set:
  Basis Set: CC-PVTZ
  Basis Set:
  @DF-RHF Final Energy:  -305.98101517749785
    Total Energy =                       -305.9810151774980795
  Basis Set: CC-PVTZ
  Basis Set:
  Basis Set: CC-PVTZ
  Basis Set:
  @DF-RHF Final Energy:  -305.98089627538570
    Total Energy =                       -305.9808962753856463
  Basis Set: CC-PVTZ
  Basis Set:
  Charge       = 0
  Multiplicity = 1
  Basis Set: CC-PVTZ
  Basis Set:

    Orbital Energies (a.u.)
    -----------------------

    Doubly Occupied:

       1A    -20.583655     2A    -20.539025     3A    -11.369108
       4A    -11.287287     5A    -11.232874     6A    -11.225317
       7A     -1.464221     8A     -1.367001     9A     -1.052999
      10A     -1.006142    11A     -0.885172    12A     -0.764892
      13A     -0.698630    14A     -0.684400    15A     -0.667455
      16A     -0.615311    17A     -0.591464    18A     -0.572389
      19A     -0.558929    20A     -0.543100    21A     -0.516081
      22A     -0.496118    23A     -0.453508    24A     -0.441206

  @DF-RHF Final Energy:  -305.98101580981211

   => Energetics <=

    Nuclear Repulsion Energy =            248.9574026253597197
    One-Electron Energy =                -910.6442655057285265
    Two-Electron Energy =                 355.7058470705565014
    DFT Exchange-Correlation Energy =       0.0000000000000000
    Empirical Dispersion Energy =           0.0000000000000000
    PCM Polarization Energy =               0.0000000000000000
    EFP Energy =                            0.0000000000000000
    Total Energy =                       -305.9810158098123338
    Molecular point group: c1
  Basis Set: CC-PVTZ
  Basis Set:

  -Total Gradient:
     Atom            X                  Y                   Z
    ------   -----------------  -----------------  -----------------
       1       -0.001156854752     0.000548022587    -0.009891939288
       2       -0.000108481710    -0.002910264372     0.017477391372
       3       -0.000013729945     0.000030192754    -0.000080639353
       4        0.004949708734     0.006722555215    -0.012796680786
       5        0.000002461085    -0.000005938129    -0.000008132442
       6       -0.000012606533     0.000004881692    -0.000002397535
       7        0.000003696197    -0.000007575191     0.000000904681
       8       -0.003672386340    -0.004380234651     0.005285745591
       9        0.000001569973     0.000008693399     0.000008859848
      10        0.000004598179    -0.000004877376     0.000009258625
      11       -0.000006684531     0.000002623935     0.000001692599
      12        0.000002120754     0.000000281008    -0.000004586072
      13        0.000006025439    -0.000007900365    -0.000002944544
      14        0.000000563448    -0.000000460503     0.000003467304

  **** Optimization is complete! (in 12 steps) ****
    Final optimized geometry and variables:
    Molecular point group: c1

    Geometry (in Angstrom), charge = 0, multiplicity = 1:

    O           -0.365009583479     1.600803862355    -0.436800281815
    C           -0.613276646784     0.447025304225    -0.449696938519
    C           -2.001535012900    -0.124795929693    -0.440652592321
    O            0.320142317821    -0.498675350088    -0.592996082660
    H           -2.127645470170    -0.773323276882    -1.297844587041
    H           -2.729224745440     0.670312914825    -0.460112120108
    H           -2.135126641683    -0.730590405882     0.447540205493
    C            1.470475836297    -0.444282948282     0.239377922361
    C            1.172701441170    -0.960940334620     1.632173182742
    H            1.843945106829     0.569134278150     0.266994100939
    H            2.204326806173    -1.065452551174    -0.251012592120
    H            2.082123457008    -0.964211260201     2.221878511086
    H            0.450959059553    -0.331063222789     2.139545048277
    H            0.784973941661    -1.971362828227     1.593627993590

  Mulliken Charges: (a.u.)
   Center  Symbol    Alpha    Beta     Spin     Total
       1     O     4.18423  4.18423  0.00000 -0.36847
       2     C     2.80238  2.80238  0.00000  0.39523
       3     C     3.13653  3.13653  0.00000 -0.27305
       4     O     4.16973  4.16973  0.00000 -0.33947
       5     H     0.44349  0.44349  0.00000  0.11302
       6     H     0.43795  0.43795  0.00000  0.12410
       7     H     0.44956  0.44956  0.00000  0.10089
       8     C     2.98695  2.98695  0.00000  0.02610
       9     C     3.14808  3.14808  0.00000 -0.29616
      10     H     0.44569  0.44569  0.00000  0.10862
      11     H     0.44593  0.44593  0.00000  0.10815
      12     H     0.44766  0.44766  0.00000  0.10468
      13     H     0.45186  0.45186  0.00000  0.09629
      14     H     0.44996  0.44996  0.00000  0.10007

   Total alpha = 24.00000, Total beta = 24.00000, Total charge =  0.00000

*** Psi4 exiting successfully. Buy a developer a beer!
