  ==> Input File <==

--------------------------------------------------------------------------
set {
	reference rhf
	basis cc-pvtz
}

set_num_threads( 4 )
memory 2 gb

molecule MOL {
0 1

H	 3.273419	 0.176595	 -0.102789
N	 2.433987	 -0.362316	 -0.080024
C	 1.263552	 0.494993	 0.021953
H	 2.497638	 -0.973615	 0.707122
C	 -0.016533	 -0.325589	 -0.026925
H	 1.280915	 1.180773	 -0.818522
H	 1.263064	 1.106893	 0.925038
C	 -1.280353	 0.525521	 0.047747
H	 -0.016686	 -0.912532	 -0.939714
H	 -0.014099	 -1.037598	 0.796369
C	 -1.059870	 1.962748	 -0.412426
H	 -1.650740	 0.529051	 1.069396
H	 -2.060438	 0.070851	 -0.556916
H	 -0.308617	 2.456462	 0.194693
H	 -1.973592	 2.541882	 -0.344111
H	 -0.723539	 1.996091	 -1.443421

	symmetry c1
}
set optking {
	frozen_dihedral = ("
		12 8 5 9
	")
}

ee = optimize('scf')
oeprop('DIPOLE', 'QUADRUPOLE', 'MULLIKEN_CHARGES')
f=open( 'psi4out.xyz', 'w' )
f.write( "16  " )
f.write( str(ee) + "\n" )
f.write( MOL.save_string_xyz() )
f.close()
--------------------------------------------------------------------------

    Molecular point group: c1
  Charge       = 0
  Multiplicity = 1
  Basis Set: CC-PVTZ
  Basis Set:
  @DF-RHF Final Energy:  -212.39036230930759
    Total Energy =                       -212.3903623093077613
    Molecular point group: c1
  Basis Set: CC-PVTZ
  Basis Set:
  Basis Set: CC-PVTZ
  Basis Set:
  @DF-RHF Final Energy:  -212.39184119784269
    Total Energy =                       -212.3918411978428935
  Basis Set: CC-PVTZ
  Basis Set:
  Basis Set: CC-PVTZ
  Basis Set:
  @DF-RHF Final Energy:  -212.39362335307646
    Total Energy =                       -212.3936233530764639
  Basis Set: CC-PVTZ
  Basis Set:
  Basis Set: CC-PVTZ
  Basis Set:
  @DF-RHF Final Energy:  -212.39380172586991
    Total Energy =                       -212.3938017258698778
  Basis Set: CC-PVTZ
  Basis Set:
  Basis Set: CC-PVTZ
  Basis Set:
  @DF-RHF Final Energy:  -212.39382081039554
    Total Energy =                       -212.3938208103956526
  Basis Set: CC-PVTZ
  Basis Set:
  Basis Set: CC-PVTZ
  Basis Set:
  @DF-RHF Final Energy:  -212.39382426428529
    Total Energy =                       -212.3938242642852856
  Basis Set: CC-PVTZ
  Basis Set:
  Charge       = 0
  Multiplicity = 1
  Basis Set: CC-PVTZ
  Basis Set:

    Orbital Energies (a.u.)
    -----------------------

    Doubly Occupied:

       1A    -15.526371     2A    -11.237870     3A    -11.213359
       4A    -11.208218     5A    -11.206594     6A     -1.178314
       7A     -1.057011     8A     -0.955564     9A     -0.864584
      10A     -0.774959    11A     -0.664302    12A     -0.635053
      13A     -0.609435    14A     -0.587990    15A     -0.547596
      16A     -0.530144    17A     -0.516912    18A     -0.467832
      19A     -0.460028    20A     -0.453812    21A     -0.383649

  @DF-RHF Final Energy:  -212.39382436637186

   => Energetics <=

    Nuclear Repulsion Energy =            189.2143289000343884
    One-Electron Energy =                -661.0571161499350410
    Two-Electron Energy =                 259.4489628835287363
    DFT Exchange-Correlation Energy =       0.0000000000000000
    Empirical Dispersion Energy =           0.0000000000000000
    PCM Polarization Energy =               0.0000000000000000
    EFP Energy =                            0.0000000000000000
    Total Energy =                       -212.3938243663719163
    Molecular point group: c1
  Basis Set: CC-PVTZ
  Basis Set:

  -Total Gradient:
     Atom            X                  Y                   Z
    ------   -----------------  -----------------  -----------------
       1        0.000004725050     0.000000657119    -0.000001493090
       2        0.000005108109     0.000000755941    -0.000021840812
       3       -0.000005543966    -0.000004441226     0.000052695218
       4       -0.000007655054     0.000006788395    -0.000000736531
       5        0.002629090019     0.004669364460    -0.004018245379
       6       -0.000001490460    -0.000008646140    -0.000001905624
       7        0.000009843847     0.000011602461     0.000001661190
       8        0.003567928150     0.005056266894     0.002200069064
       9       -0.002783957263    -0.004719998628     0.002995095227
      10        0.000008945499     0.000006869970    -0.000005033852
      11       -0.000001825973     0.000001628750    -0.000006730645
      12       -0.003423993907    -0.005029568368    -0.001193325779
      13       -0.000001668379     0.000005840655     0.000002442730
      14       -0.000002165601    -0.000001709487     0.000000505036
      15       -0.000001885404     0.000001013302    -0.000001066602
      16        0.000004545334     0.000003575901    -0.000002090150

  **** Optimization is complete! (in 7 steps) ****
    Final optimized geometry and variables:
    Molecular point group: c1

    Geometry (in Angstrom), charge = 0, multiplicity = 1:

    H            3.018561705401    -0.434898138950     0.051604001018
    N            2.145685397342    -0.917673690988     0.027512753782
    C            1.030547345764     0.011008455388     0.124550689287
    H            2.142701466431    -1.560960261035     0.791304061473
    C           -0.288148143946    -0.739531815381     0.016560951573
    H            1.123786647405     0.720103734714    -0.688758473072
    H            1.041768302575     0.590117441281     1.049160766191
    C           -1.570434226413     0.103239905651     0.155962668637
    H           -0.311317568013    -1.311337377560    -0.904378803201
    H           -0.304077353609    -1.494459939925     0.800150218997
    C           -1.504464852500     1.536580231308    -0.363189848277
    H           -1.906997662420     0.087874657213     1.187878617603
    H           -2.357335615806    -0.413295889257    -0.385748281249
    H           -0.795014756282     2.139955436724     0.190208284724
    H           -2.474402877714     2.012671124552    -0.277278834161
    H           -1.217900322980     1.564054303528    -1.409187002614

  Mulliken Charges: (a.u.)
   Center  Symbol    Alpha    Beta     Spin     Total
       1     H     0.43013  0.43013  0.00000  0.13974
       2     N     3.69002  3.69002  0.00000 -0.38004
       3     C     3.02777  3.02777  0.00000 -0.05554
       4     H     0.43100  0.43100  0.00000  0.13800
       5     C     3.08836  3.08836  0.00000 -0.17672
       6     H     0.45416  0.45416  0.00000  0.09169
       7     H     0.46675  0.46675  0.00000  0.06650
       8     C     3.09256  3.09256  0.00000 -0.18512
       9     H     0.44697  0.44697  0.00000  0.10607
      10     H     0.45909  0.45909  0.00000  0.08183
      11     C     3.15761  3.15761  0.00000 -0.31522
      12     H     0.45333  0.45333  0.00000  0.09335
      13     H     0.45149  0.45149  0.00000  0.09701
      14     H     0.45350  0.45350  0.00000  0.09300
      15     H     0.44495  0.44495  0.00000  0.11010
      16     H     0.45232  0.45232  0.00000  0.09536

   Total alpha = 21.00000, Total beta = 21.00000, Total charge =  0.00000
