  ==> Input File <==

--------------------------------------------------------------------------
set {
	reference rhf
	basis cc-pvtz
}

set_num_threads( 4 )
memory 2 gb

molecule MOL {
0 1

H	 3.273419	 0.176595	 -0.102789
N	 2.433987	 -0.362316	 -0.080024
C	 1.263552	 0.494993	 0.021953
H	 2.497638	 -0.973615	 0.707122
C	 -0.016533	 -0.325589	 -0.026925
H	 1.280915	 1.180773	 -0.818522
H	 1.263064	 1.106893	 0.925038
C	 -1.280353	 0.525521	 0.047747
H	 -0.016686	 -0.912532	 -0.939714
H	 -0.014099	 -1.037598	 0.796369
C	 -1.700533	 1.089769	 -1.305421
H	 -1.120703	 1.344676	 0.743781
H	 -2.093639	 -0.067443	 0.457421
H	 -0.921098	 1.715569	 -1.726829
H	 -2.597720	 1.691847	 -1.218772
H	 -1.903309	 0.294384	 -2.014945

	symmetry c1
}
set optking {
	frozen_dihedral = ("
		12 8 5 9
	")
}

ee = optimize('scf')
oeprop('DIPOLE', 'QUADRUPOLE', 'MULLIKEN_CHARGES')
f=open( 'psi4out.xyz', 'w' )
f.write( "16  " )
f.write( str(ee) + "\n" )
f.write( MOL.save_string_xyz() )
f.close()
--------------------------------------------------------------------------

    Molecular point group: c1
  Charge       = 0
  Multiplicity = 1
  Basis Set: CC-PVTZ
  Basis Set:
  @DF-RHF Final Energy:  -212.39764426615915
    Total Energy =                       -212.3976442661591477
    Molecular point group: c1
  Basis Set: CC-PVTZ
  Basis Set:
  Basis Set: CC-PVTZ
  Basis Set:
  @DF-RHF Final Energy:  -212.39779771103306
    Total Energy =                       -212.3977977110331494
  Basis Set: CC-PVTZ
  Basis Set:
  Basis Set: CC-PVTZ
  Basis Set:
  @DF-RHF Final Energy:  -212.39782299077748
    Total Energy =                       -212.3978229907777404
  Basis Set: CC-PVTZ
  Basis Set:
  Charge       = 0
  Multiplicity = 1
  Basis Set: CC-PVTZ
  Basis Set:

    Orbital Energies (a.u.)
    -----------------------

    Doubly Occupied:

       1A    -15.526544     2A    -11.237947     3A    -11.213077
       4A    -11.208042     5A    -11.205297     6A     -1.178374
       7A     -1.059385     8A     -0.956489     9A     -0.853714
      10A     -0.784760    11A     -0.664374    12A     -0.627784
      13A     -0.615898    14A     -0.592141    15A     -0.548061
      16A     -0.522381    17A     -0.514259    18A     -0.468868
      19A     -0.465839    20A     -0.455059    21A     -0.384180

  @DF-RHF Final Energy:  -212.39782339737172

   => Energetics <=

    Nuclear Repulsion Energy =            188.4841363650271546
    One-Electron Energy =                -659.5989748866379614
    Two-Electron Energy =                 258.7170151242391398
    DFT Exchange-Correlation Energy =       0.0000000000000000
    Empirical Dispersion Energy =           0.0000000000000000
    PCM Polarization Energy =               0.0000000000000000
    EFP Energy =                            0.0000000000000000
    Total Energy =                       -212.3978233973716669
    Molecular point group: c1
  Basis Set: CC-PVTZ
  Basis Set:

  -Total Gradient:
     Atom            X                  Y                   Z
    ------   -----------------  -----------------  -----------------
       1        0.000015994891    -0.000009615309    -0.000001953699
       2        0.000035848728     0.000001506805    -0.000011496515
       3       -0.000025045664    -0.000040027323     0.000005219762
       4       -0.000000870015     0.000009017376    -0.000004101742
       5       -0.001150139400    -0.001792416655     0.000985245022
       6        0.000004678482    -0.000001225925     0.000002131808
       7       -0.000018426500     0.000015742813     0.000000347377
       8       -0.000782588251    -0.001226905239     0.001819901698
       9        0.001080612216     0.001729316532    -0.001102425414
      10        0.000002146326     0.000009618703     0.000001891054
      11        0.000026126578    -0.000001827451     0.000028730409
      12        0.000816056181     0.001293490889    -0.001730839914
      13       -0.000008041784     0.000003416981    -0.000001041302
      14        0.000005445092     0.000002373913    -0.000008680943
      15       -0.000006525132     0.000010457021     0.000004960497
      16        0.000004728253    -0.000002923133     0.000012111904

  **** Optimization is complete! (in 4 steps) ****
    Final optimized geometry and variables:
    Molecular point group: c1

    Geometry (in Angstrom), charge = 0, multiplicity = 1:

    H            3.099443441386    -0.111125651897     0.150572499744
    N            2.258303570123    -0.647538801517     0.170061774447
    C            1.091370461465     0.210405496235     0.299913469929
    H            2.327043962842    -1.275304612235     0.943771472507
    C           -0.190963473325    -0.612239502541     0.258153530992
    H            1.104901617418     0.910817621534    -0.527425645051
    H            1.101323931970     0.805160453737     1.214295097698
    C           -1.464835463626     0.237663644824     0.310838343039
    H           -0.175941094966    -1.205422107852    -0.650062185499
    H           -0.180734693732    -1.308247472960     1.092590443037
    C           -1.878691638384     0.804838931523    -1.046079225753
    H           -1.320149511782     1.062940183946     1.002862282912
    H           -2.281309618916    -0.357911256265     0.704193479970
    H           -1.100705952421     1.425337173843    -1.476379158721
    H           -2.770797164792     1.414509709560    -0.956993934192
    H           -2.090923082987     0.008045972686    -1.750743156092

  Mulliken Charges: (a.u.)
   Center  Symbol    Alpha    Beta     Spin     Total
       1     H     0.43014  0.43014  0.00000  0.13973
       2     N     3.68920  3.68920  0.00000 -0.37840
       3     C     3.02487  3.02487  0.00000 -0.04975
       4     H     0.43100  0.43100  0.00000  0.13800
       5     C     3.08718  3.08718  0.00000 -0.17436
       6     H     0.45684  0.45684  0.00000  0.08632
       7     H     0.46862  0.46862  0.00000  0.06275
       8     C     3.09460  3.09460  0.00000 -0.18920
       9     H     0.45120  0.45120  0.00000  0.09759
      10     H     0.45448  0.45448  0.00000  0.09103
      11     C     3.14758  3.14758  0.00000 -0.29517
      12     H     0.45762  0.45762  0.00000  0.08477
      13     H     0.44808  0.44808  0.00000  0.10385
      14     H     0.45555  0.45555  0.00000  0.08890
      15     H     0.44883  0.44883  0.00000  0.10234
      16     H     0.45420  0.45420  0.00000  0.09160

   Total alpha = 21.00000, Total beta = 21.00000, Total charge =  0.00000
