  ==> Input File <==

--------------------------------------------------------------------------
set {
	reference rhf
	basis 6-31G*
}

set_num_threads( 4 )
memory 2 gb

molecule MOL {
0 1

H	 2.540895	 -2.021409	 -1.644247
O	 2.108863	 -1.817779	 -0.820452
C	 1.348253	 -0.739501	 -1.008086
C	 0.624473	 -0.343591	 0.253101
O	 1.280022	 -0.190092	 -2.059042
C	 -0.265902	 0.883932	 0.072916
H	 0.061804	 -1.211392	 0.581275
H	 1.378989	 -0.172714	 1.016815
C	 -1.728698	 0.646073	 0.462102
H	 -0.209144	 1.219470	 -0.958188
H	 0.135059	 1.692851	 0.673903
C	 -2.482460	 -0.343073	 -0.431425
H	 -2.245265	 1.602650	 0.432430
H	 -1.779332	 0.308348	 1.496285
C	 -3.960546	 -0.461025	 -0.060175
H	 -2.395034	 -0.026811	 -1.468912
H	 -2.024850	 -1.327147	 -0.371646
H	 -4.472726	 -1.168004	 -0.705284
H	 -4.465146	 0.496508	 -0.151489
H	 -4.081218	 -0.800940	 0.964585

	symmetry c1
}
set optking {
	frozen_dihedral = ("
		7 4 6 10
	")
}

ee = optimize('scf')
oeprop('DIPOLE', 'QUADRUPOLE', 'MULLIKEN_CHARGES')
f=open( 'psi4out.xyz', 'w' )
f.write( "20  " )
f.write( str(ee) + "\n" )
f.write( MOL.save_string_xyz() )
f.close()
--------------------------------------------------------------------------

    Molecular point group: c1
  Charge       = 0
  Multiplicity = 1
  Basis Set: 6-31G*
  Basis Set:
  @DF-RHF Final Energy:  -383.94406541499444
    Total Energy =                       -383.9440654149941565
    Molecular point group: c1
  Basis Set: 6-31G*
  Basis Set:
  Basis Set: 6-31G*
  Basis Set:
  @DF-RHF Final Energy:  -383.94436785067194
    Total Energy =                       -383.9443678506721653
  Basis Set: 6-31G*
  Basis Set:
  Basis Set: 6-31G*
  Basis Set:
  @DF-RHF Final Energy:  -383.94455033437293
    Total Energy =                       -383.9445503343731616
  Basis Set: 6-31G*
  Basis Set:
  Basis Set: 6-31G*
  Basis Set:
  @DF-RHF Final Energy:  -383.94434010218720
    Total Energy =                       -383.9443401021868567
  Basis Set: 6-31G*
  Basis Set:
  Basis Set: 6-31G*
  Basis Set:
  @DF-RHF Final Energy:  -383.94453583030042
    Total Energy =                       -383.9445358303005378
  Basis Set: 6-31G*
  Basis Set:
  Basis Set: 6-31G*
  Basis Set:
  @DF-RHF Final Energy:  -383.94455763159215
    Total Energy =                       -383.9445576315921471
  Basis Set: 6-31G*
  Basis Set:
  Basis Set: 6-31G*
  Basis Set:
  @DF-RHF Final Energy:  -383.94457215796814
    Total Energy =                       -383.9445721579676274
  Basis Set: 6-31G*
  Basis Set:
  Charge       = 0
  Multiplicity = 1
  Basis Set: 6-31G*
  Basis Set:

    Orbital Energies (a.u.)
    -----------------------

    Doubly Occupied:

       1A    -20.612754     2A    -20.552312     3A    -11.381881
       4A    -11.240266     5A    -11.221120     6A    -11.218934
       7A    -11.217084     8A    -11.210211     9A     -1.475110
      10A     -1.365978    11A     -1.093501    12A     -1.038142
      13A     -0.960507    14A     -0.868904    15A     -0.812828
      16A     -0.777101    17A     -0.700425    18A     -0.691844
      19A     -0.661086    20A     -0.632631    21A     -0.603906
      22A     -0.591839    23A     -0.575119    24A     -0.555646
      25A     -0.531197    26A     -0.513246    27A     -0.495468
      28A     -0.479696    29A     -0.468460    30A     -0.465656
      31A     -0.453000    32A     -0.445413

  @DF-RHF Final Energy:  -383.94457281312401

   => Energetics <=

    Nuclear Repulsion Energy =            381.6641538067270290
    One-Electron Energy =               -1279.3949232005447811
    Two-Electron Energy =                 513.7861965806938542
    DFT Exchange-Correlation Energy =       0.0000000000000000
    Empirical Dispersion Energy =           0.0000000000000000
    PCM Polarization Energy =               0.0000000000000000
    EFP Energy =                            0.0000000000000000
    Total Energy =                       -383.9445728131239548
    Molecular point group: c1
  Basis Set: 6-31G*
  Basis Set:

  -Total Gradient:
     Atom            X                  Y                   Z
    ------   -----------------  -----------------  -----------------
       1        0.000025714684    -0.000013485690     0.000002998074
       2       -0.000028980958    -0.000058343047    -0.000074351520
       3        0.000057541465     0.000141456076     0.000039892992
       4       -0.000165875876    -0.000057429470     0.000176781578
       5        0.000026346488    -0.000055059348     0.000021774200
       6        0.000186228349     0.000094373821     0.000104657055
       7       -0.000005592905    -0.000024871215    -0.000137948663
       8        0.000059496585     0.000044533828    -0.000009024055
       9        0.000007031375    -0.000012913988    -0.000019877840
      10       -0.000125751099    -0.000172516209    -0.000023698842
      11       -0.000043074592     0.000058718171    -0.000045025823
      12       -0.000021595495     0.000144822847    -0.000106430320
      13        0.000031149352     0.000030774482     0.000028445555
      14       -0.000016164240    -0.000047942869    -0.000027501223
      15        0.000032835871    -0.000071656831     0.000073086147
      16       -0.000024901027     0.000046884881    -0.000028216961
      17       -0.000016664304    -0.000025323078     0.000018084506
      18        0.000018641165    -0.000028707531     0.000018238808
      19        0.000025747555    -0.000010649804    -0.000036518532
      20       -0.000022132402     0.000017334978     0.000024634868

  **** Optimization is complete! (in 8 steps) ****
    Final optimized geometry and variables:
    Molecular point group: c1

    Geometry (in Angstrom), charge = 0, multiplicity = 1:

    H            2.923652642000    -1.737311413791    -1.090544433810
    O            2.493809695312    -1.489334411273    -0.277900359983
    C            1.706528462563    -0.443417679953    -0.528893106353
    C            0.982680616149     0.006530243751     0.716481626438
    O            1.619583484986     0.031639587222    -1.614143601522
    C            0.076695071261     1.235349077739     0.524017020413
    H            0.426865508266    -0.855007013499     1.073391802275
    H            1.743819674303     0.185215271386     1.469218174806
    C           -1.383270332166     1.002069028701     0.929926651475
    H            0.115154196400     1.546154399191    -0.512682321932
    H            0.474847983593     2.059647405117     1.106802954949
    C           -2.148997364625     0.065222523480    -0.007949831676
    H           -1.892277651295     1.962932523532     0.953747727813
    H           -1.423306997982     0.613471546296     1.946627137558
    C           -3.597852360617    -0.152175755789     0.427587663582
    H           -2.129352304483     0.476775992644    -1.014136540195
    H           -1.648275106676    -0.898537737542    -0.066038633099
    H           -4.117581445353    -0.817266668390    -0.254914870953
    H           -4.143807012184     0.786582622924     0.454516679474
    H           -3.648303125328    -0.591255236796     1.420124652379

  Mulliken Charges: (a.u.)
   Center  Symbol    Alpha    Beta     Spin     Total
       1     H     0.26763  0.26763  0.00000  0.46474
       2     O     4.34969  4.34969  0.00000 -0.69938
       3     C     2.62970  2.62970  0.00000  0.74060
       4     C     3.21370  3.21370  0.00000 -0.42740
       5     O     4.27838  4.27838  0.00000 -0.55675
       6     C     3.16380  3.16380  0.00000 -0.32760
       7     H     0.39587  0.39587  0.00000  0.20825
       8     H     0.39495  0.39495  0.00000  0.21010
       9     C     3.15651  3.15651  0.00000 -0.31303
      10     H     0.39411  0.39411  0.00000  0.21178
      11     H     0.41584  0.41584  0.00000  0.16832
      12     C     3.15320  3.15320  0.00000 -0.30640
      13     H     0.41943  0.41943  0.00000  0.16114
      14     H     0.42461  0.42461  0.00000  0.15078
      15     C     3.23937  3.23937  0.00000 -0.47874
      16     H     0.41704  0.41704  0.00000  0.16592
      17     H     0.42459  0.42459  0.00000  0.15083
      18     H     0.41817  0.41817  0.00000  0.16366
      19     H     0.42107  0.42107  0.00000  0.15786
      20     H     0.42234  0.42234  0.00000  0.15532

   Total alpha = 32.00000, Total beta = 32.00000, Total charge = -0.00000
