  ==> Input File <==

--------------------------------------------------------------------------
set {
	reference rhf
	basis cc-pvtz
}

set_num_threads( 4 )
memory 2 gb

molecule MOL {
0 1

H	 2.960595	 -0.581483	 -1.729224
O	 2.049729	 -0.796260	 -1.816514
C	 1.302360	 -0.139947	 -0.907580
C	 1.857325	 0.731201	 0.017512
C	 -0.060027	 -0.358641	 -0.917360
H	 2.918817	 0.900394	 0.023719
C	 1.050079	 1.380723	 0.929340
H	 -0.491665	 -1.030847	 -1.630572
C	 -0.861704	 0.296439	 0.000000
H	 1.490581	 2.052448	 1.640372
C	 -0.313712	 1.167455	 0.926206
C	 -2.330689	 0.069587	 0.000000
H	 -0.943963	 1.671101	 1.634028
O	 -2.848621	 -0.993976	 0.000000
H	 -2.934306	 0.982410	 0.000000

	symmetry c1
}
set optking {
	frozen_dihedral = ("
		11 9 12 14
	")
}

ee = optimize('scf')
oeprop('DIPOLE', 'QUADRUPOLE', 'MULLIKEN_CHARGES')
f=open( 'psi4out.xyz', 'w' )
f.write( "15  " )
f.write( str(ee) + "\n" )
f.write( MOL.save_string_xyz() )
f.close()
--------------------------------------------------------------------------

    Molecular point group: c1
  Charge       = 0
  Multiplicity = 1
  Basis Set: CC-PVTZ
  Basis Set:
  @DF-RHF Final Energy:  -418.43206142191207
    Total Energy =                       -418.4320614219119534
    Molecular point group: c1
  Basis Set: CC-PVTZ
  Basis Set:
  Basis Set: CC-PVTZ
  Basis Set:
  @DF-RHF Final Energy:  -418.43031102053618
    Total Energy =                       -418.4303110205364646
  Basis Set: CC-PVTZ
  Basis Set:
  Basis Set: CC-PVTZ
  Basis Set:
  @DF-RHF Final Energy:  -418.43256841545764
    Total Energy =                       -418.4325684154576948
  Basis Set: CC-PVTZ
  Basis Set:
  Basis Set: CC-PVTZ
  Basis Set:
  @DF-RHF Final Energy:  -418.43267236304490
    Total Energy =                       -418.4326723630448441
  Basis Set: CC-PVTZ
  Basis Set:
  Basis Set: CC-PVTZ
  Basis Set:
  @DF-RHF Final Energy:  -418.43267388409777
    Total Energy =                       -418.4326738840976532
  Basis Set: CC-PVTZ
  Basis Set:
  Charge       = 0
  Multiplicity = 1
  Basis Set: CC-PVTZ
  Basis Set:

    Orbital Energies (a.u.)
    -----------------------

    Doubly Occupied:

       1A    -20.595733     2A    -20.559536     3A    -11.330420
       4A    -11.311551     5A    -11.253437     6A    -11.250192
       7A    -11.242810     8A    -11.239960     9A    -11.237179
      10A     -1.427576    11A     -1.414555    12A     -1.173034
      13A     -1.051084    14A     -1.029123    15A     -0.901968
      16A     -0.848050    17A     -0.818818    18A     -0.741277
      19A     -0.704928    20A     -0.687075    21A     -0.652974
      22A     -0.643481    23A     -0.616235    24A     -0.607436
      25A     -0.583962    26A     -0.549359    27A     -0.540331
      28A     -0.516770    29A     -0.494925    30A     -0.427306
      31A     -0.357580    32A     -0.329246

  @DF-RHF Final Energy:  -418.43267433351684

   => Energetics <=

    Nuclear Repulsion Energy =            403.8111086849482945
    One-Electron Energy =               -1370.2117477724443688
    Two-Electron Energy =                 547.9679647539794587
    DFT Exchange-Correlation Energy =       0.0000000000000000
    Empirical Dispersion Energy =           0.0000000000000000
    PCM Polarization Energy =               0.0000000000000000
    EFP Energy =                            0.0000000000000000
    Total Energy =                       -418.4326743335166157
    Molecular point group: c1
  Basis Set: CC-PVTZ
  Basis Set:

  -Total Gradient:
     Atom            X                  Y                   Z
    ------   -----------------  -----------------  -----------------
       1       -0.000008625808     0.000020714412    -0.000009071173
       2        0.000006934066    -0.000005341145     0.000025355239
       3       -0.000058814983    -0.000053352857    -0.000013891147
       4       -0.000014636120     0.000073109517     0.000023195221
       5        0.000076369405     0.000001669608    -0.000052105689
       6        0.000004340576    -0.000009404964     0.000001573562
       7        0.000090836254    -0.000038787342    -0.000011651080
       8       -0.000006660686     0.000010336032     0.000002854569
       9       -0.001124793363     0.005807227576    -0.001669604018
      10       -0.000001189537    -0.000001072445    -0.000003654781
      11        0.000758827219    -0.004083896117     0.003160946095
      12        0.000077916934    -0.001500299531    -0.007974450289
      13       -0.000000124545    -0.000001874689     0.000002858988
      14        0.000200697303    -0.000200514049     0.006516403819
      15       -0.000001076714    -0.000018514010     0.000001240678

  **** Optimization is complete! (in 6 steps) ****
    Final optimized geometry and variables:
    Molecular point group: c1

    Geometry (in Angstrom), charge = 0, multiplicity = 1:

    H            2.976371896734    -0.717416675247    -1.467284097091
    O            2.062142651156    -0.909707640492    -1.572290987842
    C            1.317579034326    -0.245959944355    -0.667692704211
    C            1.873655120776     0.611005211388     0.266364174960
    C           -0.049309480666    -0.453956030128    -0.687864454398
    H            2.937222325885     0.764457637119     0.288284669335
    C            1.060565978971     1.265189213827     1.171505822252
    H           -0.470243863016    -1.143449545788    -1.391868796724
    C           -0.854532771611     0.226256337224     0.203623515155
    H            1.501157783221     1.918605698528     1.899590304293
    C           -0.306678568482     1.085298349884     1.142376323439
    C           -2.321945881573    -0.045232593754     0.241779101477
    H           -0.937532470981     1.602293604208     1.840280508210
    O           -2.793851126733    -1.128360920332     0.223179243611
    H           -2.959211114862     0.837510110212     0.356883124480

  Mulliken Charges: (a.u.)
   Center  Symbol    Alpha    Beta     Spin     Total
       1     H     0.38684  0.38684  0.00000  0.22632
       2     O     4.17055  4.17055  0.00000 -0.34110
       3     C     2.83811  2.83811  0.00000  0.32378
       4     C     3.13376  3.13376  0.00000 -0.26752
       5     C     3.12547  3.12547  0.00000 -0.25095
       6     H     0.43210  0.43210  0.00000  0.13579
       7     C     3.05903  3.05903  0.00000 -0.11807
       8     H     0.41131  0.41131  0.00000  0.17738
       9     C     2.94315  2.94315  0.00000  0.11371
      10     H     0.41958  0.41958  0.00000  0.16084
      11     C     3.11401  3.11401  0.00000 -0.22801
      12     C     2.92564  2.92564  0.00000  0.14872
      13     H     0.42442  0.42442  0.00000  0.15116
      14     O     4.16019  4.16019  0.00000 -0.32039
      15     H     0.45583  0.45583  0.00000  0.08834

   Total alpha = 32.00000, Total beta = 32.00000, Total charge = -0.00000
