  ==> Input File <==

--------------------------------------------------------------------------
set {
	reference rhf
	basis 6-31G*
}

set_num_threads( 1 )
memory 2 gb

molecule MOL {
0 1

O	 0.749854	 1.307668	 -0.000040
C	 0.576249	 0.131685	 -0.000108
C	 -0.766779	 -0.556801	 -0.000461
O	 1.568443	 -0.749345	 -0.000005
C	 -1.945214	 0.412366	 0.000161
H	 -0.796911	 -1.211249	 -0.867467
H	 -0.796854	 -1.212390	 0.865687
C	 -3.005486	 0.026869	 -1.030268
H	 -1.583726	 1.415640	 -0.198256
H	 -2.385241	 0.440197	 0.991209
H	 -2.596176	 0.022552	 -2.036697
H	 -3.833589	 0.727861	 -1.014261
H	 -3.407370	 -0.963186	 -0.833404
C	 2.886820	 -0.232538	 0.000322
H	 3.059106	 0.369571	 -0.880203
H	 3.540187	 -1.091012	 0.000050
H	 3.059019	 0.368956	 0.881266

	symmetry c1
}
set optking {
	frozen_dihedral = ("
		1 2 3 6,
		14 4 2 1
	")
}

ee = energy('scf')
oeprop('DIPOLE', 'QUADRUPOLE', 'MULLIKEN_CHARGES')
f=open( 'psi4out.xyz', 'w' )
f.write( "17  " )
f.write( str(ee) + "\n" )
f.write( MOL.save_string_xyz() )
f.close()
--------------------------------------------------------------------------

    Molecular point group: c1

    Geometry (in Angstrom), charge = 0, multiplicity = 1:

       Center              X                  Y                   Z               Mass
    ------------   -----------------  -----------------  -----------------  -----------------
           O          0.708297817655     1.257041256491     0.151635621132    15.994914619560
           C          0.534692817655     0.081058256491     0.151567621132    12.000000000000
           C         -0.808335182345    -0.607427743509     0.151214621132    12.000000000000
           O          1.526886817655    -0.799971743509     0.151670621132    15.994914619560
           C         -1.986770182345     0.361739256491     0.151836621132    12.000000000000
           H         -0.838467182345    -1.261875743509    -0.715791378868     1.007825032070
           H         -0.838410182345    -1.263016743509     1.017362621132     1.007825032070
           C         -3.047042182345    -0.023757743509    -0.878592378868    12.000000000000
           H         -1.625282182345     1.365013256491    -0.046580378868     1.007825032070
           H         -2.426797182345     0.389570256491     1.142884621132     1.007825032070
           H         -2.637732182345    -0.028074743509    -1.885021378868     1.007825032070
           H         -3.875145182345     0.677234256491    -0.862585378868     1.007825032070
           H         -3.448926182345    -1.013812743509    -0.681728378868     1.007825032070
           C          2.845263817655    -0.283164743509     0.151997621132    12.000000000000
           H          3.017549817655     0.318944256491    -0.728527378868     1.007825032070
           H          3.498630817655    -1.141638743509     0.151725621132     1.007825032070
           H          3.017462817655     0.318329256491     1.032941621132     1.007825032070

  Charge       = 0
  Multiplicity = 1
  Basis Set: 6-31G*
  Basis Set:

    Orbital Energies (a.u.)
    -----------------------

    Doubly Occupied:

       1A    -20.604645     2A    -20.546667     3A    -11.373339
       4A    -11.281435     5A    -11.234602     6A    -11.217853
       7A    -11.212949     8A     -1.470395     9A     -1.364201
      10A     -1.079653    11A     -1.000847    12A     -0.939029
      13A     -0.827566    14A     -0.766866    15A     -0.703470
      16A     -0.682490    17A     -0.673357    18A     -0.630793
      19A     -0.600916    20A     -0.571293    21A     -0.569033
      22A     -0.530918    23A     -0.524249    24A     -0.488201
      25A     -0.487338    26A     -0.473678    27A     -0.457835
      28A     -0.440517

  @DF-RHF Final Energy:  -344.90223089822268

   => Energetics <=

    Nuclear Repulsion Energy =            313.6719970613943360
    One-Electron Energy =               -1091.6399864615373190
    Two-Electron Energy =                 433.0657585019200155
    DFT Exchange-Correlation Energy =       0.0000000000000000
    Empirical Dispersion Energy =           0.0000000000000000
    PCM Polarization Energy =               0.0000000000000000
    EFP Energy =                            0.0000000000000000
    Total Energy =                       -344.9022308982229674

  Mulliken Charges: (a.u.)
   Center  Symbol    Alpha    Beta     Spin     Total
       1     O     4.28445  4.28445  0.00000 -0.56890
       2     C     2.61173  2.61173  0.00000  0.77654
       3     C     3.20911  3.20911  0.00000 -0.41821
       4     O     4.30538  4.30538  0.00000 -0.61075
       5     C     3.16109  3.16109  0.00000 -0.32217
       6     H     0.39833  0.39833  0.00000  0.20335
       7     H     0.39781  0.39781  0.00000  0.20438
       8     C     3.24359  3.24359  0.00000 -0.48718
       9     H     0.39316  0.39316  0.00000  0.21369
      10     H     0.41761  0.41761  0.00000  0.16478
      11     H     0.42008  0.42008  0.00000  0.15985
      12     H     0.41688  0.41688  0.00000  0.16624
      13     H     0.42223  0.42223  0.00000  0.15553
      14     C     3.09231  3.09231  0.00000 -0.18462
      15     H     0.40899  0.40899  0.00000  0.18202
      16     H     0.40833  0.40833  0.00000  0.18334
      17     H     0.40894  0.40894  0.00000  0.18212

   Total alpha = 28.00000, Total beta = 28.00000, Total charge = -0.00000
