                              Psi4 1.0.54 Driver

  ==> Input File <==

--------------------------------------------------------------------------
set {
	reference rhf
	basis cc-pvtz
}

set_num_threads( 4 )
memory 2 gb

molecule MOL {
0 1

H	 2.332590	 -0.120492	 0.149108
O	 1.583947	 -0.677544	 -0.001533
C	 0.489979	 0.078084	 0.002623
C	 -0.763662	 -0.754014	 0.000816
O	 0.539051	 1.259395	 -0.000088
C	 -2.038001	 0.074705	 -0.000833
H	 -0.712945	 -1.405886	 -0.864342
H	 -0.715137	 -1.405770	 0.866182
H	 -2.087267	 0.710831	 -0.874232
H	 -2.903419	 -0.576199	 -0.001922
H	 -2.089467	 0.710909	 0.872389

	symmetry c1
}
set optking {
	frozen_dihedral = ("
		1 2 3 5
	")
}

ee,wfn = optimize('scf', return_wfn=True)
oeprop( wfn, 'DIPOLE', 'QUADRUPOLE', 'MULLIKEN_CHARGES')
f=open( 'psi4out.xyz', 'w' )
f.write( "11  " )
f.write( str(ee) + "\n" )
f.write( MOL.save_string_xyz() )
f.close()
--------------------------------------------------------------------------

    Molecular point group: c1
  Charge       = 0
  Multiplicity = 1
  Basis Set: CC-PVTZ
  Basis Set:
  @DF-RHF Final Energy:  -266.95273974744612
    Total Energy =                       -266.9527397474460031
    Molecular point group: c1
  Basis Set: CC-PVTZ
  Basis Set:
  Basis Set: CC-PVTZ
  Basis Set:
  @DF-RHF Final Energy:  -266.95202411748471
    Total Energy =                       -266.9520241174847115
  Basis Set: CC-PVTZ
  Basis Set:
  Basis Set: CC-PVTZ
  Basis Set:
  @DF-RHF Final Energy:  -266.95277121788376
    Total Energy =                       -266.9527712178838783
  Basis Set: CC-PVTZ
  Basis Set:
  Basis Set: CC-PVTZ
  Basis Set:
  @DF-RHF Final Energy:  -266.95277436090777
    Total Energy =                       -266.9527743609075969
  Basis Set: CC-PVTZ
  Basis Set:
  Basis Set: CC-PVTZ
  Basis Set:
  @DF-RHF Final Energy:  -266.95277616534429
    Total Energy =                       -266.9527761653442894
  Basis Set: CC-PVTZ
  Basis Set:
  Charge       = 0
  Multiplicity = 1
  Basis Set: CC-PVTZ
  Basis Set:

    Orbital Energies (a.u.)
    -----------------------

    Doubly Occupied:

       1A    -20.604669     2A    -20.541923     3A    -11.374414
       4A    -11.242822     5A    -11.218741     6A     -1.478199
       7A     -1.370459     8A     -1.066425     9A     -0.918700
      10A     -0.803750    11A     -0.706014    12A     -0.693327
      13A     -0.665286    14A     -0.600780    15A     -0.593316
      16A     -0.533692    17A     -0.527130    18A     -0.505859
      19A     -0.485604    20A     -0.448948

  @DF-RHF Final Energy:  -266.95277671291137

   => Energetics <=

    Nuclear Repulsion Energy =            180.1494588804459056
    One-Electron Energy =                -721.4443638385891973
    Two-Electron Energy =                 274.3421282452319474
    DFT Exchange-Correlation Energy =       0.0000000000000000
    Empirical Dispersion Energy =           0.0000000000000000
    PCM Polarization Energy =               0.0000000000000000
    EFP Energy =                            0.0000000000000000
    Total Energy =                       -266.9527767129113727
    Molecular point group: c1
  Basis Set: CC-PVTZ
  Basis Set:

  -Total Gradient:
     Atom            X                  Y                   Z
    ------   -----------------  -----------------  -----------------
       1       -0.000250215187    -0.000612871902     0.003585548223
       2        0.000257208769     0.000725289172    -0.005979535151
       3        0.000116569054    -0.000150223083     0.005761532326
       4        0.000008218116     0.000003796057    -0.000005351326
       5       -0.000145458334     0.000040835807    -0.003332246921
       6        0.000010979359    -0.000005867792    -0.000007524910
       7       -0.000000218631     0.000002204933    -0.000015365690
       8        0.000006073026    -0.000008735209    -0.000012324991
       9       -0.000001978503     0.000003086096     0.000000974576
      10        0.000000936267     0.000000338801     0.000002809851
      11       -0.000002113938     0.000002147123     0.000001484013

  **** Optimization is complete! (in 6 steps) ****
    Final optimized geometry and variables:
    Molecular point group: c1

    Geometry (in Angstrom), charge = 0, multiplicity = 1:

    H            2.338294385270    -0.125092184990     0.103095233981
    O            1.584220076808    -0.676582661605    -0.040978861960
    C            0.490040406079     0.078617555628     0.012770710088
    C           -0.763576255605    -0.753719590601     0.001549833498
    O            0.538954859880     1.259285817141     0.039150322882
    C           -2.038254480847     0.074159857749    -0.016315884649
    H           -0.703693519097    -1.410943691498    -0.858821908957
    H           -0.723312377974    -1.400349337191     0.871466371519
    H           -2.080369873488     0.704858744676    -0.894204198985
    H           -2.903554838990    -0.577005168312    -0.021049226590
    H           -2.097599354676     0.715925254704     0.852292155345

  Mulliken Charges: (a.u.)
   Center  Symbol    Alpha    Beta     Spin     Total
       1     H     0.38162  0.38162  0.00000  0.23676
       2     O     4.16117  4.16117  0.00000 -0.32233
       3     C     2.80317  2.80317  0.00000  0.39366
       4     C     3.10114  3.10114  0.00000 -0.20228
       5     O     4.18968  4.18968  0.00000 -0.37937
       6     C     3.13892  3.13892  0.00000 -0.27784
       7     H     0.43884  0.43884  0.00000  0.12232
       8     H     0.44012  0.44012  0.00000  0.11977
       9     H     0.44801  0.44801  0.00000  0.10398
      10     H     0.44968  0.44968  0.00000  0.10065
      11     H     0.44766  0.44766  0.00000  0.10468

   Total alpha = 20.00000, Total beta = 20.00000, Total charge =  0.00000

*** Psi4 exiting successfully. Buy a developer a beer!
