  ==> Input File <==

--------------------------------------------------------------------------
set {
	reference rhf
	basis 6-31G*
}

set_num_threads( 4 )
memory 2 gb

molecule MOL {
0 1

H	 1.488449	 -1.136450	 1.235760
C	 0.599380	 -1.250631	 0.630927
O	 0.000000	 0.000000	 0.521119
H	 0.884583	 -1.643130	 -0.343903
H	 -0.062996	 -1.969559	 1.110605
C	 -1.165642	 0.000000	 -0.238270
H	 -1.228672	 0.883184	 -0.872070
H	 -2.003012	 0.000000	 0.445920
H	 -1.228672	 -0.883184	 -0.872070

	symmetry c1
}
set optking {
	frozen_dihedral = ("
		2 3 6 7
	")
}

ee = optimize('scf')
oeprop('DIPOLE', 'QUADRUPOLE', 'MULLIKEN_CHARGES')
f=open( 'psi4out.xyz', 'w' )
f.write( "9  " )
f.write( str(ee) + "\n" )
f.write( MOL.save_string_xyz() )
f.close()
--------------------------------------------------------------------------

    Molecular point group: c1
  Charge       = 0
  Multiplicity = 1
  Basis Set: 6-31G*
  Basis Set:
  @DF-RHF Final Energy:  -154.06065508970653
    Total Energy =                       -154.0606550897065006
    Molecular point group: c1
  Basis Set: 6-31G*
  Basis Set:
  Basis Set: 6-31G*
  Basis Set:
  @DF-RHF Final Energy:  -154.06140252160048
    Total Energy =                       -154.0614025216005700
  Basis Set: 6-31G*
  Basis Set:
  Basis Set: 6-31G*
  Basis Set:
  @DF-RHF Final Energy:  -154.06156465887750
    Total Energy =                       -154.0615646588775007
  Basis Set: 6-31G*
  Basis Set:
  Charge       = 0
  Multiplicity = 1
  Basis Set: 6-31G*
  Basis Set:

    Orbital Energies (a.u.)
    -----------------------

    Doubly Occupied:

       1A    -20.553153     2A    -11.265563     3A    -11.264762
       4A     -1.375212     5A     -0.974887     6A     -0.872932
       7A     -0.658333     8A     -0.652675     9A     -0.643246
      10A     -0.558555    11A     -0.527197    12A     -0.472889
      13A     -0.413386

  @DF-RHF Final Energy:  -154.06156515679538

   => Energetics <=

    Nuclear Repulsion Energy =             84.5437786757490812
    One-Electron Energy =                -376.7451077042280190
    Two-Electron Energy =                 138.1397638716835559
    DFT Exchange-Correlation Energy =       0.0000000000000000
    Empirical Dispersion Energy =           0.0000000000000000
    PCM Polarization Energy =               0.0000000000000000
    EFP Energy =                            0.0000000000000000
    Total Energy =                       -154.0615651567953819
    Molecular point group: c1
  Basis Set: 6-31G*
  Basis Set:

  -Total Gradient:
     Atom            X                  Y                   Z
    ------   -----------------  -----------------  -----------------
       1        0.000006021937    -0.000014231613     0.000014268102
       2        0.001271527245     0.000359962099    -0.001933411809
       3       -0.001455846942    -0.000868278186     0.002204768228
       4       -0.000010645728    -0.000012096878     0.000003419901
       5       -0.000021619452     0.000059894442    -0.000013694210
       6       -0.001112771600     0.001863001119     0.001761051478
       7        0.001310110275    -0.001394510330    -0.002036679572
       8        0.000000728468     0.000009577327     0.000003499821
       9        0.000012495797    -0.000003317981    -0.000003221940

  **** Optimization is complete! (in 4 steps) ****
    Final optimized geometry and variables:
    Molecular point group: c1

    Geometry (in Angstrom), charge = 0, multiplicity = 1:

    H            1.704639845704    -0.685223178195     0.922950567188
    C            0.805787265049    -0.821852535632     0.337333417167
    O            0.195548821574     0.422981386881     0.212970455197
    H            1.077899604988    -1.230907331644    -0.633600260455
    H            0.163599195931    -1.538661054231     0.846267558349
    C           -0.986007071594     0.435802736702    -0.530353619687
    H           -0.997279889419     1.328688047827    -1.143102613294
    H           -1.855404863375     0.431648056929     0.121008207831
    H           -1.051109236537    -0.421937281280    -1.195260648543

  Mulliken Charges: (a.u.)
   Center  Symbol    Alpha    Beta     Spin     Total
       1     H     0.41258  0.41258  0.00000  0.17485
       2     C     3.07910  3.07910  0.00000 -0.15820
       3     O     4.29918  4.29918  0.00000 -0.59836
       4     H     0.42972  0.42972  0.00000  0.14056
       5     H     0.43043  0.43043  0.00000  0.13914
       6     C     3.07782  3.07782  0.00000 -0.15564
       7     H     0.41596  0.41596  0.00000  0.16808
       8     H     0.42407  0.42407  0.00000  0.15186
       9     H     0.43115  0.43115  0.00000  0.13770

   Total alpha = 13.00000, Total beta = 13.00000, Total charge =  0.00000
