  ==> Input File <==

--------------------------------------------------------------------------
set {
	reference rhf
	basis 6-31G*
}

set_num_threads( 1 )
memory 2 gb

molecule MOL {
0 1

O	 -2.554592	 0.678445	 0.288606
C	 -2.174160	 -0.449812	 0.206495
C	 -0.914986	 -0.792165	 -0.570409
C	 -2.901087	 -1.584682	 0.892806
C	 0.342009	 -0.474514	 0.255547
H	 -0.914052	 -0.194184	 -1.475241
H	 -0.915830	 -1.839887	 -0.857294
C	 1.631333	 -0.777471	 -0.511575
H	 0.304018	 0.570788	 0.540651
H	 0.329929	 -1.052683	 1.178218
C	 2.915987	 -0.544314	 0.291766
H	 1.659391	 -0.173919	 -1.416927
H	 1.609903	 -1.815346	 -0.837467
C	 3.373361	 0.914346	 0.347591
H	 3.708709	 -1.142521	 -0.150311
H	 2.780642	 -0.921148	 1.303579
H	 3.506512	 1.320010	 -0.651625
H	 4.322697	 0.999599	 0.867103
H	 2.660624	 1.545032	 0.868198
H	 -3.323102	 -2.252543	 0.146395
H	 -3.694589	 -1.193911	 1.514448
H	 -2.214714	 -2.171830	 1.496091

	symmetry c1
}
set optking {
	frozen_dihedral = ("
		6 3 2 1,
		6 3 5 8,
		3 5 8 12
	")
}

ee = energy('scf')
oeprop('DIPOLE', 'QUADRUPOLE', 'MULLIKEN_CHARGES')
f=open( 'psi4out.xyz', 'w' )
f.write( "22  " )
f.write( str(ee) + "\n" )
f.write( MOL.save_string_xyz() )
f.close()
--------------------------------------------------------------------------

    Molecular point group: c1

    Geometry (in Angstrom), charge = 0, multiplicity = 1:

       Center              X                  Y                   Z               Mass
    ------------   -----------------  -----------------  -----------------  -----------------
           O         -2.522218016819     1.046873538634     0.129905260948    15.994914619560
           C         -2.141786016819    -0.081383461366     0.047794260948    12.000000000000
           C         -0.882612016819    -0.423736461366    -0.729109739052    12.000000000000
           C         -2.868713016819    -1.216253461366     0.734105260948    12.000000000000
           C          0.374382983181    -0.106085461366     0.096846260948    12.000000000000
           H         -0.881678016819     0.174244538634    -1.633941739052     1.007825032070
           H         -0.883456016819    -1.471458461366    -1.015994739052     1.007825032070
           C          1.663706983181    -0.409042461366    -0.670275739052    12.000000000000
           H          0.336391983181     0.939216538634     0.381950260948     1.007825032070
           H          0.362302983181    -0.684254461366     1.019517260948     1.007825032070
           C          2.948360983181    -0.175885461366     0.133065260948    12.000000000000
           H          1.691764983181     0.194509538634    -1.575627739052     1.007825032070
           H          1.642276983181    -1.446917461366    -0.996167739052     1.007825032070
           C          3.405734983181     1.282774538634     0.188890260948    12.000000000000
           H          3.741082983181    -0.774092461366    -0.309011739052     1.007825032070
           H          2.813015983181    -0.552719461366     1.144878260948     1.007825032070
           H          3.538885983181     1.688438538634    -0.810325739052     1.007825032070
           H          4.355070983181     1.368027538634     0.708402260948     1.007825032070
           H          2.692997983181     1.913460538634     0.709497260948     1.007825032070
           H         -3.290728016819    -1.884114461366    -0.012305739052     1.007825032070
           H         -3.662215016819    -0.825482461366     1.355747260948     1.007825032070
           H         -2.182340016819    -1.803401461366     1.337390260948     1.007825032070

  Charge       = 0
  Multiplicity = 1
  Basis Set: 6-31G*
  Basis Set:

    Orbital Energies (a.u.)
    -----------------------

    Doubly Occupied:

       1A    -20.547343     2A    -11.324508     3A    -11.229756
       4A    -11.229053     5A    -11.228238     6A    -11.221992
       7A    -11.220270     8A    -11.211262     9A     -1.393096
      10A     -1.095351    11A     -1.044395    12A     -0.999886
      13A     -0.937980    14A     -0.854823    15A     -0.789699
      16A     -0.732775    17A     -0.662244    18A     -0.643750
      19A     -0.625103    20A     -0.620139    21A     -0.597856
      22A     -0.582154    23A     -0.562554    24A     -0.544166
      25A     -0.533392    26A     -0.515558    27A     -0.500566
      28A     -0.487769    29A     -0.472954    30A     -0.462757
      31A     -0.458748    32A     -0.396219

  @DF-RHF Final Energy:  -348.09743347692188

   => Energetics <=

    Nuclear Repulsion Energy =            371.8386813010977221
    One-Electron Energy =               -1208.4198146240612459
    Two-Electron Energy =                 488.4836998460413042
    DFT Exchange-Correlation Energy =       0.0000000000000000
    Empirical Dispersion Energy =           0.0000000000000000
    PCM Polarization Energy =               0.0000000000000000
    EFP Energy =                            0.0000000000000000
    Total Energy =                       -348.0974334769222196

  Mulliken Charges: (a.u.)
   Center  Symbol    Alpha    Beta     Spin     Total
       1     O     4.26245  4.26245  0.00000 -0.52490
       2     C     2.73717  2.73717  0.00000  0.52566
       3     C     3.20000  3.20000  0.00000 -0.40001
       4     C     3.28954  3.28954  0.00000 -0.57909
       5     C     3.16296  3.16296  0.00000 -0.32591
       6     H     0.40115  0.40115  0.00000  0.19771
       7     H     0.41694  0.41694  0.00000  0.16612
       8     C     3.15334  3.15334  0.00000 -0.30668
       9     H     0.40455  0.40455  0.00000  0.19090
      10     H     0.42101  0.42101  0.00000  0.15798
      11     C     3.15444  3.15444  0.00000 -0.30888
      12     H     0.42001  0.42001  0.00000  0.15997
      13     H     0.42178  0.42178  0.00000  0.15643
      14     C     3.24073  3.24073  0.00000 -0.48147
      15     H     0.41962  0.41962  0.00000  0.16077
      16     H     0.42236  0.42236  0.00000  0.15527
      17     H     0.42089  0.42089  0.00000  0.15821
      18     H     0.41856  0.41856  0.00000  0.16288
      19     H     0.41878  0.41878  0.00000  0.16244
      20     H     0.40692  0.40692  0.00000  0.18617
      21     H     0.39707  0.39707  0.00000  0.20585
      22     H     0.40971  0.40971  0.00000  0.18059

   Total alpha = 32.00000, Total beta = 32.00000, Total charge = -0.00000
