                              Psi4 1.0.54 Driver

  ==> Input File <==

--------------------------------------------------------------------------
set {
	reference rhf
	basis cc-pvtz
}

set_num_threads( 4 )
memory 2 gb

molecule MOL {
0 1

H	 2.867672	 -0.456275	 0.875795
C	 2.403497	 -0.020426	 0.000000
N	 0.989899	 -0.304564	 0.000000
H	 2.867672	 -0.456275	 -0.875795
H	 2.620366	 1.051270	 0.000000
C	 0.675785	 -1.549982	 0.669205
C	 0.421109	 -0.282960	 -1.331758
H	 1.155747	 -2.400909	 0.175946
H	 1.044650	 -1.510466	 1.687588
C	 -0.825099	 -1.767474	 0.686085
H	 0.603110	 0.686212	 -1.781546
H	 0.881916	 -1.038587	 -1.975519
C	 -1.073232	 -0.533007	 -1.263465
H	 -1.063263	 -2.736827	 1.101127
H	 -1.296303	 -1.003532	 1.301275
O	 -1.354603	 -1.732908	 -0.606036
H	 -1.490754	 -0.610040	 -2.257632
H	 -1.557275	 0.294815	 -0.749159

	symmetry c1
}
set optking {
	frozen_dihedral = ("
		6 3 2 5
	")
}

ee,wfn = optimize('scf', return_wfn=True)
oeprop( wfn, 'DIPOLE', 'QUADRUPOLE', 'MULLIKEN_CHARGES')
f=open( 'psi4out.xyz', 'w' )
f.write( "18  " )
f.write( str(ee) + "\n" )
f.write( MOL.save_string_xyz() )
f.close()
--------------------------------------------------------------------------

    Molecular point group: c1
  Charge       = 0
  Multiplicity = 1
  Basis Set: CC-PVTZ
  Basis Set:
  @DF-RHF Final Energy:  -325.14260572139079
    Total Energy =                       -325.1426057213906233
    Molecular point group: c1
  Basis Set: CC-PVTZ
  Basis Set:
  Basis Set: CC-PVTZ
  Basis Set:
  @DF-RHF Final Energy:  -325.14350864823848
    Total Energy =                       -325.1435086482384804
  Basis Set: CC-PVTZ
  Basis Set:
  Basis Set: CC-PVTZ
  Basis Set:
  @DF-RHF Final Energy:  -325.14359947250546
    Total Energy =                       -325.1435994725053433
  Basis Set: CC-PVTZ
  Basis Set:
  Charge       = 0
  Multiplicity = 1
  Basis Set: CC-PVTZ
  Basis Set:

    Orbital Energies (a.u.)
    -----------------------

    Doubly Occupied:

       1A    -20.547400     2A    -15.542125     3A    -11.264074
       4A    -11.264018     5A    -11.242666     6A    -11.242388
       7A    -11.238984     8A     -1.386222     9A     -1.231854
      10A     -1.039295    11A     -0.981865    12A     -0.884288
      13A     -0.869796    14A     -0.773427    15A     -0.684854
      16A     -0.646701    17A     -0.645091    18A     -0.633880
      19A     -0.630018    20A     -0.573529    21A     -0.556668
      22A     -0.545298    23A     -0.526447    24A     -0.500819
      25A     -0.485762    26A     -0.453950    27A     -0.410688
      28A     -0.350627

  @DF-RHF Final Energy:  -325.14360294309472

   => Energetics <=

    Nuclear Repulsion Energy =            341.6429448641324598
    One-Electron Energy =               -1119.2676225404711658
    Two-Electron Energy =                 452.4810747332436449
    DFT Exchange-Correlation Energy =       0.0000000000000000
    Empirical Dispersion Energy =           0.0000000000000000
    PCM Polarization Energy =               0.0000000000000000
    EFP Energy =                            0.0000000000000000
    Total Energy =                       -325.1436029430950612
    Molecular point group: c1
  Basis Set: CC-PVTZ
  Basis Set:

  -Total Gradient:
     Atom            X                  Y                   Z
    ------   -----------------  -----------------  -----------------
       1       -0.000004693904    -0.000000030261     0.000011612829
       2        0.000167493417     0.000814503487    -0.004369873674
       3        0.000579977851    -0.002218716731    -0.002940927633
       4       -0.000056887700    -0.000039453815     0.000008986399
       5       -0.000100747908    -0.000040869935     0.004393555879
       6       -0.000481986808     0.001446910662     0.002994908585
       7       -0.000057305142    -0.000029036827    -0.000165361903
       8       -0.000035563841     0.000083179419     0.000007320348
       9       -0.000001179059     0.000025038813    -0.000007871377
      10        0.000022761162    -0.000066088943    -0.000016290865
      11        0.000006514349     0.000002541402     0.000020458801
      12        0.000006740934     0.000024372572     0.000072557210
      13       -0.000011849831     0.000005954127     0.000027859176
      14       -0.000045504244    -0.000025921508     0.000016964682
      15        0.000034055183    -0.000007782164    -0.000022100871
      16        0.000006009925     0.000037516660    -0.000010872953
      17       -0.000028923023    -0.000012566285    -0.000011030105
      18        0.000001088635     0.000000449326    -0.000009894529

  **** Optimization is complete! (in 4 steps) ****
    Final optimized geometry and variables:
    Molecular point group: c1

    Geometry (in Angstrom), charge = 0, multiplicity = 1:

    H            2.680345581792     0.459685551498     1.210652005944
    C            2.243414649822     0.838104894105     0.295094318201
    N            0.831706482528     0.534821990390     0.269805721822
    H            2.791066138680     0.396870788137    -0.538982193856
    H            2.401011602936     1.910527089354     0.297796894284
    C            0.480633269330    -0.707254262529     0.923784543651
    C            0.256026590421     0.626411629650    -1.052877884192
    H            0.932869039277    -1.571934438450     0.427484179518
    H            0.842703954709    -0.687461938662     1.944567113131
    C           -1.027154234658    -0.875617740328     0.932045457961
    H            0.463359750340     1.607709442065    -1.465230997644
    H            0.692901846514    -0.114301368441    -1.729961135811
    C           -1.244279696068     0.414634921084    -0.985114487197
    H           -1.298812172805    -1.844890738968     1.326540249089
    H           -1.473403132155    -0.108996474932     1.562514082126
    O           -1.553370964144    -0.795294782492    -0.359397875496
    H           -1.667833608156     0.375879865463    -1.979085262085
    H           -1.704767705978     1.240064928412    -0.445826408165

  Mulliken Charges: (a.u.)
   Center  Symbol    Alpha    Beta     Spin     Total
       1     H     0.45488  0.45488  0.00000  0.09024
       2     C     3.09368  3.09368  0.00000 -0.18735
       3     N     3.61822  3.61822  0.00000 -0.23643
       4     H     0.46672  0.46672  0.00000  0.06655
       5     H     0.44975  0.44975  0.00000  0.10051
       6     C     3.03868  3.03868  0.00000 -0.07736
       7     C     3.04074  3.04074  0.00000 -0.08148
       8     H     0.47024  0.47024  0.00000  0.05951
       9     H     0.45415  0.45415  0.00000  0.09170
      10     C     2.98401  2.98401  0.00000  0.03197
      11     H     0.45437  0.45437  0.00000  0.09127
      12     H     0.46849  0.46849  0.00000  0.06301
      13     C     2.98354  2.98354  0.00000  0.03293
      14     H     0.44990  0.44990  0.00000  0.10019
      15     H     0.46815  0.46815  0.00000  0.06370
      16     O     4.18649  4.18649  0.00000 -0.37298
      17     H     0.45001  0.45001  0.00000  0.09997
      18     H     0.46797  0.46797  0.00000  0.06406

   Total alpha = 28.00000, Total beta = 28.00000, Total charge =  0.00000

*** Psi4 exiting successfully. Buy a developer a beer!
