  ==> Input File <==

--------------------------------------------------------------------------
set {
	reference rhf
	basis cc-pvtz
}

set_num_threads( 4 )
memory 2 gb

molecule MOL {
0 1

H	 -1.933854	 0.653020	 -0.935987
N	 -1.851927	 0.161443	 -0.071573
C	 -0.561396	 -0.500007	 0.035200
H	 -2.596821	 -0.502922	 -0.038618
C	 0.575129	 0.507849	 -0.048832
H	 -0.478089	 -1.200753	 -0.788956
H	 -0.456191	 -1.081816	 0.952176
C	 1.951750	 -0.141983	 0.035101
H	 0.478254	 1.061643	 -0.975981
H	 0.467676	 1.231891	 0.755499
H	 2.101550	 -0.848142	 -0.774949
H	 2.738260	 0.600794	 -0.026526
H	 2.078939	 -0.679792	 0.968824

	symmetry c1
}
set optking {
	frozen_dihedral = ("
		1 2 3 6
	")
}

ee = optimize('scf')
oeprop('DIPOLE', 'QUADRUPOLE', 'MULLIKEN_CHARGES')
f=open( 'psi4out.xyz', 'w' )
f.write( "13  " )
f.write( str(ee) + "\n" )
f.write( MOL.save_string_xyz() )
f.close()
--------------------------------------------------------------------------

    Molecular point group: c1
  Charge       = 0
  Multiplicity = 1
  Basis Set: CC-PVTZ
  Basis Set:
  @DF-RHF Final Energy:  -173.35063528986504
    Total Energy =                       -173.3506352898650391
    Molecular point group: c1
  Basis Set: CC-PVTZ
  Basis Set:
  Basis Set: CC-PVTZ
  Basis Set:
  @DF-RHF Final Energy:  -173.35236520459779
    Total Energy =                       -173.3523652045978167
  Basis Set: CC-PVTZ
  Basis Set:
  Basis Set: CC-PVTZ
  Basis Set:
  @DF-RHF Final Energy:  -173.35259972287358
    Total Energy =                       -173.3525997228737197
  Basis Set: CC-PVTZ
  Basis Set:
  Basis Set: CC-PVTZ
  Basis Set:
  @DF-RHF Final Energy:  -173.35260374148905
    Total Energy =                       -173.3526037414889913
  Basis Set: CC-PVTZ
  Basis Set:
  Charge       = 0
  Multiplicity = 1
  Basis Set: CC-PVTZ
  Basis Set:

    Orbital Energies (a.u.)
    -----------------------

    Doubly Occupied:

       1A    -15.526656     2A    -11.238311     3A    -11.210703
       4A    -11.207186     5A     -1.178462     6A     -1.036510
       7A     -0.899398     8A     -0.800488     9A     -0.662452
      10A     -0.631884    11A     -0.604257    12A     -0.565847
      13A     -0.532057    14A     -0.492797    15A     -0.477418
      16A     -0.469222    17A     -0.384306

  @DF-RHF Final Energy:  -173.35260408775221

   => Energetics <=

    Nuclear Repulsion Energy =            131.9977428036958997
    One-Electron Energy =                -494.8647882025692297
    Two-Electron Energy =                 189.5144413111210611
    DFT Exchange-Correlation Energy =       0.0000000000000000
    Empirical Dispersion Energy =           0.0000000000000000
    PCM Polarization Energy =               0.0000000000000000
    EFP Energy =                            0.0000000000000000
    Total Energy =                       -173.3526040877522405
    Molecular point group: c1
  Basis Set: CC-PVTZ
  Basis Set:

  -Total Gradient:
     Atom            X                  Y                   Z
    ------   -----------------  -----------------  -----------------
       1        0.000092181817     0.000179688555     0.000085243611
       2       -0.000177873780    -0.000250486573    -0.000066201355
       3        0.000186865153     0.000237984016    -0.000138003156
       4       -0.000020588391    -0.000007950143    -0.000006064995
       5       -0.000005950130    -0.000021145434    -0.000003472329
       6       -0.000087023411    -0.000126544042     0.000128382123
       7        0.000003019945     0.000000847278     0.000001847239
       8        0.000014437887     0.000005358149     0.000000640538
       9       -0.000003256003    -0.000013013249     0.000005411758
      10       -0.000007913693    -0.000006508676    -0.000005159592
      11        0.000000295152     0.000000783201    -0.000001527107
      12        0.000010907992    -0.000001513423     0.000004023075
      13       -0.000005102535     0.000002500341    -0.000005119810

  **** Optimization is complete! (in 5 steps) ****
    Final optimized geometry and variables:
    Molecular point group: c1

    Geometry (in Angstrom), charge = 0, multiplicity = 1:

    H           -1.964821952857     0.649592376453    -0.893789107545
    N           -1.852693836298     0.166371853149    -0.027046517336
    C           -0.561810992483    -0.500101951664     0.032601432676
    H           -2.601081680474    -0.489643753024     0.044422255539
    C            0.574811215176     0.509424147278    -0.022758816626
    H           -0.426031704664    -1.236403728855    -0.761051935678
    H           -0.510916402745    -1.042600034971     0.970944494820
    C            1.950849787085    -0.140848406507     0.066465884480
    H            0.502166210718     1.075390179554    -0.948565821315
    H            0.444281275929     1.221590605922     0.784396403608
    H            2.112665504861    -0.837135997945    -0.749763126722
    H            2.737453114462     0.603253174087     0.025150076411
    H            2.065037109389    -0.689611563137     0.995458303360

  Mulliken Charges: (a.u.)
   Center  Symbol    Alpha    Beta     Spin     Total
       1     H     0.43083  0.43083  0.00000  0.13835
       2     N     3.68990  3.68990  0.00000 -0.37979
       3     C     3.02150  3.02150  0.00000 -0.04300
       4     H     0.42987  0.42987  0.00000  0.14026
       5     C     3.07848  3.07848  0.00000 -0.15696
       6     H     0.46996  0.46996  0.00000  0.06008
       7     H     0.45777  0.45777  0.00000  0.08447
       8     C     3.15267  3.15267  0.00000 -0.30534
       9     H     0.46028  0.46028  0.00000  0.07944
      10     H     0.44909  0.44909  0.00000  0.10183
      11     H     0.45691  0.45691  0.00000  0.08618
      12     H     0.44778  0.44778  0.00000  0.10445
      13     H     0.45498  0.45498  0.00000  0.09004

   Total alpha = 17.00000, Total beta = 17.00000, Total charge =  0.00000
