  ==> Input File <==

--------------------------------------------------------------------------
set {
	reference rhf
	basis cc-pvtz
}

set_num_threads( 4 )
memory 2 gb

molecule MOL {
0 1

H	 3.273419	 0.176595	 -0.102789
N	 2.433987	 -0.362316	 -0.080024
C	 1.263552	 0.494993	 0.021953
H	 2.497638	 -0.973615	 0.707122
C	 -0.016533	 -0.325589	 -0.026925
H	 1.280915	 1.180773	 -0.818522
H	 1.263064	 1.106893	 0.925038
C	 -1.280353	 0.525521	 0.047747
H	 -0.016686	 -0.912532	 -0.939714
H	 -0.014099	 -1.037598	 0.796369
C	 -2.535395	 -0.293475	 0.330778
H	 -1.406669	 1.063219	 -0.888144
H	 -1.163721	 1.281636	 0.819474
H	 -2.699019	 -1.037227	 -0.441743
H	 -3.415360	 0.337989	 0.373968
H	 -2.456226	 -0.815602	 1.278563

	symmetry c1
}
set optking {
	frozen_dihedral = ("
		12 8 5 9
	")
}

ee = optimize('scf')
oeprop('DIPOLE', 'QUADRUPOLE', 'MULLIKEN_CHARGES')
f=open( 'psi4out.xyz', 'w' )
f.write( "16  " )
f.write( str(ee) + "\n" )
f.write( MOL.save_string_xyz() )
f.close()
--------------------------------------------------------------------------

    Molecular point group: c1
  Charge       = 0
  Multiplicity = 1
  Basis Set: CC-PVTZ
  Basis Set:
  @DF-RHF Final Energy:  -212.39967018222728
    Total Energy =                       -212.3996701822271120
    Molecular point group: c1
  Basis Set: CC-PVTZ
  Basis Set:
  Basis Set: CC-PVTZ
  Basis Set:
  @DF-RHF Final Energy:  -212.39975845579443
    Total Energy =                       -212.3997584557943696
  Basis Set: CC-PVTZ
  Basis Set:
  Basis Set: CC-PVTZ
  Basis Set:
  @DF-RHF Final Energy:  -212.39977560316572
    Total Energy =                       -212.3997756031655513
  Basis Set: CC-PVTZ
  Basis Set:
  Charge       = 0
  Multiplicity = 1
  Basis Set: CC-PVTZ
  Basis Set:

    Orbital Energies (a.u.)
    -----------------------

    Doubly Occupied:

       1A    -15.526486     2A    -11.237966     3A    -11.212959
       4A    -11.207924     5A    -11.205859     6A     -1.178254
       7A     -1.060594     8A     -0.959699     9A     -0.843805
      10A     -0.792272    11A     -0.664922    12A     -0.640579
      13A     -0.603015    14A     -0.580074    15A     -0.565800
      16A     -0.522177    17A     -0.503628    18A     -0.469418
      19A     -0.465670    20A     -0.461770    21A     -0.384036

  @DF-RHF Final Energy:  -212.39977583292335

   => Energetics <=

    Nuclear Repulsion Energy =            186.5728458104749166
    One-Electron Energy =                -655.7714256021737356
    Two-Electron Energy =                 256.7988039587755793
    DFT Exchange-Correlation Energy =       0.0000000000000000
    Empirical Dispersion Energy =           0.0000000000000000
    PCM Polarization Energy =               0.0000000000000000
    EFP Energy =                            0.0000000000000000
    Total Energy =                       -212.3997758329232397
    Molecular point group: c1
  Basis Set: CC-PVTZ
  Basis Set:

  -Total Gradient:
     Atom            X                  Y                   Z
    ------   -----------------  -----------------  -----------------
       1       -0.000002892192    -0.000001404718    -0.000001222536
       2        0.000012707110    -0.000004165856     0.000005456321
       3       -0.000011529867    -0.000014547612     0.000003856180
       4        0.000002959535     0.000004738974    -0.000002450256
       5       -0.001688193106    -0.002542941758     0.001160871653
       6        0.000004877773    -0.000001076032     0.000002309255
       7        0.000003930609     0.000014704696     0.000003933047
       8        0.001807654263     0.002586519572     0.000809266196
       9        0.001116697614     0.001716392329    -0.001123784312
      10       -0.000000905054     0.000015343638    -0.000006910720
      11        0.000004580338     0.000011344532    -0.000007753636
      12       -0.001236648985    -0.001777672975    -0.000843056649
      13        0.000002693332     0.000001249393     0.000002323636
      14       -0.000002223168    -0.000011393040     0.000001797616
      15       -0.000008590423    -0.000002472712    -0.000004488921
      16       -0.000005117782     0.000005381566    -0.000000146876

  **** Optimization is complete! (in 4 steps) ****
    Final optimized geometry and variables:
    Molecular point group: c1

    Geometry (in Angstrom), charge = 0, multiplicity = 1:

    H            3.266694044141     0.179280822032    -0.214244814809
    N            2.428891130886    -0.361628127072    -0.180156162166
    C            1.259448633533     0.491474122056    -0.040048838637
    H            2.511513743662    -0.983244133020     0.597162685013
    C           -0.020843264635    -0.331930339138    -0.064627278094
    H            1.253665217361     1.186012711545    -0.873739311240
    H            1.280310184708     1.094171640565     0.868873004977
    C           -1.282818939509     0.525815370902    -0.007100993765
    H           -0.017770533693    -0.924587022116    -0.973274225757
    H           -0.011885821208    -1.028238216359     0.771147738824
    C           -2.546147475119    -0.292471888376     0.244568220590
    H           -1.395523193683     1.055061955533    -0.948937940803
    H           -1.183052986849     1.279568734012     0.768642810476
    H           -2.679923367036    -1.049121735252    -0.521454057169
    H           -3.428842387569     0.336815125448     0.245105362890
    H           -2.500063835594    -0.799173379628     1.202750569125

  Mulliken Charges: (a.u.)
   Center  Symbol    Alpha    Beta     Spin     Total
       1     H     0.43017  0.43017  0.00000  0.13965
       2     N     3.68953  3.68953  0.00000 -0.37906
       3     C     3.02522  3.02522  0.00000 -0.05044
       4     H     0.43101  0.43101  0.00000  0.13798
       5     C     3.08092  3.08092  0.00000 -0.16183
       6     H     0.45749  0.45749  0.00000  0.08502
       7     H     0.46877  0.46877  0.00000  0.06247
       8     C     3.08853  3.08853  0.00000 -0.17706
       9     H     0.44870  0.44870  0.00000  0.10261
      10     H     0.46105  0.46105  0.00000  0.07791
      11     C     3.14921  3.14921  0.00000 -0.29843
      12     H     0.45346  0.45346  0.00000  0.09307
      13     H     0.45701  0.45701  0.00000  0.08599
      14     H     0.45415  0.45415  0.00000  0.09169
      15     H     0.44899  0.44899  0.00000  0.10202
      16     H     0.45579  0.45579  0.00000  0.08842

   Total alpha = 21.00000, Total beta = 21.00000, Total charge = -0.00000
