  ==> Input File <==

--------------------------------------------------------------------------
set {
	reference rhf
	basis 6-31G*
}

set_num_threads( 4 )
memory 2 gb

molecule MOL {
0 1

H	 0.241020	 -0.546311	 2.210375
O	 0.871610	 -0.435388	 1.511873
C	 0.532008	 0.697573	 0.766868
C	 -0.793441	 0.596080	 0.058728
H	 1.324517	 0.829631	 0.039067
H	 0.534426	 1.588313	 1.394245
C	 -1.530462	 -0.493172	 -0.025500
H	 -1.131408	 1.508729	 -0.407461
H	 -1.092586	 -1.461565	 -0.186463
H	 -2.602122	 -0.450675	 0.050101

	symmetry c1
}
set optking {
	frozen_dihedral = ("
		3 4 7 9
	")
}

ee = optimize('scf')
oeprop('DIPOLE', 'QUADRUPOLE', 'MULLIKEN_CHARGES')
f=open( 'psi4out.xyz', 'w' )
f.write( "10  " )
f.write( str(ee) + "\n" )
f.write( MOL.save_string_xyz() )
f.close()
--------------------------------------------------------------------------

    Molecular point group: c1
  Charge       = 0
  Multiplicity = 1
  Basis Set: 6-31G*
  Basis Set:
  @DF-RHF Final Energy:  -191.88091318768636
    Total Energy =                       -191.8809131876863887
    Molecular point group: c1
  Basis Set: 6-31G*
  Basis Set:
  Basis Set: 6-31G*
  Basis Set:
  @DF-RHF Final Energy:  -191.89690176284665
    Total Energy =                       -191.8969017628466531
  Basis Set: 6-31G*
  Basis Set:
  Basis Set: 6-31G*
  Basis Set:
  @DF-RHF Final Energy:  -191.90388319146399
    Total Energy =                       -191.9038831914639331
  Basis Set: 6-31G*
  Basis Set:
  Basis Set: 6-31G*
  Basis Set:
  @DF-RHF Final Energy:  -191.90465392202873
    Total Energy =                       -191.9046539220287855
  Basis Set: 6-31G*
  Basis Set:
  @DF-RHF Final Energy:  -191.90468696923904
    Total Energy =                       -191.9046869692389237
  Basis Set: 6-31G*
  Basis Set:
  @DF-RHF Final Energy:  -191.90469186594748
    Total Energy =                       -191.9046918659474841
  Basis Set: 6-31G*
  Basis Set:
  Basis Set: 6-31G*
  Basis Set:
  @DF-RHF Final Energy:  -191.90403841695451
    Total Energy =                       -191.9040384169545632
  Basis Set: 6-31G*
  Basis Set:
  Basis Set: 6-31G*
  Basis Set:
  @DF-RHF Final Energy:  -191.90469190819744
    Total Energy =                       -191.9046919081974067
  Basis Set: 6-31G*
  Basis Set:
  Charge       = 0
  Multiplicity = 1
  Basis Set: 6-31G*
  Basis Set:

    Orbital Energies (a.u.)
    -----------------------

    Doubly Occupied:

       1A    -20.559657     2A    -11.280540     3A    -11.237785
       4A    -11.222348     5A     -1.369313     6A     -1.060471
       7A     -0.931437     8A     -0.770975     9A     -0.686990
      10A     -0.659777    11A     -0.619929    12A     -0.568476
      13A     -0.536211    14A     -0.497195    15A     -0.445985
      16A     -0.363699

  @DF-RHF Final Energy:  -191.90469250239627

   => Energetics <=

    Nuclear Repulsion Energy =            119.1885937710661381
    One-Electron Energy =                -496.5650011958379082
    Two-Electron Energy =                 185.4717149223754973
    DFT Exchange-Correlation Energy =       0.0000000000000000
    Empirical Dispersion Energy =           0.0000000000000000
    PCM Polarization Energy =               0.0000000000000000
    EFP Energy =                            0.0000000000000000
    Total Energy =                       -191.9046925023962444
    Molecular point group: c1
  Basis Set: 6-31G*
  Basis Set:

  -Total Gradient:
     Atom            X                  Y                   Z
    ------   -----------------  -----------------  -----------------
       1       -0.000000137982     0.000053915595     0.000006819387
       2        0.000062870640    -0.000015284431    -0.000024750542
       3       -0.007820915531     0.007730768320     0.011611209330
       4        0.012721044157    -0.014195046692    -0.028741081553
       5        0.000021766586    -0.000034340378     0.000021748865
       6        0.000021648551     0.000025520654    -0.000044358444
       7       -0.004590412731     0.008650296644     0.038119459553
       8       -0.000111235121     0.000026283416     0.000190258923
       9       -0.000323689405    -0.002261034088    -0.021146823932
      10        0.000019060833     0.000018920961     0.000007518412

  **** Optimization is complete! (in 9 steps) ****
    Final optimized geometry and variables:
    Molecular point group: c1

    Geometry (in Angstrom), charge = 0, multiplicity = 1:

    H            0.451017599783    -0.760415790425     1.413598674135
    O            1.124538889725    -0.499296037146     0.799856167968
    C            0.699702387638     0.644776641993     0.122716414771
    C           -0.595352917141     0.474483817274    -0.628546635504
    H            1.511648249740     0.922724209364    -0.539943771447
    H            0.557840470752     1.478452182259     0.809328854090
    C           -1.435331281247    -0.541269152592    -0.506931123818
    H           -0.984644995287     1.408163713658    -1.009128805381
    H           -1.104347270932    -1.561134096401    -0.402691971171
    H           -2.430989890041    -0.445643247995    -0.906684980170

  Mulliken Charges: (a.u.)
   Center  Symbol    Alpha    Beta     Spin     Total
       1     H     0.27980  0.27980  0.00000  0.44040
       2     O     4.36615  4.36615  0.00000 -0.73230
       3     C     3.00399  3.00399  0.00000 -0.00799
       4     C     3.07885  3.07885  0.00000 -0.15770
       5     H     0.41020  0.41020  0.00000  0.17960
       6     H     0.42201  0.42201  0.00000  0.15599
       7     C     3.20794  3.20794  0.00000 -0.41587
       8     H     0.41307  0.41307  0.00000  0.17386
       9     H     0.40461  0.40461  0.00000  0.19078
      10     H     0.41338  0.41338  0.00000  0.17323

   Total alpha = 16.00000, Total beta = 16.00000, Total charge =  0.00000
