  ==> Input File <==

--------------------------------------------------------------------------
set {
	reference rhf
	basis 6-31G*
}

set_num_threads( 4 )
memory 2 gb

molecule MOL {
0 1

H	 -0.791751	 -2.528151	 0.044378
N	 -0.055092	 -1.860708	 -0.079446
C	 -0.563778	 -0.502042	 0.037919
H	 0.325446	 -2.015614	 -0.993750
C	 0.575259	 0.508231	 -0.048326
H	 -1.048062	 -0.412892	 1.005761
H	 -1.319470	 -0.259199	 -0.713547
C	 1.954651	 -0.143624	 0.035137
H	 0.475158	 1.060484	 -0.977307
H	 0.469181	 1.234488	 0.755973
H	 2.103292	 -0.853109	 -0.774172
H	 2.742821	 0.599562	 -0.030094
H	 2.083613	 -0.679371	 0.971560

	symmetry c1
}
set optking {
	frozen_dihedral = ("
		6 3 5 9
	")
}

ee = optimize('scf')
oeprop('DIPOLE', 'QUADRUPOLE', 'MULLIKEN_CHARGES')
f=open( 'psi4out.xyz', 'w' )
f.write( "13  " )
f.write( str(ee) + "\n" )
f.write( MOL.save_string_xyz() )
f.close()
--------------------------------------------------------------------------

    Molecular point group: c1
  Charge       = 0
  Multiplicity = 1
  Basis Set: 6-31G*
  Basis Set:
  @DF-RHF Final Energy:  -173.27139609210514
    Total Energy =                       -173.2713960921050500
    Molecular point group: c1
  Basis Set: 6-31G*
  Basis Set:
  Basis Set: 6-31G*
  Basis Set:
  @DF-RHF Final Energy:  -173.27211109104238
    Total Energy =                       -173.2721110910424045
  Basis Set: 6-31G*
  Basis Set:
  Basis Set: 6-31G*
  Basis Set:
  @DF-RHF Final Energy:  -173.27415451690777
    Total Energy =                       -173.2741545169077426
  Basis Set: 6-31G*
  Basis Set:
  Basis Set: 6-31G*
  Basis Set:
  @DF-RHF Final Energy:  -173.27431136316306
    Total Energy =                       -173.2743113631630649
  Basis Set: 6-31G*
  Basis Set:
  Basis Set: 6-31G*
  Basis Set:
  @DF-RHF Final Energy:  -173.27431857614422
    Total Energy =                       -173.2743185761442817
  Basis Set: 6-31G*
  Basis Set:
  Basis Set: 6-31G*
  Basis Set:
  @DF-RHF Final Energy:  -173.27432479815928
    Total Energy =                       -173.2743247981592560
  Basis Set: 6-31G*
  Basis Set:
  Charge       = 0
  Multiplicity = 1
  Basis Set: 6-31G*
  Basis Set:

    Orbital Energies (a.u.)
    -----------------------

    Doubly Occupied:

       1A    -15.533593     2A    -11.241079     3A    -11.212136
       4A    -11.199925     5A     -1.176606     6A     -1.024885
       7A     -0.904995     8A     -0.786057     9A     -0.667436
      10A     -0.627757    11A     -0.594023    12A     -0.558626
      13A     -0.533666    14A     -0.491009    15A     -0.471416
      16A     -0.458406    17A     -0.379120

  @DF-RHF Final Energy:  -173.27432621635435

   => Energetics <=

    Nuclear Repulsion Energy =            133.7752803842766696
    One-Electron Energy =                -498.3777453300755269
    Two-Electron Energy =                 191.3281387294445040
    DFT Exchange-Correlation Energy =       0.0000000000000000
    Empirical Dispersion Energy =           0.0000000000000000
    PCM Polarization Energy =               0.0000000000000000
    EFP Energy =                            0.0000000000000000
    Total Energy =                       -173.2743262163543250
    Molecular point group: c1
  Basis Set: 6-31G*
  Basis Set:

  -Total Gradient:
     Atom            X                  Y                   Z
    ------   -----------------  -----------------  -----------------
       1       -0.000001564601     0.000016929055     0.000002743406
       2        0.000006811214     0.000006323048    -0.000000302253
       3        0.003175787066    -0.003303049970     0.002790459417
       4        0.000002108237     0.000005018016    -0.000001581307
       5        0.002635793278    -0.003377760962    -0.003290885905
       6       -0.003111004452     0.003305533273    -0.001805984869
       7        0.000010319120    -0.000000873320     0.000000475324
       8       -0.000001390447     0.000005130600     0.000002703904
       9       -0.002706489318     0.003357495615     0.002300884051
      10       -0.000001569108    -0.000011683758    -0.000002018693
      11       -0.000006965144    -0.000002451100    -0.000000986844
      12       -0.000003580161     0.000001384183     0.000000012175
      13        0.000001744318    -0.000001994681     0.000004481596

  **** Optimization is complete! (in 7 steps) ****
    Final optimized geometry and variables:
    Molecular point group: c1

    Geometry (in Angstrom), charge = 0, multiplicity = 1:

    H           -1.372533746456    -1.988518617495     0.102999262182
    N           -0.606427060056    -1.371548990528    -0.086342045097
    C           -1.027006755004     0.012284802314     0.079218892995
    H           -0.324544018071    -1.546440010418    -1.031987780952
    C            0.131164250945     1.031819746705    -0.038186646153
    H           -1.492492824512     0.108261409037     1.054037003282
    H           -1.804360327065     0.296751968445    -0.632982779806
    C            1.540969434434     0.456854060081     0.090139864170
    H            0.033257461674     1.590732566914    -0.965403062811
    H           -0.004274674361     1.777716671569     0.741283382466
    H            1.774622667174    -0.233551823365    -0.712427812311
    H            2.271867517546     1.259646448230     0.058869668870
    H            1.662952089472    -0.079473548211     1.023434882638

  Mulliken Charges: (a.u.)
   Center  Symbol    Alpha    Beta     Spin     Total
       1     H     0.33153  0.33153  0.00000  0.33693
       2     N     3.92134  3.92134  0.00000 -0.84268
       3     C     3.06140  3.06140  0.00000 -0.12279
       4     H     0.33458  0.33458  0.00000  0.33084
       5     C     3.16629  3.16629  0.00000 -0.33257
       6     H     0.41947  0.41947  0.00000  0.16106
       7     H     0.43254  0.43254  0.00000  0.13491
       8     C     3.22796  3.22796  0.00000 -0.45592
       9     H     0.42287  0.42287  0.00000  0.15425
      10     H     0.42030  0.42030  0.00000  0.15941
      11     H     0.42405  0.42405  0.00000  0.15189
      12     H     0.42494  0.42494  0.00000  0.15012
      13     H     0.41272  0.41272  0.00000  0.17455

   Total alpha = 17.00000, Total beta = 17.00000, Total charge =  0.00000
