  ==> Input File <==

--------------------------------------------------------------------------
set {
	reference rhf
	basis 6-31G*
}

set_num_threads( 1 )
memory 2 gb

molecule MOL {
0 1

H	 -2.198659	 0.101051	 2.572882
C	 -1.869463	 -0.911914	 2.795758
O	 -0.685819	 -1.219834	 2.132803
H	 -1.679270	 -0.992601	 3.857105
H	 -2.669388	 -1.601255	 2.528633
C	 -0.778740	 -1.164135	 0.744454
C	 0.585256	 -1.407725	 0.142471
H	 -1.471797	 -1.923971	 0.381111
H	 -1.145675	 -0.192583	 0.419726
O	 1.392611	 -0.295398	 0.366430
H	 1.020879	 -2.298662	 0.590210
H	 0.477730	 -1.587515	 -0.927953
C	 2.706965	 -0.449871	 -0.062409
H	 2.756559	 -0.644779	 -1.131878
H	 3.305899	 0.433456	 0.155466
H	 3.125548	 -1.294566	 0.467107

	symmetry c1
}
set optking {
	frozen_dihedral = ("
		3 6 7 11,
		2 3 6 7
	")
}

ee = energy('scf')
oeprop('DIPOLE', 'QUADRUPOLE', 'MULLIKEN_CHARGES')
f=open( 'psi4out.xyz', 'w' )
f.write( "16  " )
f.write( str(ee) + "\n" )
f.write( MOL.save_string_xyz() )
f.close()
--------------------------------------------------------------------------

    Molecular point group: c1

    Geometry (in Angstrom), charge = 0, multiplicity = 1:

       Center              X                  Y                   Z               Mass
    ------------   -----------------  -----------------  -----------------  -----------------
           H         -2.427008800857     1.006137833633     1.546986302132     1.007825032070
           C         -2.097812800857    -0.006827166367     1.769862302132    12.000000000000
           O         -0.914168800857    -0.314747166367     1.106907302132    15.994914619560
           H         -1.907619800857    -0.087514166367     2.831209302132     1.007825032070
           H         -2.897737800857    -0.696168166367     1.502737302132     1.007825032070
           C         -1.007089800857    -0.259048166367    -0.281441697868    12.000000000000
           C          0.356906199143    -0.502638166367    -0.883424697868    12.000000000000
           H         -1.700146800857    -1.018884166367    -0.644784697868     1.007825032070
           H         -1.374024800857     0.712503833633    -0.606169697868     1.007825032070
           O          1.164261199143     0.609688833633    -0.659465697868    15.994914619560
           H          0.792529199143    -1.393575166367    -0.435685697868     1.007825032070
           H          0.249380199143    -0.682428166367    -1.953848697868     1.007825032070
           C          2.478615199143     0.455215833633    -1.088304697868    12.000000000000
           H          2.528209199143     0.260307833633    -2.157773697868     1.007825032070
           H          3.077549199143     1.338542833633    -0.870429697868     1.007825032070
           H          2.897198199143    -0.389479166367    -0.558788697868     1.007825032070

  Charge       = 0
  Multiplicity = 1
  Basis Set: 6-31G*
  Basis Set:

    Orbital Energies (a.u.)
    -----------------------

    Doubly Occupied:

       1A    -20.553667     2A    -20.552400     3A    -11.269505
       4A    -11.268753     5A    -11.263875     6A    -11.263578
       7A     -1.388178     8A     -1.370537     9A     -1.030672
      10A     -0.935675    11A     -0.892219    12A     -0.824350
      13A     -0.684745    14A     -0.680382    15A     -0.656436
      16A     -0.637098    17A     -0.628841    18A     -0.597900
      19A     -0.551567    20A     -0.534663    21A     -0.509980
      22A     -0.476572    23A     -0.461950    24A     -0.419584
      25A     -0.410075

  @DF-RHF Final Energy:  -306.97649340829531

   => Energetics <=

    Nuclear Repulsion Energy =            258.8931254137747260
    One-Electron Energy =                -932.0127274522488960
    Two-Electron Energy =                 366.1431086301789151
    DFT Exchange-Correlation Energy =       0.0000000000000000
    Empirical Dispersion Energy =           0.0000000000000000
    PCM Polarization Energy =               0.0000000000000000
    EFP Energy =                            0.0000000000000000
    Total Energy =                       -306.9764934082951982

  Mulliken Charges: (a.u.)
   Center  Symbol    Alpha    Beta     Spin     Total
       1     H     0.42802  0.42802  0.00000  0.14395
       2     C     3.07954  3.07954  0.00000 -0.15909
       3     O     4.30088  4.30088  0.00000 -0.60176
       4     H     0.41126  0.41126  0.00000  0.17747
       5     H     0.43189  0.43189  0.00000  0.13623
       6     C     2.99321  2.99321  0.00000  0.01358
       7     C     2.99325  2.99325  0.00000  0.01351
       8     H     0.43223  0.43223  0.00000  0.13555
       9     H     0.42253  0.42253  0.00000  0.15493
      10     O     4.30181  4.30181  0.00000 -0.60362
      11     H     0.42293  0.42293  0.00000  0.15413
      12     H     0.43211  0.43211  0.00000  0.13579
      13     C     3.07919  3.07919  0.00000 -0.15837
      14     H     0.43185  0.43185  0.00000  0.13630
      15     H     0.41143  0.41143  0.00000  0.17715
      16     H     0.42787  0.42787  0.00000  0.14425

   Total alpha = 25.00000, Total beta = 25.00000, Total charge = -0.00000
