                              Psi4 1.0.54 Driver

  ==> Input File <==

--------------------------------------------------------------------------
set {
	reference rhf
	basis cc-pvtz
}

set_num_threads( 4 )
memory 2 gb

molecule MOL {
0 1

H	 -3.258660	 -0.290394	 1.471450
C	 -3.307964	 -0.275695	 0.374072
C	 -2.653809	 0.914422	 -0.273689
O	 -3.855140	 -1.148880	 -0.205112
C	 -3.666566	 1.952164	 -0.766730
H	 -1.950526	 1.344871	 0.427340
H	 -2.089565	 0.534465	 -1.122551
C	 -4.421145	 2.655218	 0.359550
H	 -3.139506	 2.689452	 -1.362511
H	 -4.375241	 1.472836	 -1.437714
C	 -5.418530	 3.693847	 -0.146667
H	 -3.704620	 3.134376	 1.021447
H	 -4.945189	 1.920959	 0.965908
C	 -6.163026	 4.403871	 0.982421
H	 -4.890940	 4.419170	 -0.758141
H	 -6.139969	 3.209324	 -0.800930
C	 -7.232364	 5.396111	 0.522120
H	 -5.445574	 4.920097	 1.616108
H	 -6.636454	 3.654587	 1.610708
C	 -6.693351	 6.619411	 -0.215501
H	 -7.785007	 5.731987	 1.393995
H	 -7.950584	 4.881188	 -0.110588
H	 -5.967091	 7.151024	 0.391070
H	 -6.212342	 6.351993	 -1.148670
H	 -7.494916	 7.310391	 -0.450033

	symmetry c1
}
set optking {
	frozen_dihedral = ("
		6 3 2 4
	")
}

ee,wfn = optimize('scf', return_wfn=True)
oeprop( wfn, 'DIPOLE', 'QUADRUPOLE', 'MULLIKEN_CHARGES')
f=open( 'psi4out.xyz', 'w' )
f.write( "25  " )
f.write( str(ee) + "\n" )
f.write( MOL.save_string_xyz() )
f.close()
--------------------------------------------------------------------------

    Molecular point group: c1
  Charge       = 0
  Multiplicity = 1
  Basis Set: CC-PVTZ
  Basis Set:
  @DF-RHF Final Energy:  -387.25795375062222
    Total Energy =                       -387.2579537506222778
    Molecular point group: c1
  Basis Set: CC-PVTZ
  Basis Set:
  Basis Set: CC-PVTZ
  Basis Set:
  @DF-RHF Final Energy:  -387.25825939179015
    Total Energy =                       -387.2582593917904887
  Basis Set: CC-PVTZ
  Basis Set:
  Basis Set: CC-PVTZ
  Basis Set:
  @DF-RHF Final Energy:  -387.25827782383595
    Total Energy =                       -387.2582778238354422
  Basis Set: CC-PVTZ
  Basis Set:
  Basis Set: CC-PVTZ
  Basis Set:
  @DF-RHF Final Energy:  -387.25834793538479
    Total Energy =                       -387.2583479353844496
  Basis Set: CC-PVTZ
  Basis Set:
  Basis Set: CC-PVTZ
  Basis Set:
  @DF-RHF Final Energy:  -387.25836378799352
    Total Energy =                       -387.2583637879934031
  Basis Set: CC-PVTZ
  Basis Set:
  Basis Set: CC-PVTZ
  Basis Set:
  @DF-RHF Final Energy:  -387.25836635585449
    Total Energy =                       -387.2583663558542639
  Basis Set: CC-PVTZ
  Basis Set:
  Charge       = 0
  Multiplicity = 1
  Basis Set: CC-PVTZ
  Basis Set:

    Orbital Energies (a.u.)
    -----------------------

    Doubly Occupied:

       1A    -20.551341     2A    -11.320802     3A    -11.232727
       4A    -11.230008     5A    -11.222633     6A    -11.217126
       7A    -11.216204     8A    -11.215365     9A    -11.208704
      10A     -1.406389    11A     -1.103588    12A     -1.069018
      13A     -1.013200    14A     -0.942986    15A     -0.877276
      16A     -0.826265    17A     -0.782547    18A     -0.772616
      19A     -0.687292    20A     -0.656452    21A     -0.634274
      22A     -0.622625    23A     -0.598058    24A     -0.592901
      25A     -0.582021    26A     -0.550632    27A     -0.538667
      28A     -0.524820    29A     -0.507832    30A     -0.497335
      31A     -0.490098    32A     -0.479012    33A     -0.465200
      34A     -0.459321    35A     -0.442128    36A     -0.410595

  @DF-RHF Final Energy:  -387.25836655382159

   => Energetics <=

    Nuclear Repulsion Energy =            440.7317812199356695
    One-Electron Energy =               -1398.0841743387077258
    Two-Electron Energy =                 570.0940265649498997
    DFT Exchange-Correlation Energy =       0.0000000000000000
    Empirical Dispersion Energy =           0.0000000000000000
    PCM Polarization Energy =               0.0000000000000000
    EFP Energy =                            0.0000000000000000
    Total Energy =                       -387.2583665538221567
    Molecular point group: c1
  Basis Set: CC-PVTZ
  Basis Set:

  -Total Gradient:
     Atom            X                  Y                   Z
    ------   -----------------  -----------------  -----------------
       1        0.000003001973     0.000003140169     0.000009432736
       2        0.000340818829    -0.000164579221    -0.000004597843
       3        0.000167051896    -0.000192048029    -0.000116233068
       4       -0.000267998569     0.000159592131     0.000012062417
       5       -0.000009125168     0.000006378069    -0.000002866453
       6       -0.000222908997     0.000173855084     0.000107295425
       7       -0.000005301157     0.000004174282     0.000000087345
       8        0.000007885768    -0.000000458802    -0.000002238762
       9       -0.000001373992     0.000001029902     0.000004025737
      10       -0.000005817217     0.000006755786    -0.000001884886
      11       -0.000004060457     0.000003852032    -0.000005782207
      12        0.000000393386     0.000000880017    -0.000000528197
      13        0.000003369455    -0.000001700535    -0.000001689132
      14       -0.000003124913     0.000000730316    -0.000000963905
      15       -0.000001354508    -0.000001529853     0.000004057361
      16        0.000000346745    -0.000000379155    -0.000002199312
      17       -0.000000739577     0.000000350000     0.000001095689
      18        0.000000215241    -0.000000522891    -0.000001003633
      19       -0.000000665782     0.000000762129     0.000000712508
      20       -0.000000612153    -0.000000583569     0.000000957998
      21       -0.000000415634     0.000001317520    -0.000000479216
      22        0.000000601245     0.000000060560     0.000000141977
      23        0.000000203978    -0.000000148492     0.000000011510
      24       -0.000000387988    -0.000000847737     0.000000335664
      25       -0.000000002403    -0.000000079710     0.000000250246

  **** Optimization is complete! (in 7 steps) ****
    Final optimized geometry and variables:
    Molecular point group: c1

    Geometry (in Angstrom), charge = 0, multiplicity = 1:

    H            1.606791570212    -2.942503853671     1.399445271572
    C            1.553264328734    -2.939703906802     0.304752469181
    C            2.189233625203    -1.767162886383    -0.403031280881
    O            1.002380361702    -3.821207078734    -0.260047269289
    C            1.146383961029    -0.737637018890    -0.861696840068
    H            2.912549955154    -1.296374931397     0.254497749103
    H            2.714361070772    -2.156253708625    -1.266608727006
    C            0.401610515239    -0.048444220787     0.279944708750
    H            1.653683373592     0.010972675699    -1.461211543014
    H            0.437818252758    -1.233557643024    -1.516009316597
    C           -0.596571226330     0.997911040602    -0.209022818090
    H            1.120588798543     0.424078330453     0.945283005404
    H           -0.126660677245    -0.788385457726     0.875799234020
    C           -1.341203181328     1.690146039348     0.930914904880
    H           -0.068945505295     1.732453053581    -0.809208978745
    H           -1.316889315333     0.522098617254    -0.870101613930
    C           -2.411353113507     2.688390060006     0.485728842974
    H           -0.624301748308     2.197761893184     1.572518918285
    H           -1.814665792084     0.931043148992     1.547468835934
    C           -1.873180832736     3.922663464506    -0.233973817316
    H           -2.964109300489     3.011025359264     1.362579034267
    H           -3.128999469053     2.182113981804    -0.154324062289
    H           -1.146415419292     4.445384132900     0.379788632977
    H           -1.393194689609     3.669285344113    -1.171515009235
    H           -2.675142285841     4.616862696019    -0.457299983635

  Mulliken Charges: (a.u.)
   Center  Symbol    Alpha    Beta     Spin     Total
       1     H     0.45668  0.45668  0.00000  0.08664
       2     C     2.91168  2.91168  0.00000  0.17663
       3     C     3.09309  3.09309  0.00000 -0.18617
       4     O     4.16907  4.16907  0.00000 -0.33815
       5     C     3.09985  3.09985  0.00000 -0.19970
       6     H     0.44920  0.44920  0.00000  0.10160
       7     H     0.43681  0.43681  0.00000  0.12638
       8     C     3.09459  3.09459  0.00000 -0.18917
       9     H     0.44701  0.44701  0.00000  0.10598
      10     H     0.44309  0.44309  0.00000  0.11382
      11     C     3.09334  3.09334  0.00000 -0.18669
      12     H     0.45404  0.45404  0.00000  0.09193
      13     H     0.45038  0.45038  0.00000  0.09924
      14     C     3.09540  3.09540  0.00000 -0.19080
      15     H     0.45128  0.45128  0.00000  0.09743
      16     H     0.45157  0.45157  0.00000  0.09687
      17     C     3.09073  3.09073  0.00000 -0.18146
      18     H     0.45429  0.45429  0.00000  0.09141
      19     H     0.44862  0.44862  0.00000  0.10275
      20     C     3.15275  3.15275  0.00000 -0.30550
      21     H     0.44802  0.44802  0.00000  0.10395
      22     H     0.45380  0.45380  0.00000  0.09240
      23     H     0.45508  0.45508  0.00000  0.08984
      24     H     0.45386  0.45386  0.00000  0.09228
      25     H     0.44576  0.44576  0.00000  0.10848

   Total alpha = 36.00000, Total beta = 36.00000, Total charge = -0.00000

*** Psi4 exiting successfully. Buy a developer a beer!
