                              Psi4 1.0.54 Driver

  ==> Input File <==

--------------------------------------------------------------------------
set {
	reference rhf
	basis cc-pvtz
}

set_num_threads( 4 )
memory 2 gb

molecule MOL {
0 1

O	 0.749630	 1.305591	 -0.000460
C	 0.576499	 0.134701	 -0.003900
C	 -0.765656	 -0.550508	 -0.002152
O	 1.564816	 -0.744612	 -0.000631
C	 -1.945526	 0.411052	 0.000603
H	 -0.794329	 -1.203792	 -0.868145
H	 -0.791555	 -1.205429	 0.862701
C	 -3.107886	 -0.104095	 -0.841102
H	 -1.620793	 1.376130	 -0.368946
H	 -2.271589	 0.573529	 1.020732
H	 -2.813909	 -0.244844	 -1.876031
H	 -3.935491	 0.594685	 -0.825665
H	 -3.472711	 -1.056164	 -0.469895
C	 2.884339	 -0.237801	 0.002883
H	 3.064150	 0.362814	 -0.876312
H	 3.533055	 -1.098529	 0.004958
H	 3.059365	 0.363432	 0.882614

	symmetry c1
}
set optking {
	frozen_dihedral = ("
		9 5 3 6
	")
}

ee,wfn = optimize('scf', return_wfn=True)
oeprop( wfn, 'DIPOLE', 'QUADRUPOLE', 'MULLIKEN_CHARGES')
f=open( 'psi4out.xyz', 'w' )
f.write( "17  " )
f.write( str(ee) + "\n" )
f.write( MOL.save_string_xyz() )
f.close()
--------------------------------------------------------------------------

    Molecular point group: c1
  Charge       = 0
  Multiplicity = 1
  Basis Set: CC-PVTZ
  Basis Set:
  @DF-RHF Final Energy:  -345.03188106315196
    Total Energy =                       -345.0318810631518431
    Molecular point group: c1
  Basis Set: CC-PVTZ
  Basis Set:
  Basis Set: CC-PVTZ
  Basis Set:
  @DF-RHF Final Energy:  -345.03191875540386
    Total Energy =                       -345.0319187554043197
  Basis Set: CC-PVTZ
  Basis Set:
  Basis Set: CC-PVTZ
  Basis Set:
  @DF-RHF Final Energy:  -345.03045597633024
    Total Energy =                       -345.0304559763301313
  Basis Set: CC-PVTZ
  Basis Set:
  Basis Set: CC-PVTZ
  Basis Set:
  @DF-RHF Final Energy:  -345.03222020392997
    Total Energy =                       -345.0322202039298531
  Basis Set: CC-PVTZ
  Basis Set:
  Basis Set: CC-PVTZ
  Basis Set:
  @DF-RHF Final Energy:  -345.03224144866863
    Total Energy =                       -345.0322414486686853
  Basis Set: CC-PVTZ
  Basis Set:
  Basis Set: CC-PVTZ
  Basis Set:
  @DF-RHF Final Energy:  -345.03224584045796
    Total Energy =                       -345.0322458404577901
  Basis Set: CC-PVTZ
  Basis Set:
  Charge       = 0
  Multiplicity = 1
  Basis Set: CC-PVTZ
  Basis Set:

    Orbital Energies (a.u.)
    -----------------------

    Doubly Occupied:

       1A    -20.596890     2A    -20.535169     3A    -11.365877
       4A    -11.278937     5A    -11.234163     6A    -11.218930
       7A    -11.212652     8A     -1.473129     9A     -1.366683
      10A     -1.079688    11A     -1.002885    12A     -0.940211
      13A     -0.828904    14A     -0.769470    15A     -0.704504
      16A     -0.685645    17A     -0.676833    18A     -0.632468
      19A     -0.599793    20A     -0.574175    21A     -0.570375
      22A     -0.531160    23A     -0.524940    24A     -0.496399
      25A     -0.487578    26A     -0.474294    27A     -0.461065
      28A     -0.443317

  @DF-RHF Final Energy:  -345.03224617749282

   => Energetics <=

    Nuclear Repulsion Energy =            313.0019340031881825
    One-Electron Energy =               -1090.5360921651029003
    Two-Electron Energy =                 432.5019119844220086
    DFT Exchange-Correlation Energy =       0.0000000000000000
    Empirical Dispersion Energy =           0.0000000000000000
    PCM Polarization Energy =               0.0000000000000000
    EFP Energy =                            0.0000000000000000
    Total Energy =                       -345.0322461774927660
    Molecular point group: c1
  Basis Set: CC-PVTZ
  Basis Set:

  -Total Gradient:
     Atom            X                  Y                   Z
    ------   -----------------  -----------------  -----------------
       1        0.000021118914     0.000003188488    -0.000009083597
       2       -0.000007227533     0.000002230769     0.000001966132
       3        0.002619834124     0.003371880274    -0.001619914746
       4        0.000010242309     0.000007870096     0.000006800559
       5       -0.001564677574    -0.001925090339    -0.003683166298
       6       -0.001935910224    -0.002482193520     0.001923766065
       7       -0.000006577185     0.000001346729    -0.000013247070
       8       -0.000007375302    -0.000006226368    -0.000007790132
       9        0.000858472667     0.001035711559     0.003398030712
      10        0.000000577796    -0.000005222975     0.000001877184
      11       -0.000010132696    -0.000002140816     0.000018646683
      12        0.000019935307    -0.000016005448    -0.000004510607
      13       -0.000003191790     0.000015587418    -0.000010912102
      14        0.000004958438    -0.000000676688    -0.000002093242
      15        0.000000678320     0.000000498130     0.000000508480
      16        0.000000658996    -0.000000057363     0.000000022572
      17       -0.000001384565    -0.000000699948    -0.000000900593

  **** Optimization is complete! (in 7 steps) ****
    Final optimized geometry and variables:
    Molecular point group: c1

    Geometry (in Angstrom), charge = 0, multiplicity = 1:

    O            0.745340010574     1.283115439049     0.132062814014
    C            0.561652483804     0.114014315605     0.114801695649
    C           -0.782476301782    -0.567784734908     0.087253339897
    O            1.543663549910    -0.772299577327     0.120256605997
    C           -1.985109651531     0.378298718865     0.099441645426
    H           -0.802816994498    -1.225794010026    -0.774986619245
    H           -0.806388225778    -1.239357171391     0.938989435935
    C           -3.173449423099    -0.164619053494    -0.685191111634
    H           -1.683204114732     1.346816366424    -0.274107291333
    H           -2.284525679095     0.551218079296     1.127774262650
    H           -2.925306506917    -0.290279673721    -1.733768787998
    H           -4.018696801890     0.510238098201    -0.623421798001
    H           -3.492820512950    -1.129057607781    -0.303601674392
    C            2.866485177635    -0.275447294354     0.146747365174
    H            3.062435861497     0.334195681302    -0.722813330339
    H            3.509255895645    -1.140720647069     0.146989971198
    H            3.034562076715     0.314145690174     1.035741648135

  Mulliken Charges: (a.u.)
   Center  Symbol    Alpha    Beta     Spin     Total
       1     O     4.19598  4.19598  0.00000 -0.39197
       2     C     2.80235  2.80235  0.00000  0.39529
       3     C     3.10206  3.10206  0.00000 -0.20413
       4     O     4.14741  4.14741  0.00000 -0.29481
       5     C     3.08512  3.08512  0.00000 -0.17023
       6     H     0.44052  0.44052  0.00000  0.11897
       7     H     0.43816  0.43816  0.00000  0.12368
       8     C     3.14938  3.14938  0.00000 -0.29876
       9     H     0.43762  0.43762  0.00000  0.12477
      10     H     0.45320  0.45320  0.00000  0.09360
      11     H     0.45495  0.45495  0.00000  0.09010
      12     H     0.44693  0.44693  0.00000  0.10614
      13     H     0.45562  0.45562  0.00000  0.08876
      14     C     3.03663  3.03663  0.00000 -0.07326
      15     H     0.45434  0.45434  0.00000  0.09131
      16     H     0.44538  0.44538  0.00000  0.10924
      17     H     0.45435  0.45435  0.00000  0.09131

   Total alpha = 28.00000, Total beta = 28.00000, Total charge = -0.00000

*** Psi4 exiting successfully. Buy a developer a beer!
