                              Psi4 1.0.54 Driver

  ==> Input File <==

--------------------------------------------------------------------------
set {
	reference rhf
	basis cc-pvtz
}

set_num_threads( 4 )
memory 2 gb

molecule MOL {
0 1

H	 1.464006	 1.131568	 -0.588400
C	 0.848385	 0.440008	 0.000011
C	 -0.623497	 0.751021	 0.000090
O	 1.351657	 -0.464188	 0.571317
C	 -1.523725	 -0.474323	 -0.000013
H	 -0.813143	 1.382932	 -0.864897
H	 -0.813071	 1.382716	 0.865253
H	 -1.342980	 -1.087348	 -0.873016
H	 -2.565269	 -0.177464	 0.000070
H	 -1.342898	 -1.087564	 0.872820

	symmetry c1
}
set optking {
	frozen_dihedral = ("
		4 2 3 6
	")
}

ee,wfn = optimize('scf', return_wfn=True)
oeprop( wfn, 'DIPOLE', 'QUADRUPOLE', 'MULLIKEN_CHARGES')
f=open( 'psi4out.xyz', 'w' )
f.write( "10  " )
f.write( str(ee) + "\n" )
f.write( MOL.save_string_xyz() )
f.close()
--------------------------------------------------------------------------

    Molecular point group: c1
  Charge       = 0
  Multiplicity = 1
  Basis Set: CC-PVTZ
  Basis Set:
  @DF-RHF Final Energy:  -192.02238334707286
    Total Energy =                       -192.0223833470728323
    Molecular point group: c1
  Basis Set: CC-PVTZ
  Basis Set:
  Basis Set: CC-PVTZ
  Basis Set:
  @DF-RHF Final Energy:  -192.02048431588315
    Total Energy =                       -192.0204843158830386
  Basis Set: CC-PVTZ
  Basis Set:
  Basis Set: CC-PVTZ
  Basis Set:
  @DF-RHF Final Energy:  -192.02272816169705
    Total Energy =                       -192.0227281616969890
  Basis Set: CC-PVTZ
  Basis Set:
  Basis Set: CC-PVTZ
  Basis Set:
  @DF-RHF Final Energy:  -192.02278030335458
    Total Energy =                       -192.0227803033545229
  Basis Set: CC-PVTZ
  Basis Set:
  Basis Set: CC-PVTZ
  Basis Set:
  @DF-RHF Final Energy:  -192.02281175915488
    Total Energy =                       -192.0228117591548198
  Basis Set: CC-PVTZ
  Basis Set:
  Charge       = 0
  Multiplicity = 1
  Basis Set: CC-PVTZ
  Basis Set:

    Orbital Energies (a.u.)
    -----------------------

    Doubly Occupied:

       1A    -20.553294     2A    -11.323696     3A    -11.238989
       4A    -11.220638     5A     -1.409058     6A     -1.061106
       7A     -0.910038     8A     -0.777679     9A     -0.686349
      10A     -0.639800    11A     -0.623603    12A     -0.554724
      13A     -0.536826    14A     -0.517512    15A     -0.493463
      16A     -0.415387

  @DF-RHF Final Energy:  -192.02282097045639

   => Energetics <=

    Nuclear Repulsion Energy =            119.1011100627621886
    One-Electron Energy =                -496.3235384096288954
    Two-Electron Energy =                 185.1996073764103699
    DFT Exchange-Correlation Energy =       0.0000000000000000
    Empirical Dispersion Energy =           0.0000000000000000
    PCM Polarization Energy =               0.0000000000000000
    EFP Energy =                            0.0000000000000000
    Total Energy =                       -192.0228209704563369
    Molecular point group: c1
  Basis Set: CC-PVTZ
  Basis Set:

  -Total Gradient:
     Atom            X                  Y                   Z
    ------   -----------------  -----------------  -----------------
       1       -0.000035863717     0.000003592182    -0.000018605650
       2        0.000080091596    -0.001731424787    -0.002796133315
       3       -0.000152075193    -0.001975562883    -0.000966658917
       4       -0.000004725428     0.001533706981     0.002213652027
       5        0.000026711212     0.000052338422     0.000005431894
       6        0.000103838865     0.002098055622     0.001521257849
       7       -0.000011996287     0.000032785168     0.000035809833
       8        0.000010056193    -0.000008761915    -0.000016093931
       9       -0.000018965559     0.000012433105     0.000004957878
      10        0.000002928318    -0.000017161895     0.000016382333

  **** Optimization is complete! (in 6 steps) ****
    Final optimized geometry and variables:
    Molecular point group: c1

    Geometry (in Angstrom), charge = 0, multiplicity = 1:

    H            1.389417157063     1.288395271139    -0.565884508382
    C            0.802513111023     0.491421953382    -0.093996915856
    C           -0.696031940493     0.639013116354    -0.190643008669
    O            1.349879897060    -0.379768752580     0.488340347511
    C           -1.448466058112    -0.684691031260    -0.229137141315
    H           -0.935103884707     1.273628972393    -1.037031281327
    H           -0.986069093930     1.209814481468     0.690322887880
    H           -1.193473001077    -1.250917787848    -1.116955338128
    H           -2.517389242659    -0.511825777315    -0.235402498835
    H           -1.202171332201    -1.289287367909     0.632090548493

  Mulliken Charges: (a.u.)
   Center  Symbol    Alpha    Beta     Spin     Total
       1     H     0.45424  0.45424  0.00000  0.09151
       2     C     2.91499  2.91499  0.00000  0.17003
       3     C     3.08349  3.08349  0.00000 -0.16698
       4     O     4.16634  4.16634  0.00000 -0.33268
       5     C     3.14184  3.14184  0.00000 -0.28369
       6     H     0.44855  0.44855  0.00000  0.10291
       7     H     0.44727  0.44727  0.00000  0.10547
       8     H     0.45220  0.45220  0.00000  0.09560
       9     H     0.44905  0.44905  0.00000  0.10191
      10     H     0.44204  0.44204  0.00000  0.11593

   Total alpha = 16.00000, Total beta = 16.00000, Total charge = -0.00000

*** Psi4 exiting successfully. Buy a developer a beer!
