                              Psi4 1.0.54 Driver

  ==> Input File <==

--------------------------------------------------------------------------
set {
	reference rhf
	basis cc-pvtz
}

set_num_threads( 4 )
memory 2 gb

molecule MOL {
0 1

H	 -0.357290	 1.902501	 0.432796
O	 0.057669	 1.301365	 -0.158528
C	 0.004145	 -0.005141	 0.363049
C	 1.199168	 -0.827145	 -0.096690
C	 -1.316386	 -0.602081	 -0.083515
H	 0.012026	 0.043363	 1.450619
H	 1.216685	 -0.896776	 -1.178167
H	 2.129940	 -0.372354	 0.228035
H	 1.160783	 -1.829622	 0.314294
H	 -1.357882	 -0.655920	 -1.165207
H	 -2.140147	 0.011735	 0.257253
H	 -1.440790	 -1.601175	 0.317669

	symmetry c1
}
set optking {
	frozen_dihedral = ("
		1 2 3 4
	")
}

ee,wfn = optimize('scf', return_wfn=True)
oeprop( wfn, 'DIPOLE', 'QUADRUPOLE', 'MULLIKEN_CHARGES')
f=open( 'psi4out.xyz', 'w' )
f.write( "12  " )
f.write( str(ee) + "\n" )
f.write( MOL.save_string_xyz() )
f.close()
--------------------------------------------------------------------------

    Molecular point group: c1
  Charge       = 0
  Multiplicity = 1
  Basis Set: CC-PVTZ
  Basis Set:
  @DF-RHF Final Energy:  -193.19375317057080
    Total Energy =                       -193.1937531705708579
    Molecular point group: c1
  Basis Set: CC-PVTZ
  Basis Set:
  Basis Set: CC-PVTZ
  Basis Set:
  @DF-RHF Final Energy:  -193.16080777511587
    Total Energy =                       -193.1608077751158987
  Basis Set: CC-PVTZ
  Basis Set:
  Basis Set: CC-PVTZ
  Basis Set:
  @DF-RHF Final Energy:  -193.19404674032523
    Total Energy =                       -193.1940467403252342
  Basis Set: CC-PVTZ
  Basis Set:
  Basis Set: CC-PVTZ
  Basis Set:
  @DF-RHF Final Energy:  -193.19515286030057
    Total Energy =                       -193.1951528603006523
  Basis Set: CC-PVTZ
  Basis Set:
  Basis Set: CC-PVTZ
  Basis Set:
  @DF-RHF Final Energy:  -193.19518175155224
    Total Energy =                       -193.1951817515522407
  Basis Set: CC-PVTZ
  Basis Set:
  Basis Set: CC-PVTZ
  Basis Set:
  @DF-RHF Final Energy:  -193.19518392620176
    Total Energy =                       -193.1951839262018211
  Basis Set: CC-PVTZ
  Basis Set:
  Charge       = 0
  Multiplicity = 1
  Basis Set: CC-PVTZ
  Basis Set:

    Orbital Energies (a.u.)
    -----------------------

    Doubly Occupied:

       1A    -20.543610     2A    -11.274424     3A    -11.207170
       4A    -11.204871     5A     -1.363677     6A     -1.042791
       7A     -0.937859     8A     -0.800770     9A     -0.711218
      10A     -0.615489    11A     -0.602507    12A     -0.553253
      13A     -0.538725    14A     -0.526623    15A     -0.508406
      16A     -0.465847    17A     -0.433268

  @DF-RHF Final Energy:  -193.19518407772904

   => Energetics <=

    Nuclear Repulsion Energy =            135.5697049888810284
    One-Electron Energy =                -530.8687627547728880
    Two-Electron Energy =                 202.1038736881628211
    DFT Exchange-Correlation Energy =       0.0000000000000000
    Empirical Dispersion Energy =           0.0000000000000000
    PCM Polarization Energy =               0.0000000000000000
    EFP Energy =                            0.0000000000000000
    Total Energy =                       -193.1951840777290386
    Molecular point group: c1
  Basis Set: CC-PVTZ
  Basis Set:

  -Total Gradient:
     Atom            X                  Y                   Z
    ------   -----------------  -----------------  -----------------
       1        0.001560222499     0.000597203190     0.000480035498
       2       -0.001718671094    -0.000607533853    -0.000356835729
       3       -0.000487806645    -0.000368274239    -0.000869054030
       4        0.000635012303     0.000395311508     0.000749686420
       5        0.000010030695     0.000000602608    -0.000001156861
       6        0.000001898584    -0.000008656790    -0.000002347602
       7       -0.000002342375    -0.000000456291    -0.000005758484
       8       -0.000013273620    -0.000002270894     0.000010054441
       9        0.000000574030    -0.000003505623    -0.000005873952
      10       -0.000000152451     0.000003452891     0.000000446588
      11        0.000013411303     0.000001756559    -0.000002102299
      12        0.000001096772    -0.000007629065     0.000002906010

  **** Optimization is complete! (in 7 steps) ****
    Final optimized geometry and variables:
    Molecular point group: c1

    Geometry (in Angstrom), charge = 0, multiplicity = 1:

    H           -0.675439548133     1.734867177372     0.676639856879
    O           -0.280523356606     1.281214675169    -0.044078669839
    C            0.096545275608    -0.021363326590     0.343481059794
    C            1.306185437177    -0.409204693367    -0.486297479084
    C           -1.066720800805    -0.986186941065     0.171373943183
    H            0.389979311145    -0.011758358315     1.391067425959
    H            1.058187918752    -0.390609201121    -1.541462314490
    H            2.117089631083     0.287413795540    -0.317310552690
    H            1.645801355827    -1.406408116380    -0.230850241287
    H           -1.380371199720    -1.014086296231    -0.865632745903
    H           -1.915023362881    -0.674898385427     0.770976242192
    H           -0.788927323908    -1.989268657288     0.476103262155

  Mulliken Charges: (a.u.)
   Center  Symbol    Alpha    Beta     Spin     Total
       1     H     0.39341  0.39341  0.00000  0.21319
       2     O     4.20806  4.20806  0.00000 -0.41613
       3     C     2.92505  2.92505  0.00000  0.14990
       4     C     3.13956  3.13956  0.00000 -0.27911
       5     C     3.13969  3.13969  0.00000 -0.27937
       6     H     0.46737  0.46737  0.00000  0.06526
       7     H     0.45204  0.45204  0.00000  0.09593
       8     H     0.44885  0.44885  0.00000  0.10231
       9     H     0.45925  0.45925  0.00000  0.08150
      10     H     0.45217  0.45217  0.00000  0.09567
      11     H     0.45631  0.45631  0.00000  0.08738
      12     H     0.45826  0.45826  0.00000  0.08348

   Total alpha = 17.00000, Total beta = 17.00000, Total charge =  0.00000

*** Psi4 exiting successfully. Buy a developer a beer!
