                              Psi4 1.0.54 Driver

  ==> Input File <==

--------------------------------------------------------------------------
set {
	reference rhf
	basis cc-pvtz
}

set_num_threads( 4 )
memory 2 gb

molecule MOL {
0 1

O	 0.074770	 1.259872	 0.000487
C	 0.029490	 0.077183	 0.000078
C	 -1.232113	 -0.748027	 0.000015
O	 1.106773	 -0.690081	 -0.000204
C	 -2.501422	 0.088592	 -0.000052
H	 -1.188777	 -1.400384	 -0.865133
H	 -1.188857	 -1.400312	 0.865225
H	 -2.548170	 0.725504	 -0.873205
H	 -3.371613	 -0.556398	 -0.000040
H	 -2.548215	 0.725571	 0.873047
C	 1.167003	 -1.723703	 -0.962306
H	 0.347500	 -2.414699	 -0.831254
H	 2.106904	 -2.226147	 -0.801178
H	 1.128328	 -1.316686	 -1.961849

	symmetry c1
}
set optking {
	frozen_dihedral = ("
		11 4 2 3
	")
}

ee,wfn = optimize('scf', return_wfn=True)
oeprop( wfn, 'DIPOLE', 'QUADRUPOLE', 'MULLIKEN_CHARGES')
f=open( 'psi4out.xyz', 'w' )
f.write( "14  " )
f.write( str(ee) + "\n" )
f.write( MOL.save_string_xyz() )
f.close()
--------------------------------------------------------------------------

    Molecular point group: c1
  Charge       = 0
  Multiplicity = 1
  Basis Set: CC-PVTZ
  Basis Set:
  @DF-RHF Final Energy:  -305.96306161583686
    Total Energy =                       -305.9630616158370913
    Molecular point group: c1
  Basis Set: CC-PVTZ
  Basis Set:
  Basis Set: CC-PVTZ
  Basis Set:
  @DF-RHF Final Energy:  -305.95992071607913
    Total Energy =                       -305.9599207160791252
  Basis Set: CC-PVTZ
  Basis Set:
  Basis Set: CC-PVTZ
  Basis Set:
  @DF-RHF Final Energy:  -305.96867722870809
    Total Energy =                       -305.9686772287082022
  Basis Set: CC-PVTZ
  Basis Set:
  Basis Set: CC-PVTZ
  Basis Set:
  @DF-RHF Final Energy:  -305.96788025481158
    Total Energy =                       -305.9678802548117460
  Basis Set: CC-PVTZ
  Basis Set:
  Basis Set: CC-PVTZ
  Basis Set:
  @DF-RHF Final Energy:  -305.96958134241549
    Total Energy =                       -305.9695813424154949
  Basis Set: CC-PVTZ
  Basis Set:
  Basis Set: CC-PVTZ
  Basis Set:
  @DF-RHF Final Energy:  -305.96967478623782
    Total Energy =                       -305.9696747862383290
  Basis Set: CC-PVTZ
  Basis Set:
  Basis Set: CC-PVTZ
  Basis Set:
  @DF-RHF Final Energy:  -305.96968411650755
    Total Energy =                       -305.9696841165076080
  Basis Set: CC-PVTZ
  Basis Set:
  Charge       = 0
  Multiplicity = 1
  Basis Set: CC-PVTZ
  Basis Set:

    Orbital Energies (a.u.)
    -----------------------

    Doubly Occupied:

       1A    -20.587115     2A    -20.538310     3A    -11.367429
       4A    -11.293091     5A    -11.244888     6A    -11.218918
       7A     -1.464080     8A     -1.370829     9A     -1.063556
      10A     -0.982384    11A     -0.898360    12A     -0.768781
      13A     -0.704878    14A     -0.684495    15A     -0.676544
      16A     -0.628741    17A     -0.611784    18A     -0.560860
      19A     -0.548889    20A     -0.526061    21A     -0.513743
      22A     -0.495377    23A     -0.458308    24A     -0.438298

  @DF-RHF Final Energy:  -305.96968458389006

   => Energetics <=

    Nuclear Repulsion Energy =            247.5776617319666002
    One-Electron Energy =                -907.8032572736083239
    Two-Electron Energy =                 354.2559109577517802
    DFT Exchange-Correlation Energy =       0.0000000000000000
    Empirical Dispersion Energy =           0.0000000000000000
    PCM Polarization Energy =               0.0000000000000000
    EFP Energy =                            0.0000000000000000
    Total Energy =                       -305.9696845838899435
    Molecular point group: c1
  Basis Set: CC-PVTZ
  Basis Set:

  -Total Gradient:
     Atom            X                  Y                   Z
    ------   -----------------  -----------------  -----------------
       1        0.000018985415     0.000073279986     0.000011642187
       2        0.001511603110     0.000703017155    -0.005588866225
       3       -0.000336134317     0.000150880385     0.003005041722
       4       -0.002885305882    -0.002922026611     0.004683425510
       5       -0.000003376738    -0.000001038684    -0.000006809964
       6       -0.000001033342    -0.000018840907    -0.000013433761
       7       -0.000009043945    -0.000015947687    -0.000001708967
       8       -0.000005952617     0.000005172271    -0.000000104070
       9       -0.000002031284     0.000000201754     0.000000381698
      10       -0.000005631216     0.000008013259     0.000006086530
      11        0.001725814864     0.002001786890    -0.002114192341
      12        0.000017436358     0.000030200646    -0.000004217346
      13       -0.000025704086     0.000009329283     0.000006722825
      14        0.000000373679    -0.000024027739     0.000016032202

  **** Optimization is complete! (in 8 steps) ****
    Final optimized geometry and variables:
    Molecular point group: c1

    Geometry (in Angstrom), charge = 0, multiplicity = 1:

    O            0.316596655662     1.512658376364     0.158286075371
    C            0.210363181649     0.341500888461     0.117755559048
    C           -1.115526274355    -0.379995785550     0.014358769741
    O            1.293052242730    -0.433315680803     0.275568569606
    C           -2.310366137150     0.560130362572     0.055518819608
    H           -1.126102035534    -0.961149100961    -0.901894282899
    H           -1.152196041986    -1.098840094136     0.826200087241
    H           -2.276702724315     1.266014076722    -0.762888097079
    H           -3.230856274781    -0.006380156325    -0.016378856737
    H           -2.326910160633     1.126522876776     0.976580026572
    C            1.516703575198    -1.530238377292    -0.576729936233
    H            0.815212859330    -2.334586458404    -0.395213036148
    H            2.513128441183    -1.880433264043    -0.362324943835
    H            1.465755859312    -1.231837637080    -1.616760159339

  Mulliken Charges: (a.u.)
   Center  Symbol    Alpha    Beta     Spin     Total
       1     O     4.17033  4.17033  0.00000 -0.34066
       2     C     2.80319  2.80319  0.00000  0.39361
       3     C     3.11762  3.11762  0.00000 -0.23524
       4     O     4.14402  4.14402  0.00000 -0.28803
       5     C     3.13898  3.13898  0.00000 -0.27797
       6     H     0.44584  0.44584  0.00000  0.10831
       7     H     0.43683  0.43683  0.00000  0.12634
       8     H     0.44648  0.44648  0.00000  0.10704
       9     H     0.45120  0.45120  0.00000  0.09759
      10     H     0.44576  0.44576  0.00000  0.10848
      11     C     3.04580  3.04580  0.00000 -0.09160
      12     H     0.46057  0.46057  0.00000  0.07887
      13     H     0.43571  0.43571  0.00000  0.12857
      14     H     0.45767  0.45767  0.00000  0.08467

   Total alpha = 24.00000, Total beta = 24.00000, Total charge = -0.00000

*** Psi4 exiting successfully. Buy a developer a beer!
