  ==> Input File <==

--------------------------------------------------------------------------
set {
	reference rhf
	basis 6-31G*
}

set_num_threads( 1 )
memory 2 gb

molecule MOL {
0 1

H	 -3.311784	 0.308560	 0.056749
C	 -2.685298	 0.008686	 -0.780945
O	 -1.392607	 -0.295399	 -0.366433
H	 -3.102458	 -0.882853	 -1.228469
H	 -2.691346	 0.808776	 -1.520030
C	 -0.719715	 0.768384	 0.229244
C	 0.719720	 0.768376	 -0.229267
H	 -1.185038	 1.714362	 -0.050570
H	 -0.750528	 0.687237	 1.313896
O	 1.392611	 -0.295398	 0.366430
H	 0.750534	 0.687200	 -1.313918
H	 1.185043	 1.714359	 0.050526
C	 2.706965	 -0.449871	 -0.062409
H	 2.756559	 -0.644779	 -1.131878
H	 3.305899	 0.433456	 0.155466
H	 3.125548	 -1.294566	 0.467107

	symmetry c1
}
set optking {
	frozen_dihedral = ("
		3 6 7 11,
		7 10 13 14
	")
}

ee = energy('scf')
oeprop('DIPOLE', 'QUADRUPOLE', 'MULLIKEN_CHARGES')
f=open( 'psi4out.xyz', 'w' )
f.write( "16  " )
f.write( str(ee) + "\n" )
f.write( MOL.save_string_xyz() )
f.close()
--------------------------------------------------------------------------

    Molecular point group: c1

    Geometry (in Angstrom), charge = 0, multiplicity = 1:

       Center              X                  Y                   Z               Mass
    ------------   -----------------  -----------------  -----------------  -----------------
           H         -3.315594473043     0.227992716500     0.204934038745     1.007825032070
           C         -2.689108473043    -0.071881283500    -0.632759961255    12.000000000000
           O         -1.396417473043    -0.375966283500    -0.218247961255    15.994914619560
           H         -3.106268473043    -0.963420283500    -1.080283961255     1.007825032070
           H         -2.695156473043     0.728208716500    -1.371844961255     1.007825032070
           C         -0.723525473043     0.687816716500     0.377429038745    12.000000000000
           C          0.715909526957     0.687808716500    -0.081081961255    12.000000000000
           H         -1.188848473043     1.633794716500     0.097615038745     1.007825032070
           H         -0.754338473043     0.606669716500     1.462081038745     1.007825032070
           O          1.388800526957    -0.375965283500     0.514615038745    15.994914619560
           H          0.746723526957     0.606632716500    -1.165732961255     1.007825032070
           H          1.181232526957     1.633791716500     0.198711038745     1.007825032070
           C          2.703154526957    -0.530438283500     0.085776038745    12.000000000000
           H          2.752748526957    -0.725346283500    -0.983692961255     1.007825032070
           H          3.302088526957     0.352888716500     0.303651038745     1.007825032070
           H          3.121737526957    -1.375133283500     0.615292038745     1.007825032070

  Charge       = 0
  Multiplicity = 1
  Basis Set: 6-31G*
  Basis Set:

    Orbital Energies (a.u.)
    -----------------------

    Doubly Occupied:

       1A    -20.553312     2A    -20.552241     3A    -11.268439
       4A    -11.267396     5A    -11.265517     6A    -11.263161
       7A     -1.388209     8A     -1.370667     9A     -1.029954
      10A     -0.936576    11A     -0.894497    12A     -0.823108
      13A     -0.686266    14A     -0.677759    15A     -0.657454
      16A     -0.637965    17A     -0.625412    18A     -0.600076
      19A     -0.556550    20A     -0.529065    21A     -0.507810
      22A     -0.474799    23A     -0.472559    24A     -0.417662
      25A     -0.407106

  @DF-RHF Final Energy:  -306.97408556702715

   => Energetics <=

    Nuclear Repulsion Energy =            258.8834139957619982
    One-Electron Energy =                -931.9877993150139446
    Two-Electron Energy =                 366.1302997522250280
    DFT Exchange-Correlation Energy =       0.0000000000000000
    Empirical Dispersion Energy =           0.0000000000000000
    PCM Polarization Energy =               0.0000000000000000
    EFP Energy =                            0.0000000000000000
    Total Energy =                       -306.9740855670269184

  Mulliken Charges: (a.u.)
   Center  Symbol    Alpha    Beta     Spin     Total
       1     H     0.42931  0.42931  0.00000  0.14138
       2     C     3.08125  3.08125  0.00000 -0.16249
       3     O     4.29949  4.29949  0.00000 -0.59897
       4     H     0.41153  0.41153  0.00000  0.17695
       5     H     0.43131  0.43131  0.00000  0.13739
       6     C     2.99635  2.99635  0.00000  0.00731
       7     C     2.98980  2.98980  0.00000  0.02041
       8     H     0.43185  0.43185  0.00000  0.13629
       9     H     0.41706  0.41706  0.00000  0.16587
      10     O     4.30070  4.30070  0.00000 -0.60141
      11     H     0.42616  0.42616  0.00000  0.14768
      12     H     0.43437  0.43437  0.00000  0.13126
      13     C     3.07929  3.07929  0.00000 -0.15857
      14     H     0.42853  0.42853  0.00000  0.14295
      15     H     0.43197  0.43197  0.00000  0.13606
      16     H     0.41105  0.41105  0.00000  0.17790

   Total alpha = 25.00000, Total beta = 25.00000, Total charge =  0.00000
