  ==> Input File <==

--------------------------------------------------------------------------
set {
	reference rhf
	basis 6-31G*
}

set_num_threads( 4 )
memory 2 gb

molecule MOL {
0 1

H	 0.677328	 3.722718	 0.543297
O	 1.432000	 3.165373	 0.410870
C	 1.063835	 1.883758	 0.213148
C	 2.076963	 0.953160	 0.004572
C	 -0.257495	 1.480995	 0.212221
H	 3.096099	 1.291083	 0.009892
C	 1.763991	 -0.374149	 -0.203668
H	 -1.058061	 2.176433	 0.370297
C	 -0.536158	 0.140425	 0.000000
H	 2.552433	 -1.085871	 -0.363878
C	 0.443700	 -0.803853	 -0.209198
N	 -1.935604	 -0.280333	 0.000000
H	 0.185232	 -1.829987	 -0.369348
O	 -2.161694	 -1.452901	 0.000000
O	 -2.770341	 0.571417	 0.000000

	symmetry c1
}
set optking {
	frozen_dihedral = ("
		11 9 12 14
	")
}

ee = optimize('scf')
oeprop('DIPOLE', 'QUADRUPOLE', 'MULLIKEN_CHARGES')
f=open( 'psi4out.xyz', 'w' )
f.write( "15  " )
f.write( str(ee) + "\n" )
f.write( MOL.save_string_xyz() )
f.close()
--------------------------------------------------------------------------

    Molecular point group: c1
  Charge       = 0
  Multiplicity = 1
  Basis Set: 6-31G*
  Basis Set:
  @DF-RHF Final Energy:  -509.02759549263118
    Total Energy =                       -509.0275954926314625
    Molecular point group: c1
  Basis Set: 6-31G*
  Basis Set:
  Basis Set: 6-31G*
  Basis Set:
  @DF-RHF Final Energy:  -509.02644459639566
    Total Energy =                       -509.0264445963957769
  Basis Set: 6-31G*
  Basis Set:
  Basis Set: 6-31G*
  Basis Set:
  @DF-RHF Final Energy:  -509.02760476475294
    Total Energy =                       -509.0276047647530504
  Basis Set: 6-31G*
  Basis Set:
  Basis Set: 6-31G*
  Basis Set:
  @DF-RHF Final Energy:  -509.02761703201196
    Total Energy =                       -509.0276170320123583
  Basis Set: 6-31G*
  Basis Set:
  Charge       = 0
  Multiplicity = 1
  Basis Set: 6-31G*
  Basis Set:

    Orbital Energies (a.u.)
    -----------------------

    Doubly Occupied:

       1A    -20.615859     2A    -20.605313     3A    -20.604812
       4A    -15.859482     5A    -11.330680     6A    -11.311287
       7A    -11.267359     8A    -11.266909     9A    -11.263736
      10A    -11.260654    11A     -1.638356    12A     -1.436574
      13A     -1.421726    14A     -1.200662    15A     -1.095130
      16A     -1.046587    17A     -0.966233    18A     -0.878901
      19A     -0.828673    20A     -0.791067    21A     -0.752636
      22A     -0.736938    23A     -0.723726    24A     -0.708064
      25A     -0.673102    26A     -0.635232    27A     -0.615965
      28A     -0.594647    29A     -0.558869    30A     -0.545248
      31A     -0.515941    32A     -0.492183    33A     -0.490164
      34A     -0.454880    35A     -0.377337    36A     -0.342971

  @DF-RHF Final Energy:  -509.02761719802942

   => Energetics <=

    Nuclear Repulsion Energy =            503.4954790623265239
    One-Electron Energy =               -1693.2303813456992430
    Two-Electron Energy =                 680.7072850853426189
    DFT Exchange-Correlation Energy =       0.0000000000000000
    Empirical Dispersion Energy =           0.0000000000000000
    PCM Polarization Energy =               0.0000000000000000
    EFP Energy =                            0.0000000000000000
    Total Energy =                       -509.0276171980301569
    Molecular point group: c1
  Basis Set: 6-31G*
  Basis Set:

  -Total Gradient:
     Atom            X                  Y                   Z
    ------   -----------------  -----------------  -----------------
       1        0.000000633331     0.000000580478     0.000008452464
       2       -0.000003123628     0.000002498454    -0.000015360696
       3       -0.000002727332     0.000002470034     0.000008326080
       4        0.000001354576    -0.000006138038     0.000020131465
       5       -0.000009281223    -0.000007999346     0.000004760267
       6       -0.000001159012    -0.000000347581    -0.000004191504
       7       -0.000002147574     0.000004962023    -0.000016828112
       8       -0.000005865540     0.000003128232     0.000000019121
       9        0.000037726469    -0.000195419617     0.001430624859
      10       -0.000000609890    -0.000001382776     0.000002511236
      11       -0.000033428844     0.000123670980    -0.000764457243
      12       -0.000101031766     0.000191842595    -0.001565572717
      13        0.000000734834     0.000003458984     0.000002924006
      14        0.000018584336    -0.000114919963     0.000892482476
      15        0.000100341264    -0.000006404460    -0.000003821702

  **** Optimization is complete! (in 5 steps) ****
    Final optimized geometry and variables:
    Molecular point group: c1

    Geometry (in Angstrom), charge = 0, multiplicity = 1:

    H            0.841481730612     3.174172907976     0.490589411986
    O            1.596328636277     2.615923524697     0.363232707192
    C            1.228227798964     1.334575626740     0.164042737669
    C            2.241376387302     0.404318724434    -0.045994903413
    C           -0.093158086809     0.931935596799     0.161282286174
    H            3.260445446341     0.742661297963    -0.042076912444
    C            1.928698592458    -0.922844904393    -0.255377180675
    H           -0.894414516587     1.628214126018     0.312866671336
    C           -0.370770650444    -0.409509924084    -0.045162558919
    H            2.717117154815    -1.633639224778    -0.419787826604
    C            0.608628530976    -1.353582512783    -0.256503774701
    N           -1.769947549874    -0.829211301176    -0.052632056650
    H            0.350099944954    -2.380229029310    -0.413689143975
    O           -1.996537219323    -2.000198745614    -0.060369925335
    O           -2.604193454014     0.025081037522    -0.043890891322

  Mulliken Charges: (a.u.)
   Center  Symbol    Alpha    Beta     Spin     Total
       1     H     0.26726  0.26726  0.00000  0.46547
       2     O     4.37571  4.37571  0.00000 -0.75142
       3     C     2.79159  2.79159  0.00000  0.41683
       4     C     3.10865  3.10865  0.00000 -0.21730
       5     C     3.13695  3.13695  0.00000 -0.27391
       6     H     0.38090  0.38090  0.00000  0.23821
       7     C     3.10056  3.10056  0.00000 -0.20112
       8     H     0.36838  0.36838  0.00000  0.26323
       9     C     2.91236  2.91236  0.00000  0.17528
      10     H     0.38656  0.38656  0.00000  0.22688
      11     C     3.09793  3.09793  0.00000 -0.19586
      12     N     3.24173  3.24173  0.00000  0.51653
      13     H     0.36565  0.36565  0.00000  0.26871
      14     O     4.23093  4.23093  0.00000 -0.46186
      15     O     4.23483  4.23483  0.00000 -0.46966

   Total alpha = 36.00000, Total beta = 36.00000, Total charge =  0.00000
