  ==> Input File <==

--------------------------------------------------------------------------
set {
	reference rhf
	basis cc-pvtz
}

set_num_threads( 4 )
memory 2 gb

molecule MOL {
0 1

H	 1.955551	 -3.700068	 0.766194
C	 2.192645	 -2.676285	 0.502068
C	 0.928748	 -1.829926	 0.397688
H	 2.862959	 -2.286992	 1.261126
H	 2.734245	 -2.695176	 -0.437789
C	 1.215950	 -0.382441	 0.027187
H	 0.389828	 -1.846941	 1.338454
H	 0.265317	 -2.264249	 -0.346489
N	 0.000002	 0.398953	 -0.040851
H	 1.858385	 0.060069	 0.782588
H	 1.778272	 -0.353318	 -0.910911
C	 -1.215959	 -0.382435	 0.027143
H	 -0.000012	 1.086078	 0.683841
C	 -2.451944	 0.502410	 -0.038737
H	 -1.221867	 -1.069392	 -0.813828
H	 -1.259993	 -0.999709	 0.929424
C	 -3.752217	 -0.292550	 0.005776
H	 -2.407325	 1.093801	 -0.946480
H	 -2.431979	 1.206234	 0.790023
H	 -3.817783	 -0.982946	 -0.828547
H	 -4.612613	 0.364348	 -0.042306
H	 -3.830160	 -0.871666	 0.919868

	symmetry c1
}
set optking {
	frozen_dihedral = ("
		10 6 9 12
	")
}

ee = optimize('scf')
oeprop('DIPOLE', 'QUADRUPOLE', 'MULLIKEN_CHARGES')
f=open( 'psi4out.xyz', 'w' )
f.write( "22  " )
f.write( str(ee) + "\n" )
f.write( MOL.save_string_xyz() )
f.close()
--------------------------------------------------------------------------

    Molecular point group: c1
  Charge       = 0
  Multiplicity = 1
  Basis Set: CC-PVTZ
  Basis Set:
  @DF-RHF Final Energy:  -290.47010054801353
    Total Energy =                       -290.4701005480133631
    Molecular point group: c1
  Basis Set: CC-PVTZ
  Basis Set:
  Basis Set: CC-PVTZ
  Basis Set:
  @DF-RHF Final Energy:  -290.46927961321825
    Total Energy =                       -290.4692796132184185
  Basis Set: CC-PVTZ
  Basis Set:
  Basis Set: CC-PVTZ
  Basis Set:
  @DF-RHF Final Energy:  -290.47719536294483
    Total Energy =                       -290.4771953629449968
  Basis Set: CC-PVTZ
  Basis Set:
  Basis Set: CC-PVTZ
  Basis Set:
  @DF-RHF Final Energy:  -290.47889238154067
    Total Energy =                       -290.4788923815406747
  Basis Set: CC-PVTZ
  Basis Set:
  Basis Set: CC-PVTZ
  Basis Set:
  @DF-RHF Final Energy:  -290.47917765220330
    Total Energy =                       -290.4791776522031910
  Basis Set: CC-PVTZ
  Basis Set:
  Basis Set: CC-PVTZ
  Basis Set:
  @DF-RHF Final Energy:  -290.47931936242463
    Total Energy =                       -290.4793193624248033
  Basis Set: CC-PVTZ
  Basis Set:
  Basis Set: CC-PVTZ
  Basis Set:
  @DF-RHF Final Energy:  -290.47933262470025
    Total Energy =                       -290.4793326247003051
  Basis Set: CC-PVTZ
  Basis Set:
  Charge       = 0
  Multiplicity = 1
  Basis Set: CC-PVTZ
  Basis Set:

    Orbital Energies (a.u.)
    -----------------------

    Doubly Occupied:

       1A    -15.523605     2A    -11.237210     3A    -11.235083
       4A    -11.213009     5A    -11.210526     6A    -11.208503
       7A    -11.206700     8A     -1.198115     9A     -1.057975
      10A     -1.028549    11A     -0.930014    12A     -0.874789
      13A     -0.814093    14A     -0.781034    15A     -0.669137
      16A     -0.626830    17A     -0.620719    18A     -0.611530
      19A     -0.571481    20A     -0.558457    21A     -0.539151
      22A     -0.532723    23A     -0.503284    24A     -0.489759
      25A     -0.482039    26A     -0.473565    27A     -0.464031
      28A     -0.459072    29A     -0.349730

  @DF-RHF Final Energy:  -290.47933320730266

   => Energetics <=

    Nuclear Repulsion Energy =            318.2212188208135899
    One-Electron Energy =               -1022.4596759013746805
    Two-Electron Energy =                 413.7591238732590000
    DFT Exchange-Correlation Energy =       0.0000000000000000
    Empirical Dispersion Energy =           0.0000000000000000
    PCM Polarization Energy =               0.0000000000000000
    EFP Energy =                            0.0000000000000000
    Total Energy =                       -290.4793332073021475
    Molecular point group: c1
  Basis Set: CC-PVTZ
  Basis Set:

  -Total Gradient:
     Atom            X                  Y                   Z
    ------   -----------------  -----------------  -----------------
       1       -0.000004291932     0.000002066753    -0.000004837664
       2       -0.000008588304     0.000003922721    -0.000022423975
       3        0.000011055699    -0.000003355154     0.000046396825
       4       -0.000006399365    -0.000001390902     0.000000960292
       5        0.000011323413    -0.000000035303    -0.000001574677
       6        0.001766710339     0.002815338308    -0.001655374421
       7       -0.000006588295     0.000000867623     0.000004013381
       8       -0.000003467957     0.000007137593    -0.000004223535
       9       -0.000302977566    -0.000977326727    -0.003846076939
      10       -0.001474004620    -0.002161295210     0.002533026515
      11        0.000027504283     0.000002936514    -0.000003965699
      12        0.000009906294     0.000309059739     0.002966609771
      13        0.000001249454     0.000016283377    -0.000012381322
      14       -0.000009031120    -0.000004792519    -0.000003221468
      15       -0.000004908377    -0.000014437318    -0.000007774167
      16        0.000000047773    -0.000001358263    -0.000000695165
      17       -0.000002357289     0.000005624403     0.000011174165
      18        0.000002298817    -0.000003432309    -0.000004274698
      19       -0.000006736268     0.000002676369     0.000002161757
      20        0.000004013178     0.000005428060    -0.000000190897
      21       -0.000002410567    -0.000000931238     0.000002950466
      22       -0.000002347593    -0.000002986515    -0.000000278544

  **** Optimization is complete! (in 8 steps) ****
    Final optimized geometry and variables:
    Molecular point group: c1

    Geometry (in Angstrom), charge = 0, multiplicity = 1:

    H            2.821686920049    -2.989067094833     0.581836158249
    C            2.895955928113    -1.936760903709     0.334192080877
    C            1.517859893784    -1.283367983074     0.296700883737
    H            3.534465675191    -1.467518146667     1.075392108520
    H            3.393685945656    -1.857888215167    -0.626427727024
    C            1.615561860361     0.199702719277    -0.062373341557
    H            1.039148937493    -1.400629865693     1.263302953794
    H            0.898467016416    -1.805604606282    -0.423600670868
    N            0.364481200819     0.954475762898    -0.143054181553
    H            2.241703185154     0.662126842412     0.694377705242
    H            2.145680059113     0.285160075967    -1.007048920466
    C           -0.908519124277     0.265416960978    -0.091355436365
    H            0.368849297530     1.680448295702     0.537232562665
    C           -2.053437548319     1.262118631166    -0.209385504589
    H           -0.967420690214    -0.430374860862    -0.921430531481
    H           -1.045764732843    -0.321734945155     0.817565080567
    C           -3.424027020137     0.594834265775    -0.180316324228
    H           -1.931273158048     1.824831272717    -1.128030597200
    H           -1.986609927829     1.980691385808     0.604412926311
    H           -3.535855535024    -0.106224851859    -1.000732961432
    H           -4.216718801099     1.328863247798    -0.264627496742
    H           -3.578226987628     0.048103520331     0.744025004233

  Mulliken Charges: (a.u.)
   Center  Symbol    Alpha    Beta     Spin     Total
       1     H     0.44719  0.44719  0.00000  0.10562
       2     C     3.15232  3.15232  0.00000 -0.30463
       3     C     3.09674  3.09674  0.00000 -0.19349
       4     H     0.45538  0.45538  0.00000  0.08923
       5     H     0.45444  0.45444  0.00000  0.09111
       6     C     3.02325  3.02325  0.00000 -0.04650
       7     H     0.45267  0.45267  0.00000  0.09466
       8     H     0.45021  0.45021  0.00000  0.09958
       9     N     3.64376  3.64376  0.00000 -0.28753
      10     H     0.46360  0.46360  0.00000  0.07279
      11     H     0.45820  0.45820  0.00000  0.08360
      12     C     3.02460  3.02460  0.00000 -0.04921
      13     H     0.44436  0.44436  0.00000  0.11128
      14     C     3.08128  3.08128  0.00000 -0.16256
      15     H     0.45910  0.45910  0.00000  0.08179
      16     H     0.47065  0.47065  0.00000  0.05870
      17     C     3.15364  3.15364  0.00000 -0.30728
      18     H     0.44899  0.44899  0.00000  0.10202
      19     H     0.46063  0.46063  0.00000  0.07875
      20     H     0.45484  0.45484  0.00000  0.09031
      21     H     0.44774  0.44774  0.00000  0.10451
      22     H     0.45639  0.45639  0.00000  0.08722

   Total alpha = 29.00000, Total beta = 29.00000, Total charge = -0.00000
