  ==> Input File <==

--------------------------------------------------------------------------
set {
	reference rhf
	basis 6-31G*
}

set_num_threads( 4 )
memory 2 gb

molecule MOL {
0 1

H	 3.474425	 -0.978243	 0.795736
O	 2.826016	 -1.159218	 0.122261
C	 2.077727	 -0.067559	 -0.035091
C	 0.624473	 -0.343591	 0.253101
O	 2.542965	 0.974826	 -0.363729
C	 -0.265902	 0.883932	 0.072916
H	 0.324016	 -1.163849	 -0.390541
H	 0.565024	 -0.726111	 1.268924
C	 -1.728698	 0.646073	 0.462102
H	 -0.209144	 1.219470	 -0.958188
H	 0.135059	 1.692851	 0.673903
C	 -2.482460	 -0.343073	 -0.431425
H	 -2.245265	 1.602650	 0.432430
H	 -1.779332	 0.308348	 1.496285
C	 -3.960546	 -0.461025	 -0.060175
H	 -2.395034	 -0.026811	 -1.468912
H	 -2.024850	 -1.327147	 -0.371646
H	 -4.472726	 -1.168004	 -0.705284
H	 -4.465146	 0.496508	 -0.151489
H	 -4.081218	 -0.800940	 0.964585

	symmetry c1
}
set optking {
	frozen_dihedral = ("
		1 2 3 5
	")
}

ee = optimize('scf')
oeprop('DIPOLE', 'QUADRUPOLE', 'MULLIKEN_CHARGES')
f=open( 'psi4out.xyz', 'w' )
f.write( "20  " )
f.write( str(ee) + "\n" )
f.write( MOL.save_string_xyz() )
f.close()
--------------------------------------------------------------------------

    Molecular point group: c1
  Charge       = 0
  Multiplicity = 1
  Basis Set: 6-31G*
  Basis Set:
  @DF-RHF Final Energy:  -383.93228481167262
    Total Energy =                       -383.9322848116724458
    Molecular point group: c1
  Basis Set: 6-31G*
  Basis Set:
  Basis Set: 6-31G*
  Basis Set:
  @DF-RHF Final Energy:  -383.93075867626169
    Total Energy =                       -383.9307586762620303
  Basis Set: 6-31G*
  Basis Set:
  Basis Set: 6-31G*
  Basis Set:
  @DF-RHF Final Energy:  -383.93348650239238
    Total Energy =                       -383.9334865023928387
  Basis Set: 6-31G*
  Basis Set:
  Basis Set: 6-31G*
  Basis Set:
  @DF-RHF Final Energy:  -383.93368957189915
    Total Energy =                       -383.9336895718989808
  Basis Set: 6-31G*
  Basis Set:
  Basis Set: 6-31G*
  Basis Set:
  @DF-RHF Final Energy:  -383.93369273212568
    Total Energy =                       -383.9336927321259623
  Basis Set: 6-31G*
  Basis Set:
  Charge       = 0
  Multiplicity = 1
  Basis Set: 6-31G*
  Basis Set:

    Orbital Energies (a.u.)
    -----------------------

    Doubly Occupied:

       1A    -20.599040     2A    -20.558970     3A    -11.381266
       4A    -11.239981     5A    -11.222842     6A    -11.220849
       7A    -11.220157     8A    -11.212467     9A     -1.463068
      10A     -1.366712    11A     -1.095721    12A     -1.039877
      13A     -0.959310    14A     -0.866479    15A     -0.815137
      16A     -0.779256    17A     -0.705896    18A     -0.681622
      19A     -0.657501    20A     -0.639253    21A     -0.609836
      22A     -0.585725    23A     -0.566438    24A     -0.555759
      25A     -0.527069    26A     -0.515483    27A     -0.493842
      28A     -0.490758    29A     -0.469863    30A     -0.464903
      31A     -0.457569    32A     -0.442920

  @DF-RHF Final Energy:  -383.93369290892991

   => Energetics <=

    Nuclear Repulsion Energy =            375.2936178846641155
    One-Electron Energy =               -1266.6434876952903323
    Two-Electron Energy =                 507.4161769016965309
    DFT Exchange-Correlation Energy =       0.0000000000000000
    Empirical Dispersion Energy =           0.0000000000000000
    PCM Polarization Energy =               0.0000000000000000
    EFP Energy =                            0.0000000000000000
    Total Energy =                       -383.9336929089296291
    Molecular point group: c1
  Basis Set: 6-31G*
  Basis Set:

  -Total Gradient:
     Atom            X                  Y                   Z
    ------   -----------------  -----------------  -----------------
       1       -0.006309695412    -0.003680942227     0.008177045047
       2        0.006764544437     0.003748238614    -0.014553085573
       3        0.001868640051     0.002059046547     0.015689487550
       4        0.000099955740    -0.000012881931     0.000006708112
       5       -0.002333273572    -0.002186672533    -0.009251352386
       6       -0.000061502981    -0.000036383323    -0.000035915197
       7        0.000055412943     0.000052076770    -0.000019671567
       8        0.000030387120     0.000016714154    -0.000029932730
       9       -0.000018983669     0.000024142623     0.000012128837
      10       -0.000002008584    -0.000012252801     0.000001921742
      11       -0.000018542382     0.000012329359    -0.000002842249
      12       -0.000016225760     0.000003232395     0.000007978372
      13       -0.000031645939    -0.000003304766     0.000018278761
      14        0.000017827553    -0.000013265781    -0.000003099925
      15       -0.000000157975     0.000015164685    -0.000010623601
      16        0.000006355103    -0.000005050654    -0.000012190846
      17       -0.000052472476     0.000018941555     0.000007468096
      18       -0.000000390861     0.000001741385    -0.000002328431
      19       -0.000002537431    -0.000000893679     0.000002615205
      20        0.000004314096     0.000000019604    -0.000002589218

  **** Optimization is complete! (in 6 steps) ****
    Final optimized geometry and variables:
    Molecular point group: c1

    Geometry (in Angstrom), charge = 0, multiplicity = 1:

    H            3.552205281827    -1.075031141671     0.673793943170
    O            2.831908082423    -1.181191098227     0.063479202101
    C            2.084787493126    -0.052907282033    -0.003282984081
    C            0.628501916522    -0.325389147287     0.273237717459
    O            2.539207581347     0.984536096175    -0.342452861672
    C           -0.269705284741     0.891985885733     0.067963056656
    H            0.342990007216    -1.158114992854    -0.361634065485
    H            0.558783731966    -0.698758251501     1.292789283666
    C           -1.734740940873     0.650762456084     0.447179112140
    H           -0.205484725876     1.212459779611    -0.967557373636
    H            0.119610033244     1.713301027415     0.660164311545
    C           -2.475847917723    -0.351297428518    -0.442522991377
    H           -2.256176232368     1.604175891204     0.403462765062
    H           -1.792600979519     0.323312729060     1.484397021117
    C           -3.957176790646    -0.470433880330    -0.084865248494
    H           -2.379029736870    -0.046514142343    -1.482550005819
    H           -2.015313594059    -1.332884022372    -0.367082854126
    H           -4.460230701127    -1.186553464700    -0.727039013474
    H           -4.464287370903     0.484121533516    -0.192163982181
    H           -4.087120255542    -0.799172867801     0.942441501423

  Mulliken Charges: (a.u.)
   Center  Symbol    Alpha    Beta     Spin     Total
       1     H     0.26604  0.26604  0.00000  0.46791
       2     O     4.36518  4.36518  0.00000 -0.73036
       3     C     2.62899  2.62899  0.00000  0.74202
       4     C     3.21203  3.21203  0.00000 -0.42406
       5     O     4.25554  4.25554  0.00000 -0.51107
       6     C     3.15466  3.15466  0.00000 -0.30932
       7     H     0.39530  0.39530  0.00000  0.20941
       8     H     0.40535  0.40535  0.00000  0.18931
       9     C     3.15535  3.15535  0.00000 -0.31069
      10     H     0.41162  0.41162  0.00000  0.17676
      11     H     0.40943  0.40943  0.00000  0.18114
      12     C     3.15477  3.15477  0.00000 -0.30953
      13     H     0.41793  0.41793  0.00000  0.16414
      14     H     0.42442  0.42442  0.00000  0.15115
      15     C     3.23926  3.23926  0.00000 -0.47851
      16     H     0.42105  0.42105  0.00000  0.15790
      17     H     0.42263  0.42263  0.00000  0.15475
      18     H     0.41819  0.41819  0.00000  0.16362
      19     H     0.42066  0.42066  0.00000  0.15869
      20     H     0.42162  0.42162  0.00000  0.15676

   Total alpha = 32.00000, Total beta = 32.00000, Total charge =  0.00000
