  ==> Input File <==

--------------------------------------------------------------------------
set {
	reference rhf
	basis 6-31G*
}

set_num_threads( 4 )
memory 2 gb

molecule MOL {
0 1

H	 -3.712317	 1.495444	 -0.689663
O	 -3.001997	 0.914407	 -0.921495
C	 -2.306886	 0.532354	 0.237577
C	 -1.177863	 -0.397191	 -0.171080
H	 -1.904260	 1.406051	 0.748316
H	 -2.973212	 0.025637	 0.934417
C	 0.198102	 0.111031	 0.262842
H	 -1.208843	 -0.518759	 -1.250427
H	 -1.368741	 -1.376554	 0.258909
C	 1.331804	 -0.827780	 -0.158768
H	 0.361943	 1.100838	 -0.156218
H	 0.217265	 0.229072	 1.345532
C	 2.723619	 -0.410569	 0.329459
H	 1.342964	 -0.912588	 -1.244120
H	 1.116806	 -1.824343	 0.220779
C	 3.243875	 0.895854	 -0.272975
H	 3.424222	 -1.207124	 0.091250
H	 2.714788	 -0.329854	 1.414619
H	 3.251977	 0.848779	 -1.358681
H	 2.637085	 1.747371	 0.016682
H	 4.259473	 1.094070	 0.055697

	symmetry c1
}
set optking {
	frozen_dihedral = ("
		2 3 4 8
	")
}

ee = optimize('scf')
oeprop('DIPOLE', 'QUADRUPOLE', 'MULLIKEN_CHARGES')
f=open( 'psi4out.xyz', 'w' )
f.write( "21  " )
f.write( str(ee) + "\n" )
f.write( MOL.save_string_xyz() )
f.close()
--------------------------------------------------------------------------

    Molecular point group: c1
  Charge       = 0
  Multiplicity = 1
  Basis Set: 6-31G*
  Basis Set:
  @DF-RHF Final Energy:  -310.20656467419155
    Total Energy =                       -310.2065646741916112
    Molecular point group: c1
  Basis Set: 6-31G*
  Basis Set:
  Basis Set: 6-31G*
  Basis Set:
  @DF-RHF Final Energy:  -310.20690248648566
    Total Energy =                       -310.2069024864855464
  Basis Set: 6-31G*
  Basis Set:
  Basis Set: 6-31G*
  Basis Set:
  @DF-RHF Final Energy:  -310.20703314827711
    Total Energy =                       -310.2070331482775032
  Basis Set: 6-31G*
  Basis Set:
  Basis Set: 6-31G*
  Basis Set:
  @DF-RHF Final Energy:  -310.20702888581542
    Total Energy =                       -310.2070288858154186
  Basis Set: 6-31G*
  Basis Set:
  Basis Set: 6-31G*
  Basis Set:
  @DF-RHF Final Energy:  -310.20703420698044
    Total Energy =                       -310.2070342069800972
  Basis Set: 6-31G*
  Basis Set:
  Charge       = 0
  Multiplicity = 1
  Basis Set: 6-31G*
  Basis Set:

    Orbital Energies (a.u.)
    -----------------------

    Doubly Occupied:

       1A    -20.551158     2A    -11.267315     3A    -11.214091
       4A    -11.213545     5A    -11.211971     6A    -11.210570
       7A    -11.206649     8A     -1.357175     9A     -1.084061
      10A     -1.030253    11A     -0.952451    12A     -0.875561
      13A     -0.807136    14A     -0.777585    15A     -0.699841
      16A     -0.645331    17A     -0.622884    18A     -0.604893
      19A     -0.589561    20A     -0.562884    21A     -0.539907
      22A     -0.519274    23A     -0.506111    24A     -0.491749
      25A     -0.477328    26A     -0.458891    27A     -0.455312
      28A     -0.445010    29A     -0.425660

  @DF-RHF Final Energy:  -310.20703429665281

   => Energetics <=

    Nuclear Repulsion Energy =            313.2792546614757043
    One-Electron Energy =               -1041.3642592015100945
    Two-Electron Energy =                 417.8779702433815828
    DFT Exchange-Correlation Energy =       0.0000000000000000
    Empirical Dispersion Energy =           0.0000000000000000
    PCM Polarization Energy =               0.0000000000000000
    EFP Energy =                            0.0000000000000000
    Total Energy =                       -310.2070342966527505
    Molecular point group: c1
  Basis Set: 6-31G*
  Basis Set:

  -Total Gradient:
     Atom            X                  Y                   Z
    ------   -----------------  -----------------  -----------------
       1       -0.000105161968     0.000066594689    -0.000082629585
       2        0.000225914146     0.000255137710     0.000167253722
       3       -0.000065414145    -0.000629543913     0.000120058255
       4        0.000386919010     0.000537026251    -0.000130696554
       5       -0.000038905939     0.000024204225    -0.000053190733
       6       -0.000054767162     0.000008920831    -0.000079917488
       7       -0.000068192606     0.000029265721    -0.000015113429
       8       -0.000241526984    -0.000341795714     0.000008075335
       9       -0.000078856380     0.000069469681     0.000058086754
      10       -0.000040963249    -0.000008915113     0.000034758447
      11        0.000039461445     0.000013113300    -0.000005216170
      12       -0.000017633432     0.000005716551    -0.000018231522
      13        0.000054653131    -0.000045936368    -0.000038561600
      14        0.000013214043    -0.000019809968     0.000021804715
      15       -0.000019952604     0.000014177640     0.000002345186
      16       -0.000009193159     0.000008824160     0.000017269073
      17        0.000034718724     0.000017918934    -0.000004480423
      18        0.000006889949    -0.000018530048    -0.000009045311
      19        0.000006223880    -0.000008522966     0.000007965656
      20       -0.000021768867     0.000011522049    -0.000005631612
      21       -0.000005657834     0.000011162349     0.000005097281

  **** Optimization is complete! (in 6 steps) ****
    Final optimized geometry and variables:
    Molecular point group: c1

    Geometry (in Angstrom), charge = 0, multiplicity = 1:

    H           -3.815151495403     1.346015429056    -0.574616849739
    O           -3.097179759257     0.775783057668    -0.811156807973
    C           -2.404441393260     0.385487448496     0.349881091623
    C           -1.254031652535    -0.546638852958    -0.052414498218
    H           -2.016571971839     1.263727082247     0.862772235622
    H           -3.081163946700    -0.115291439602     1.038475506697
    C            0.124820558792    -0.041802146009     0.379136803650
    H           -1.286146135515    -0.653471051733    -1.131320595335
    H           -1.419802913731    -1.537881247809     0.360921876012
    C            1.256400459091    -0.982393803757    -0.041103541400
    H            0.282005136669     0.946723318986    -0.044275807810
    H            0.144754289529     0.080316294055     1.461713245742
    C            2.650122857381    -0.564520908347     0.441795488752
    H            1.264494809507    -1.071122349179    -1.126230737368
    H            1.042598221420    -1.978142394725     0.342335137540
    C            3.165685719837     0.743511467688    -0.161148047965
    H            3.351040054367    -1.359710685936     0.199781851431
    H            2.645655069201    -0.485092766510     1.527133535363
    H            3.170936325644     0.697019545877    -1.246824909708
    H            2.557203435598     1.593133554962     0.130266234997
    H            4.181652848479     0.944054564618     0.165107553315

  Mulliken Charges: (a.u.)
   Center  Symbol    Alpha    Beta     Spin     Total
       1     H     0.28212  0.28212  0.00000  0.43576
       2     O     4.37136  4.37136  0.00000 -0.74272
       3     C     2.99556  2.99556  0.00000  0.00888
       4     C     3.16537  3.16537  0.00000 -0.33074
       5     H     0.42941  0.42941  0.00000  0.14117
       6     H     0.43027  0.43027  0.00000  0.13946
       7     C     3.16092  3.16092  0.00000 -0.32183
       8     H     0.40298  0.40298  0.00000  0.19403
       9     H     0.42070  0.42070  0.00000  0.15860
      10     C     3.15321  3.15321  0.00000 -0.30643
      11     H     0.41744  0.41744  0.00000  0.16511
      12     H     0.42584  0.42584  0.00000  0.14833
      13     C     3.15226  3.15226  0.00000 -0.30451
      14     H     0.42235  0.42235  0.00000  0.15530
      15     H     0.42261  0.42261  0.00000  0.15477
      16     C     3.24107  3.24107  0.00000 -0.48215
      17     H     0.42105  0.42105  0.00000  0.15790
      18     H     0.42403  0.42403  0.00000  0.15194
      19     H     0.42158  0.42158  0.00000  0.15685
      20     H     0.42017  0.42017  0.00000  0.15966
      21     H     0.41969  0.41969  0.00000  0.16061

   Total alpha = 29.00000, Total beta = 29.00000, Total charge =  0.00000
