  ==> Input File <==

--------------------------------------------------------------------------
set {
	reference rhf
	basis cc-pvtz
}

set_num_threads( 4 )
memory 2 gb

molecule MOL {
0 1

H	 -3.436473	 1.252944	 -1.023892
O	 -3.458596	 0.315260	 -0.960865
C	 -3.176635	 -0.080824	 0.355601
C	 -1.763371	 0.265266	 0.799691
H	 -3.321825	 -1.153438	 0.379502
H	 -3.895468	 0.357385	 1.043382
C	 -0.673390	 -0.426948	 -0.013392
H	 -1.631049	 1.344913	 0.747560
H	 -1.664587	 -0.001624	 1.849167
C	 0.737842	 -0.043159	 0.423759
H	 -0.806103	 -0.190518	 -1.063345
H	 -0.797221	 -1.503753	 0.074146
C	 1.824000	 -0.743224	 -0.390623
H	 0.850588	 1.033777	 0.343840
H	 0.868587	 -0.286314	 1.476203
C	 3.255957	 -0.453067	 0.062319
H	 1.718250	 -0.470599	 -1.438164
H	 1.658105	 -1.815850	 -0.339904
C	 4.304864	 -0.537369	 -1.043950
H	 3.518201	 -1.159775	 0.843707
H	 3.294341	 0.531804	 0.520550
H	 4.285790	 -1.510229	 -1.524842
H	 5.300519	 -0.388487	 -0.641772
H	 4.148522	 0.212899	 -1.809627

	symmetry c1
}
set optking {
	frozen_dihedral = ("
		20 16 13 17
	")
}

ee = optimize('scf')
oeprop('DIPOLE', 'QUADRUPOLE', 'MULLIKEN_CHARGES')
f=open( 'psi4out.xyz', 'w' )
f.write( "24  " )
f.write( str(ee) + "\n" )
f.write( MOL.save_string_xyz() )
f.close()
--------------------------------------------------------------------------

    Molecular point group: c1
  Charge       = 0
  Multiplicity = 1
  Basis Set: CC-PVTZ
  Basis Set:
  @DF-RHF Final Energy:  -349.37916582584376
    Total Energy =                       -349.3791658258436996
    Molecular point group: c1
  Basis Set: CC-PVTZ
  Basis Set:
  Basis Set: CC-PVTZ
  Basis Set:
  @DF-RHF Final Energy:  -349.37957207873109
    Total Energy =                       -349.3795720787310302
  Basis Set: CC-PVTZ
  Basis Set:
  Basis Set: CC-PVTZ
  Basis Set:
  @DF-RHF Final Energy:  -349.37960065845607
    Total Energy =                       -349.3796006584562406
  Basis Set: CC-PVTZ
  Basis Set:
  Charge       = 0
  Multiplicity = 1
  Basis Set: CC-PVTZ
  Basis Set:

    Orbital Energies (a.u.)
    -----------------------

    Doubly Occupied:

       1A    -20.546337     2A    -11.265577     3A    -11.215274
       4A    -11.211623     5A    -11.210986     6A    -11.209077
       7A    -11.208929     8A    -11.205284     9A     -1.364192
      10A     -1.089419    11A     -1.049733    12A     -0.989157
      13A     -0.914423    14A     -0.843034    15A     -0.798417
      16A     -0.788625    17A     -0.681836    18A     -0.656935
      19A     -0.630781    20A     -0.616124    21A     -0.595499
      22A     -0.585721    23A     -0.549755    24A     -0.540763
      25A     -0.532509    26A     -0.502146    27A     -0.494901
      28A     -0.471625    29A     -0.469651    30A     -0.460013
      31A     -0.457119    32A     -0.455699    33A     -0.420679

  @DF-RHF Final Energy:  -349.37960105470034

   => Energetics <=

    Nuclear Repulsion Energy =            381.0522360459020206
    One-Electron Energy =               -1228.7999876849007705
    Two-Electron Energy =                 498.3681505842980641
    DFT Exchange-Correlation Energy =       0.0000000000000000
    Empirical Dispersion Energy =           0.0000000000000000
    PCM Polarization Energy =               0.0000000000000000
    EFP Energy =                            0.0000000000000000
    Total Energy =                       -349.3796010547007427
    Molecular point group: c1
  Basis Set: CC-PVTZ
  Basis Set:

  -Total Gradient:
     Atom            X                  Y                   Z
    ------   -----------------  -----------------  -----------------
       1        0.000001664741    -0.000003864672     0.000002792677
       2       -0.000001497082    -0.000005409841    -0.000016642242
       3        0.000006395358     0.000027438023    -0.000006326228
       4       -0.000008417089     0.000017424234    -0.000030643636
       5        0.000004327272     0.000000657994     0.000000518296
       6        0.000003980686    -0.000001405068     0.000006271614
       7       -0.000045881700     0.000029412821     0.000017369578
       8       -0.000005697529     0.000010611878     0.000011420873
       9        0.000010504459    -0.000014082199    -0.000008437573
      10       -0.000056272400    -0.000038793244     0.000050201974
      11       -0.000006289354    -0.000013477994    -0.000009181233
      12        0.000027896562     0.000010021441     0.000025228873
      13       -0.001125550101     0.004319501497     0.000742704629
      14        0.000010590694     0.000002918367     0.000018676478
      15        0.000016100641    -0.000031825450    -0.000028063945
      16       -0.001745965988     0.002410300035     0.003352776164
      17        0.001276203620    -0.003972831361    -0.001104720093
      18        0.000043491024    -0.000015871319     0.000007584824
      19        0.000061337933     0.000029941324    -0.000002409268
      20        0.001514097322    -0.002729088387    -0.002911065899
      21       -0.000026014170    -0.000029934653    -0.000028887162
      22        0.000008802756     0.000005128092    -0.000002533484
      23        0.000029681684    -0.000004466585    -0.000043691913
      24        0.000006510658    -0.000002304932    -0.000042943308

  **** Optimization is complete! (in 4 steps) ****
    Final optimized geometry and variables:
    Molecular point group: c1

    Geometry (in Angstrom), charge = 0, multiplicity = 1:

    H           -3.501845899406     1.469015136020    -0.897474489646
    O           -3.529476259748     0.530836775913    -0.845176567654
    C           -3.252782525806     0.118407829468     0.467293219099
    C           -1.838481366091     0.451153017421     0.918200399774
    H           -3.404279255424    -0.953547770631     0.478441832404
    H           -3.970616440882     0.552838034367     1.158509888125
    C           -0.750754523129    -0.235851539624     0.097733525486
    H           -1.700352059609     1.530677524316     0.880631732466
    H           -1.742731268683     0.169842272071     1.964175793134
    C            0.661194981021     0.134176423083     0.542056858490
    H           -0.880230961872     0.015075270080    -0.949287668074
    H           -0.880018575368    -1.313079698018     0.170951450923
    C            1.752381385847    -0.542411863300    -0.280371650161
    H            0.786619050165     1.212739190916     0.480677828897
    H            0.791261344838    -0.125997977876     1.590428499029
    C            3.175715167155    -0.227029334267     0.193857851941
    H            1.650065325053    -0.281342076848    -1.330450596665
    H            1.605178530212    -1.619462795038    -0.246940319107
    C            4.213431667375    -0.351973735744    -0.919497624398
    H            3.450495362519    -0.917623247879     0.985271410108
    H            3.217273496635     0.773962510607     0.611518159992
    H            4.198376181523    -1.345183827917    -1.356765285725
    H            5.215461083796    -0.171051008291    -0.547059392514
    H            4.021260248523     0.359833871108    -1.715367379964

  Mulliken Charges: (a.u.)
   Center  Symbol    Alpha    Beta     Spin     Total
       1     H     0.39530  0.39530  0.00000  0.20939
       2     O     4.20368  4.20368  0.00000 -0.40737
       3     C     2.97766  2.97766  0.00000  0.04468
       4     C     3.10231  3.10231  0.00000 -0.20462
       5     H     0.45889  0.45889  0.00000  0.08221
       6     H     0.46029  0.46029  0.00000  0.07942
       7     C     3.08824  3.08824  0.00000 -0.17649
       8     H     0.45909  0.45909  0.00000  0.08182
       9     H     0.45329  0.45329  0.00000  0.09343
      10     C     3.08850  3.08850  0.00000 -0.17701
      11     H     0.44624  0.44624  0.00000  0.10753
      12     H     0.45523  0.45523  0.00000  0.08954
      13     C     3.08896  3.08896  0.00000 -0.17792
      14     H     0.45539  0.45539  0.00000  0.08922
      15     H     0.45521  0.45521  0.00000  0.08959
      16     C     3.08470  3.08470  0.00000 -0.16940
      17     H     0.45438  0.45438  0.00000  0.09124
      18     H     0.45431  0.45431  0.00000  0.09138
      19     C     3.14930  3.14930  0.00000 -0.29860
      20     H     0.45366  0.45366  0.00000  0.09267
      21     H     0.45544  0.45544  0.00000  0.08913
      22     H     0.45462  0.45462  0.00000  0.09076
      23     H     0.44957  0.44957  0.00000  0.10087
      24     H     0.45573  0.45573  0.00000  0.08855

   Total alpha = 33.00000, Total beta = 33.00000, Total charge = -0.00000
