                              Psi4 1.0.54 Driver

  ==> Input File <==

--------------------------------------------------------------------------
set {
	reference rhf
	basis cc-pvtz
}

set_num_threads( 4 )
memory 2 gb

molecule MOL {
0 1

H	 1.912634	 2.047862	 -0.789422
O	 1.000247	 1.954195	 -0.588370
C	 0.700177	 0.619554	 -0.266242
C	 -0.713111	 0.588314	 0.266177
H	 1.381696	 0.245984	 0.491982
H	 0.773598	 -0.017579	 -1.143765
O	 -1.421673	 -0.521378	 -0.196983
H	 -1.244794	 1.469161	 -0.069059
H	 -0.685100	 0.604721	 1.352683
H	 -0.933408	 -1.297830	 0.014544

	symmetry c1
}
set optking {
	frozen_dihedral = ("
		5 3 4 7
	")
}

ee,wfn = optimize('scf', return_wfn=True)
oeprop( wfn, 'DIPOLE', 'QUADRUPOLE', 'MULLIKEN_CHARGES')
f=open( 'psi4out.xyz', 'w' )
f.write( "10  " )
f.write( str(ee) + "\n" )
f.write( MOL.save_string_xyz() )
f.close()
--------------------------------------------------------------------------

    Molecular point group: c1
  Charge       = 0
  Multiplicity = 1
  Basis Set: CC-PVTZ
  Basis Set:
  @DF-RHF Final Energy:  -229.01938656316074
    Total Energy =                       -229.0193865631605945
    Molecular point group: c1
  Basis Set: CC-PVTZ
  Basis Set:
  Basis Set: CC-PVTZ
  Basis Set:
  @DF-RHF Final Energy:  -229.02045020018087
    Total Energy =                       -229.0204502001809885
  Basis Set: CC-PVTZ
  Basis Set:
  Basis Set: CC-PVTZ
  Basis Set:
  @DF-RHF Final Energy:  -229.02072117698853
    Total Energy =                       -229.0207211769886158
  Basis Set: CC-PVTZ
  Basis Set:
  Basis Set: CC-PVTZ
  Basis Set:
  @DF-RHF Final Energy:  -229.02080574290977
    Total Energy =                       -229.0208057429097721
  Basis Set: CC-PVTZ
  Basis Set:
  Basis Set: CC-PVTZ
  Basis Set:
  @DF-RHF Final Energy:  -229.02084131002289
    Total Energy =                       -229.0208413100229166
  Basis Set: CC-PVTZ
  Basis Set:
  Basis Set: CC-PVTZ
  Basis Set:
  @DF-RHF Final Energy:  -229.02084437245784
    Total Energy =                       -229.0208443724577592
  Basis Set: CC-PVTZ
  Basis Set:
  Charge       = 0
  Multiplicity = 1
  Basis Set: CC-PVTZ
  Basis Set:

    Orbital Energies (a.u.)
    -----------------------

    Doubly Occupied:

       1A    -20.552616     2A    -20.551667     3A    -11.270211
       4A    -11.267117     5A     -1.376117     6A     -1.363069
       7A     -0.997167     8A     -0.847371     9A     -0.712193
      10A     -0.706179    11A     -0.635505    12A     -0.601945
      13A     -0.585718    14A     -0.529688    15A     -0.490724
      16A     -0.445397    17A     -0.442193

  @DF-RHF Final Energy:  -229.02084445551489

   => Energetics <=

    Nuclear Repulsion Energy =            131.2686012881165141
    One-Electron Energy =                -573.8291371134497467
    Two-Electron Energy =                 213.5396913698182857
    DFT Exchange-Correlation Energy =       0.0000000000000000
    Empirical Dispersion Energy =           0.0000000000000000
    PCM Polarization Energy =               0.0000000000000000
    EFP Energy =                            0.0000000000000000
    Total Energy =                       -229.0208444555149185
    Molecular point group: c1
  Basis Set: CC-PVTZ
  Basis Set:

  -Total Gradient:
     Atom            X                  Y                   Z
    ------   -----------------  -----------------  -----------------
       1        0.000004659143    -0.000000176535    -0.000000432599
       2        0.000001420666     0.000017838569    -0.000004517229
       3       -0.001127367218    -0.004904400176    -0.003278582011
       4        0.001683182217    -0.001647186765     0.004482825131
       5        0.000571079444     0.004473965862     0.001780366332
       6       -0.000002541379     0.000011822042     0.000000220208
       7       -0.001139785249     0.002040908420    -0.002973187649
       8        0.000008330989     0.000012519088     0.000004592474
       9        0.000007877362     0.000000912250    -0.000002186833
      10       -0.000006855973    -0.000006202753    -0.000009097824

  **** Optimization is complete! (in 7 steps) ****
    Final optimized geometry and variables:
    Molecular point group: c1

    Geometry (in Angstrom), charge = 0, multiplicity = 1:

    H            2.033762563337     1.371962742079    -0.588428125674
    O            1.129034638838     1.300430696645    -0.346638005416
    C            0.805558654326    -0.038721734392    -0.071981306892
    C           -0.626521894558    -0.068459764518     0.457063055246
    H            1.500738219454    -0.423414446531     0.670420757513
    H            0.859297395182    -0.647498282528    -0.967510980520
    O           -1.358404473599    -1.165838667775    -0.016835839436
    H           -1.126901296795     0.813074310606     0.085101026297
    H           -0.642708084501    -0.025460383682     1.541106788688
    H           -1.115683096091    -1.948545363564     0.442801811100

  Mulliken Charges: (a.u.)
   Center  Symbol    Alpha    Beta     Spin     Total
       1     H     0.39361  0.39361  0.00000  0.21279
       2     O     4.19848  4.19848  0.00000 -0.39695
       3     C     2.96999  2.96999  0.00000  0.06002
       4     C     2.97463  2.97463  0.00000  0.05074
       5     H     0.47896  0.47896  0.00000  0.04209
       6     H     0.46973  0.46973  0.00000  0.06054
       7     O     4.19941  4.19941  0.00000 -0.39882
       8     H     0.45122  0.45122  0.00000  0.09757
       9     H     0.46851  0.46851  0.00000  0.06299
      10     H     0.39548  0.39548  0.00000  0.20904

   Total alpha = 17.00000, Total beta = 17.00000, Total charge = -0.00000

*** Psi4 exiting successfully. Buy a developer a beer!
