  ==> Input File <==

--------------------------------------------------------------------------
set {
	reference rhf
	basis 6-31G*
}

set_num_threads( 1 )
memory 2 gb

molecule MOL {
0 1

H	 2.417044	 -1.869900	 -0.361916
O	 2.826016	 -1.159218	 0.122261
C	 2.077727	 -0.067559	 -0.035091
C	 0.624473	 -0.343591	 0.253101
O	 2.542965	 0.974826	 -0.363729
C	 -0.265902	 0.883932	 0.072916
H	 0.324016	 -1.163849	 -0.390541
H	 0.565024	 -0.726111	 1.268924
C	 -1.728698	 0.646073	 0.462102
H	 -0.209144	 1.219470	 -0.958188
H	 0.135059	 1.692851	 0.673903
C	 -2.482460	 -0.343073	 -0.431425
H	 -2.245265	 1.602650	 0.432430
H	 -1.779332	 0.308348	 1.496285
C	 -3.960546	 -0.461025	 -0.060175
H	 -2.395034	 -0.026811	 -1.468912
H	 -2.024850	 -1.327147	 -0.371646
H	 -4.472726	 -1.168004	 -0.705284
H	 -4.465146	 0.496508	 -0.151489
H	 -4.081218	 -0.800940	 0.964585

	symmetry c1
}
set optking {
	frozen_dihedral = ("
		16 12 9 6,
		7 4 6 10,
		12 9 6 10,
		5 3 4 7
	")
}

ee = energy('scf')
oeprop('DIPOLE', 'QUADRUPOLE', 'MULLIKEN_CHARGES')
f=open( 'psi4out.xyz', 'w' )
f.write( "20  " )
f.write( str(ee) + "\n" )
f.write( MOL.save_string_xyz() )
f.close()
--------------------------------------------------------------------------

    Molecular point group: c1

    Geometry (in Angstrom), charge = 0, multiplicity = 1:

       Center              X                  Y                   Z               Mass
    ------------   -----------------  -----------------  -----------------  -----------------
           H          2.428438481818    -1.861725035924    -0.359386595156     1.007825032070
           O          2.837410481818    -1.151043035924     0.124790404844    15.994914619560
           C          2.089121481818    -0.059384035924    -0.032561595156    12.000000000000
           C          0.635867481818    -0.335416035924     0.255630404844    12.000000000000
           O          2.554359481818     0.983000964076    -0.361199595156    15.994914619560
           C         -0.254507518182     0.892106964076     0.075445404844    12.000000000000
           H          0.335410481818    -1.155674035924    -0.388011595156     1.007825032070
           H          0.576418481818    -0.717936035924     1.271453404844     1.007825032070
           C         -1.717303518182     0.654247964076     0.464631404844    12.000000000000
           H         -0.197749518182     1.227644964076    -0.955658595156     1.007825032070
           H          0.146453481818     1.701025964076     0.676432404844     1.007825032070
           C         -2.471065518182    -0.334898035924    -0.428895595156    12.000000000000
           H         -2.233870518182     1.610824964076     0.434959404844     1.007825032070
           H         -1.767937518182     0.316522964076     1.498814404844     1.007825032070
           C         -3.949151518182    -0.452850035924    -0.057645595156    12.000000000000
           H         -2.383639518182    -0.018636035924    -1.466382595156     1.007825032070
           H         -2.013455518182    -1.318972035924    -0.369116595156     1.007825032070
           H         -4.461331518182    -1.159829035924    -0.702754595156     1.007825032070
           H         -4.453751518182     0.504682964076    -0.148959595156     1.007825032070
           H         -4.069823518182    -0.792765035924     0.967114404844     1.007825032070

  Charge       = 0
  Multiplicity = 1
  Basis Set: 6-31G*
  Basis Set:

    Orbital Energies (a.u.)
    -----------------------

    Doubly Occupied:

       1A    -20.605914     2A    -20.555691     3A    -11.380297
       4A    -11.247626     5A    -11.227220     6A    -11.225358
       7A    -11.224161     8A    -11.216288     9A     -1.469184
      10A     -1.370554    11A     -1.100616    12A     -1.044205
      13A     -0.961219    14A     -0.866065    15A     -0.825565
      16A     -0.790791    17A     -0.719314    18A     -0.674361
      19A     -0.663504    20A     -0.638945    21A     -0.616933
      22A     -0.590463    23A     -0.570984    24A     -0.563920
      25A     -0.534058    26A     -0.517528    27A     -0.498012
      28A     -0.488489    29A     -0.474051    30A     -0.468018
      31A     -0.461956    32A     -0.441815

  @DF-RHF Final Energy:  -383.92919321491985

   => Energetics <=

    Nuclear Repulsion Energy =            376.4482679429220866
    One-Electron Energy =               -1268.6886816911753613
    Two-Electron Energy =                 508.3112205333326870
    DFT Exchange-Correlation Energy =       0.0000000000000000
    Empirical Dispersion Energy =           0.0000000000000000
    PCM Polarization Energy =               0.0000000000000000
    EFP Energy =                            0.0000000000000000
    Total Energy =                       -383.9291932149206446

  Mulliken Charges: (a.u.)
   Center  Symbol    Alpha    Beta     Spin     Total
       1     H     0.26878  0.26878  0.00000  0.46244
       2     O     4.35201  4.35201  0.00000 -0.70402
       3     C     2.61988  2.61988  0.00000  0.76024
       4     C     3.22444  3.22444  0.00000 -0.44888
       5     O     4.25840  4.25840  0.00000 -0.51680
       6     C     3.15437  3.15437  0.00000 -0.30874
       7     H     0.41316  0.41316  0.00000  0.17368
       8     H     0.39646  0.39646  0.00000  0.20708
       9     C     3.15592  3.15592  0.00000 -0.31184
      10     H     0.41192  0.41192  0.00000  0.17616
      11     H     0.40503  0.40503  0.00000  0.18995
      12     C     3.15457  3.15457  0.00000 -0.30913
      13     H     0.41686  0.41686  0.00000  0.16628
      14     H     0.42338  0.42338  0.00000  0.15325
      15     C     3.23923  3.23923  0.00000 -0.47847
      16     H     0.42124  0.42124  0.00000  0.15752
      17     H     0.42547  0.42547  0.00000  0.14906
      18     H     0.41823  0.41823  0.00000  0.16355
      19     H     0.41968  0.41968  0.00000  0.16063
      20     H     0.42098  0.42098  0.00000  0.15805

   Total alpha = 32.00000, Total beta = 32.00000, Total charge = -0.00000
