                              Psi4 1.0.54 Driver

  ==> Input File <==

--------------------------------------------------------------------------
set {
	reference rhf
	basis cc-pvtz
}

set_num_threads( 4 )
memory 2 gb

molecule MOL {
0 1

O	 -2.440701	 -0.934798	 -0.415053
C	 -1.922978	 0.063265	 -0.045005
C	 -2.632749	 1.372204	 0.158357
O	 -0.637375	 0.157174	 0.243149
H	 -2.187724	 2.129143	 -0.474664
H	 -3.677681	 1.257276	 -0.079438
H	 -2.516788	 1.693160	 1.185542
C	 0.162530	 -1.009518	 0.097799
C	 1.587210	 -0.664190	 0.477086
H	 0.096803	 -1.356267	 -0.924704
H	 -0.233803	 -1.785900	 0.736810
C	 2.372583	 0.047972	 -0.620994
H	 2.086713	 -1.593548	 0.736943
H	 1.573970	 -0.055628	 1.376149
C	 3.809811	 0.353233	 -0.212573
H	 2.374755	 -0.569666	 -1.515208
H	 1.867099	 0.969879	 -0.884464
H	 4.344967	 0.854370	 -1.010605
H	 4.351666	 -0.555256	 0.029157
H	 3.839899	 0.996865	 0.660267

	symmetry c1
}
set optking {
	frozen_dihedral = ("
		12 9 8 10
	")
}

ee,wfn = optimize('scf', return_wfn=True)
oeprop( wfn, 'DIPOLE', 'QUADRUPOLE', 'MULLIKEN_CHARGES')
f=open( 'psi4out.xyz', 'w' )
f.write( "20  " )
f.write( str(ee) + "\n" )
f.write( MOL.save_string_xyz() )
f.close()
--------------------------------------------------------------------------

    Molecular point group: c1
  Charge       = 0
  Multiplicity = 1
  Basis Set: CC-PVTZ
  Basis Set:
  @DF-RHF Final Energy:  -384.08655802013999
    Total Energy =                       -384.0865580201400462
    Molecular point group: c1
  Basis Set: CC-PVTZ
  Basis Set:
  Basis Set: CC-PVTZ
  Basis Set:
  @DF-RHF Final Energy:  -384.08665792566819
    Total Energy =                       -384.0866579256678506
  Basis Set: CC-PVTZ
  Basis Set:
  Basis Set: CC-PVTZ
  Basis Set:
  @DF-RHF Final Energy:  -384.08666528377194
    Total Energy =                       -384.0866652837721631
  Basis Set: CC-PVTZ
  Basis Set:
  Basis Set: CC-PVTZ
  Basis Set:
  @DF-RHF Final Energy:  -384.08670905377312
    Total Energy =                       -384.0867090537732338
  Basis Set: CC-PVTZ
  Basis Set:
  Basis Set: CC-PVTZ
  Basis Set:
  @DF-RHF Final Energy:  -384.08671567150890
    Total Energy =                       -384.0867156715090687
  Basis Set: CC-PVTZ
  Basis Set:
  Charge       = 0
  Multiplicity = 1
  Basis Set: CC-PVTZ
  Basis Set:

    Orbital Energies (a.u.)
    -----------------------

    Doubly Occupied:

       1A    -20.593642     2A    -20.532120     3A    -11.366075
       4A    -11.280338     5A    -11.231327     6A    -11.223343
       7A    -11.220045     8A    -11.212076     9A     -1.470179
      10A     -1.364331    11A     -1.087415    12A     -1.029239
      13A     -0.981888    14A     -0.881539    15A     -0.809896
      16A     -0.779732    17A     -0.692010    18A     -0.685454
      19A     -0.669753    20A     -0.631874    21A     -0.603973
      22A     -0.593838    23A     -0.572561    24A     -0.552580
      25A     -0.545119    26A     -0.530690    27A     -0.514172
      28A     -0.482995    29A     -0.477928    30A     -0.475802
      31A     -0.451190    32A     -0.441245

  @DF-RHF Final Energy:  -384.08671595289746

   => Energetics <=

    Nuclear Repulsion Energy =            384.6868650460643835
    One-Electron Energy =               -1285.5784158871131240
    Two-Electron Energy =                 516.8048348881513903
    DFT Exchange-Correlation Energy =       0.0000000000000000
    Empirical Dispersion Energy =           0.0000000000000000
    PCM Polarization Energy =               0.0000000000000000
    EFP Energy =                            0.0000000000000000
    Total Energy =                       -384.0867159528972934
    Molecular point group: c1
  Basis Set: CC-PVTZ
  Basis Set:

  -Total Gradient:
     Atom            X                  Y                   Z
    ------   -----------------  -----------------  -----------------
       1       -0.000039251634    -0.000029648734    -0.000029013595
       2       -0.000005378238     0.000006130673     0.000040979535
       3        0.000009351943    -0.000012948009    -0.000018133737
       4        0.000110814994    -0.000042506155    -0.000015604038
       5        0.000015086504     0.000003520649    -0.000014109439
       6       -0.000031716008    -0.000002435461    -0.000009347572
       7        0.000004917346     0.000000707891     0.000025991515
       8        0.000920335259    -0.004814424900     0.000887086345
       9       -0.001165920350     0.003839333451     0.001006518188
      10       -0.000544140645     0.003170693210    -0.001003841536
      11       -0.000029703368     0.000005112551     0.000012939419
      12        0.000747243983    -0.002153442948    -0.000890592734
      13        0.000009564410     0.000002377539    -0.000011197050
      14        0.000003498420     0.000002616332     0.000023949638
      15       -0.000003330475     0.000017439109    -0.000000872172
      16       -0.000003469182    -0.000007068349    -0.000014553926
      17       -0.000014088997     0.000020726476     0.000002807286
      18        0.000003892348     0.000007400145    -0.000007954182
      19        0.000010670020    -0.000021669481     0.000002151867
      20        0.000001623669     0.000008086013     0.000012796188

  **** Optimization is complete! (in 6 steps) ****
    Final optimized geometry and variables:
    Molecular point group: c1

    Geometry (in Angstrom), charge = 0, multiplicity = 1:

    O           -2.465992520691    -0.848932960281    -0.378722839068
    C           -1.937103677490     0.140934043428    -0.001787237819
    C           -2.629639186765     1.459990873509     0.194288905822
    O           -0.653733424446     0.215017879063     0.299623345811
    H           -2.165606341508     2.210394880937    -0.432804609920
    H           -3.673390458625     1.360990642458    -0.055829853332
    H           -2.520814981635     1.778231492638     1.223083687516
    C            0.131416040418    -0.966149679579     0.159114895401
    C            1.562850936271    -0.617889452430     0.518447892231
    H            0.048744873290    -1.301048902750    -0.865533194350
    H           -0.271619099549    -1.730702359866     0.806814955567
    C            2.318148806126     0.110683435486    -0.589948931227
    H            2.081396416095    -1.544936960430     0.747341601092
    H            1.561309441629    -0.029118308723     1.429508637681
    C            3.745804485689     0.471248749675    -0.194640730308
    H            2.335802512535    -0.516940188748    -1.476379065932
    H            1.779278961239     1.012794876745    -0.861253437822
    H            4.260042094282     0.976702768050    -1.003605073437
    H            4.318431542915    -0.415005076173     0.058605668954
    H            3.758365017700     1.129306513060     0.667683312943

  Mulliken Charges: (a.u.)
   Center  Symbol    Alpha    Beta     Spin     Total
       1     O     4.19762  4.19762  0.00000 -0.39525
       2     C     2.80955  2.80955  0.00000  0.38091
       3     C     3.13816  3.13816  0.00000 -0.27631
       4     O     4.15474  4.15474  0.00000 -0.30948
       5     H     0.44621  0.44621  0.00000  0.10759
       6     H     0.43803  0.43803  0.00000  0.12394
       7     H     0.44576  0.44576  0.00000  0.10847
       8     C     2.99024  2.99024  0.00000  0.01951
       9     C     3.08377  3.08377  0.00000 -0.16754
      10     H     0.45243  0.45243  0.00000  0.09515
      11     H     0.44429  0.44429  0.00000  0.11143
      12     C     3.08623  3.08623  0.00000 -0.17246
      13     H     0.45166  0.45166  0.00000  0.09668
      14     H     0.45086  0.45086  0.00000  0.09829
      15     C     3.15032  3.15032  0.00000 -0.30064
      16     H     0.45379  0.45379  0.00000  0.09242
      17     H     0.44981  0.44981  0.00000  0.10038
      18     H     0.44729  0.44729  0.00000  0.10541
      19     H     0.45529  0.45529  0.00000  0.08943
      20     H     0.45396  0.45396  0.00000  0.09208

   Total alpha = 32.00000, Total beta = 32.00000, Total charge =  0.00000

*** Psi4 exiting successfully. Buy a developer a beer!
