  ==> Input File <==

--------------------------------------------------------------------------
set {
	reference rhf
	basis 6-31G*
}

set_num_threads( 4 )
memory 2 gb

molecule MOL {
0 1

O	 -2.042549	 -1.228399	 -0.269030
C	 -1.653912	 -0.146171	 0.050137
C	 -0.332303	 0.024011	 0.778412
C	 -2.438579	 1.106236	 -0.272369
C	 0.845713	 -0.001731	 -0.208243
H	 -0.323783	 0.953829	 1.340327
H	 -0.235459	 -0.796807	 1.480410
C	 2.200309	 0.136118	 0.488247
H	 0.733710	 0.800019	 -0.936072
H	 0.811185	 -0.933796	 -0.764304
C	 2.090551	 0.077859	 2.011325
H	 2.866342	 -0.651624	 0.142867
H	 2.659624	 1.076924	 0.194167
H	 1.665397	 -0.866680	 2.338651
H	 1.456144	 0.874347	 2.388920
H	 3.064960	 0.181146	 2.478107
H	 -3.277823	 0.863061	 -0.908988
H	 -1.806773	 1.843019	 -0.759671
H	 -2.802853	 1.554979	 0.648059

	symmetry c1
}
set optking {
	frozen_dihedral = ("
		11 8 5 9
	")
}

ee = optimize('scf')
oeprop('DIPOLE', 'QUADRUPOLE', 'MULLIKEN_CHARGES')
f=open( 'psi4out.xyz', 'w' )
f.write( "19  " )
f.write( str(ee) + "\n" )
f.write( MOL.save_string_xyz() )
f.close()
--------------------------------------------------------------------------

    Molecular point group: c1
  Charge       = 0
  Multiplicity = 1
  Basis Set: 6-31G*
  Basis Set:
  @DF-RHF Final Energy:  -309.05121386089041
    Total Energy =                       -309.0512138608904706
    Molecular point group: c1
  Basis Set: 6-31G*
  Basis Set:
  Basis Set: 6-31G*
  Basis Set:
  @DF-RHF Final Energy:  -309.05112178995972
    Total Energy =                       -309.0511217899599501
  Basis Set: 6-31G*
  Basis Set:
  Basis Set: 6-31G*
  Basis Set:
  @DF-RHF Final Energy:  -309.05500239460838
    Total Energy =                       -309.0550023946084366
  Basis Set: 6-31G*
  Basis Set:
  Basis Set: 6-31G*
  Basis Set:
  @DF-RHF Final Energy:  -309.05517661761411
    Total Energy =                       -309.0551766176141086
  Basis Set: 6-31G*
  Basis Set:
  @DF-RHF Final Energy:  -309.05356962029293
    Total Energy =                       -309.0535696202929330
  @DF-RHF Final Energy:  -309.05565115891028
    Total Energy =                       -309.0556511589101660
  @DF-RHF Final Energy:  -309.05532347170498
    Total Energy =                       -309.0553234717048099
  Basis Set: 6-31G*
  Basis Set:
  @DF-RHF Final Energy:  -309.05564911453752
    Total Energy =                       -309.0556491145376867
  Basis Set: 6-31G*
  Basis Set:
  Basis Set: 6-31G*
  Basis Set:
  @DF-RHF Final Energy:  -309.05565520778214
    Total Energy =                       -309.0556552077822516
  Basis Set: 6-31G*
  Basis Set:
  Basis Set: 6-31G*
  Basis Set:
  @DF-RHF Final Energy:  -309.05565698738701
    Total Energy =                       -309.0556569873870103
  Basis Set: 6-31G*
  Basis Set:
  Charge       = 0
  Multiplicity = 1
  Basis Set: 6-31G*
  Basis Set:

    Orbital Energies (a.u.)
    -----------------------

    Doubly Occupied:

       1A    -20.547296     2A    -11.324374     3A    -11.230797
       4A    -11.228822     5A    -11.228276     6A    -11.225185
       7A    -11.215905     8A     -1.393104     9A     -1.087115
      10A     -1.026505    11A     -0.981316    12A     -0.902592
      13A     -0.795062    14A     -0.732988    15A     -0.662167
      16A     -0.650722    17A     -0.621059    18A     -0.603853
      19A     -0.585465    20A     -0.571448    21A     -0.551871
      22A     -0.543927    23A     -0.523051    24A     -0.501366
      25A     -0.479868    26A     -0.465693    27A     -0.458221
      28A     -0.397324

  @DF-RHF Final Energy:  -309.05565725111768

   => Energetics <=

    Nuclear Repulsion Energy =            304.7637388600435884
    One-Electron Energy =               -1022.5680443253295380
    Two-Electron Energy =                 408.7486482141680995
    DFT Exchange-Correlation Energy =       0.0000000000000000
    Empirical Dispersion Energy =           0.0000000000000000
    PCM Polarization Energy =               0.0000000000000000
    EFP Energy =                            0.0000000000000000
    Total Energy =                       -309.0556572511179070
    Molecular point group: c1
  Basis Set: 6-31G*
  Basis Set:

  -Total Gradient:
     Atom            X                  Y                   Z
    ------   -----------------  -----------------  -----------------
       1       -0.000017395931    -0.000002206767     0.000020813912
       2        0.000030245454     0.000002464511    -0.000020781923
       3       -0.000032987454    -0.000017805895     0.000023361720
       4        0.000011494490     0.000011912658    -0.000012005033
       5        0.001244879426    -0.000983760885    -0.002373715985
       6       -0.000012105967    -0.000004103917    -0.000004983778
       7        0.000007059949     0.000009213726    -0.000007786570
       8        0.000102554922    -0.002642733453     0.000303598739
       9       -0.001099511126     0.001570483496     0.001968182515
      10        0.000007161330    -0.000008701695    -0.000004106599
      11       -0.000231875514     0.002070963869     0.000087596454
      12        0.000008749434    -0.000002936391     0.000004843288
      13       -0.000004636173     0.000006808114     0.000003176349
      14       -0.000010843220     0.000004603730    -0.000003839773
      15        0.000015695044    -0.000004651838     0.000001442568
      16       -0.000000016390    -0.000006544183     0.000004475426
      17       -0.000004289764     0.000001380356     0.000001698180
      18       -0.000008548586     0.000001451128     0.000005727469
      19       -0.000005629924    -0.000005836562     0.000002303041

  **** Optimization is complete! (in 11 steps) ****
    Final optimized geometry and variables:
    Molecular point group: c1

    Geometry (in Angstrom), charge = 0, multiplicity = 1:

    O           -1.856473138442    -1.215236175308    -0.734642707605
    C           -1.494275440523    -0.138044483743    -0.370246026990
    C           -0.214359770987     0.024004562107     0.431673163611
    C           -2.273790560648     1.115277786200    -0.701892026019
    C            1.002251163468    -0.003072101648    -0.513129854311
    H           -0.239754494144     0.951420232466     0.994764487614
    H           -0.166506247186    -0.799104649023     1.133712920801
    C            2.395993912129     0.132339847993     0.160088144382
    H            0.882743233622     0.807738106830    -1.226791381556
    H            0.953977535656    -0.926063283122    -1.078980073604
    C            2.442980267468     0.074608348980     1.689360864320
    H            3.046439689429    -0.641988404620    -0.234076819335
    H            2.840753851938     1.074046608835    -0.148335909762
    H            2.064267005617    -0.866726653873     2.074442262093
    H            1.871726270900     0.876076991224     2.145333020961
    H            3.469365603436     0.174229970816     2.028277954051
    H           -3.075349411345     0.881430533054    -1.388609174945
    H           -1.624963158717     1.870851102670    -1.135031851113
    H           -2.691532010872     1.535683957310     0.209189929475

  Mulliken Charges: (a.u.)
   Center  Symbol    Alpha    Beta     Spin     Total
       1     O     4.26242  4.26242  0.00000 -0.52484
       2     C     2.73711  2.73711  0.00000  0.52578
       3     C     3.20172  3.20172  0.00000 -0.40345
       4     C     3.28951  3.28951  0.00000 -0.57903
       5     C     3.16667  3.16667  0.00000 -0.33334
       6     H     0.41650  0.41650  0.00000  0.16700
       7     H     0.39984  0.39984  0.00000  0.20032
       8     C     3.15542  3.15542  0.00000 -0.31084
       9     H     0.41886  0.41886  0.00000  0.16229
      10     H     0.40326  0.40326  0.00000  0.19348
      11     C     3.24387  3.24387  0.00000 -0.48773
      12     H     0.41565  0.41565  0.00000  0.16870
      13     H     0.41936  0.41936  0.00000  0.16128
      14     H     0.41856  0.41856  0.00000  0.16289
      15     H     0.42109  0.42109  0.00000  0.15782
      16     H     0.41639  0.41639  0.00000  0.16721
      17     H     0.39702  0.39702  0.00000  0.20595
      18     H     0.41000  0.41000  0.00000  0.18001
      19     H     0.40675  0.40675  0.00000  0.18651

   Total alpha = 28.00000, Total beta = 28.00000, Total charge =  0.00000
