                              Psi4 1.0.54 Driver

  ==> Input File <==

--------------------------------------------------------------------------
set {
	reference rhf
	basis cc-pvtz
}

set_num_threads( 4 )
memory 2 gb

molecule MOL {
0 1

H	 -2.445658	 0.112595	 0.935950
O	 -2.041679	 -0.058866	 0.103463
C	 -0.959304	 0.780994	 -0.094939
C	 0.354905	 0.037902	 -0.006215
H	 -0.985899	 1.279578	 -1.057596
H	 -0.969809	 1.529522	 0.682889
F	 0.412060	 -0.931028	 -0.902708
F	 1.359641	 0.856111	 -0.239961
F	 0.545380	 -0.506387	 1.171682

	symmetry c1
}
set optking {
	frozen_dihedral = ("
		1 2 3 5
	")
}

ee,wfn = optimize('scf', return_wfn=True)
oeprop( wfn, 'DIPOLE', 'QUADRUPOLE', 'MULLIKEN_CHARGES')
f=open( 'psi4out.xyz', 'w' )
f.write( "9  " )
f.write( str(ee) + "\n" )
f.write( MOL.save_string_xyz() )
f.close()
--------------------------------------------------------------------------

    Molecular point group: c1
  Charge       = 0
  Multiplicity = 1
  Basis Set: CC-PVTZ
  Basis Set:
  @DF-RHF Final Energy:  -450.84390480387231
    Total Energy =                       -450.8439048038725332
    Molecular point group: c1
  Basis Set: CC-PVTZ
  Basis Set:
  Basis Set: CC-PVTZ
  Basis Set:
  @DF-RHF Final Energy:  -450.82664901678163
    Total Energy =                       -450.8266490167816301
  Basis Set: CC-PVTZ
  Basis Set:
  Basis Set: CC-PVTZ
  Basis Set:
  @DF-RHF Final Energy:  -450.84507996864113
    Total Energy =                       -450.8450799686412438
  Basis Set: CC-PVTZ
  Basis Set:
  Basis Set: CC-PVTZ
  Basis Set:
  @DF-RHF Final Energy:  -450.84528717220678
    Total Energy =                       -450.8452871722067243
  Basis Set: CC-PVTZ
  Basis Set:
  Basis Set: CC-PVTZ
  Basis Set:
  @DF-RHF Final Energy:  -450.84529692998149
    Total Energy =                       -450.8452969299816004
  Basis Set: CC-PVTZ
  Basis Set:
  Charge       = 0
  Multiplicity = 1
  Basis Set: CC-PVTZ
  Basis Set:

    Orbital Energies (a.u.)
    -----------------------

    Doubly Occupied:

       1A    -26.334846     2A    -26.332957     3A    -26.330984
       4A    -20.582877     5A    -11.489618     6A    -11.310249
       7A     -1.742825     8A     -1.639483     9A     -1.637946
      10A     -1.406211    11A     -1.049975    12A     -0.925547
      13A     -0.833513    14A     -0.832144    15A     -0.797202
      16A     -0.741283    17A     -0.714114    18A     -0.704283
      19A     -0.669243    20A     -0.659759    21A     -0.643985
      22A     -0.636719    23A     -0.603870    24A     -0.535666
      25A     -0.483653

  @DF-RHF Final Energy:  -450.84529899401662

   => Energetics <=

    Nuclear Repulsion Energy =            277.4458666022945863
    One-Electron Energy =               -1177.3044261963432291
    Two-Electron Energy =                 449.0132606000321971
    DFT Exchange-Correlation Energy =       0.0000000000000000
    Empirical Dispersion Energy =           0.0000000000000000
    PCM Polarization Energy =               0.0000000000000000
    EFP Energy =                            0.0000000000000000
    Total Energy =                       -450.8452989940164457
    Molecular point group: c1
  Basis Set: CC-PVTZ
  Basis Set:

  -Total Gradient:
     Atom            X                  Y                   Z
    ------   -----------------  -----------------  -----------------
       1       -0.001308441618     0.001356647571    -0.000199292475
       2        0.001464440264    -0.001364678534     0.000561055367
       3        0.000718387317    -0.000921466202    -0.001464509154
       4        0.000122570115    -0.000009226160     0.000245805861
       5       -0.000786113368     0.000906461151     0.001094948254
       6       -0.000056649226    -0.000021856950     0.000034735300
       7       -0.000035734618    -0.000094214737    -0.000144768229
       8        0.000008820421     0.000067044113    -0.000032550079
       9       -0.000127279291     0.000081289751    -0.000095424848

  **** Optimization is complete! (in 6 steps) ****
    Final optimized geometry and variables:
    Molecular point group: c1

    Geometry (in Angstrom), charge = 0, multiplicity = 1:

    H           -2.267776252701    -0.353253093005     1.245148991865
    O           -1.980959266547    -0.247530179263     0.358001273041
    C           -0.978546933350     0.707420780470     0.270710046559
    C            0.343067702605     0.059691341008    -0.072671163729
    H           -1.216678321673     1.421203761217    -0.506211647186
    H           -0.836665078697     1.251420841199     1.196315052095
    F            0.295621737032    -0.591435751040    -1.210644771845
    F            1.280436764392     0.982226388694    -0.176658267761
    F            0.722342955808    -0.789963239219     0.858150032363

  Mulliken Charges: (a.u.)
   Center  Symbol    Alpha    Beta     Spin     Total
       1     H     0.38554  0.38554  0.00000  0.22891
       2     O     4.19211  4.19211  0.00000 -0.38422
       3     C     2.99301  2.99301  0.00000  0.01398
       4     C     2.67775  2.67775  0.00000  0.64451
       5     H     0.45363  0.45363  0.00000  0.09274
       6     H     0.46215  0.46215  0.00000  0.07569
       7     F     4.60786  4.60786  0.00000 -0.21572
       8     F     4.61445  4.61445  0.00000 -0.22891
       9     F     4.61349  4.61349  0.00000 -0.22698

   Total alpha = 25.00000, Total beta = 25.00000, Total charge =  0.00000

*** Psi4 exiting successfully. Buy a developer a beer!
