  ==> Input File <==

--------------------------------------------------------------------------
set {
	reference rhf
	basis 6-31G*
}

set_num_threads( 1 )
memory 2 gb

molecule MOL {
0 1

H	 2.230844	 -1.300108	 -0.131591
O	 1.654024	 -0.625927	 -0.460906
C	 1.135793	 0.118896	 0.612333
C	 0.031547	 1.023609	 0.088541
H	 1.915668	 0.729681	 1.063582
H	 0.754543	 -0.542641	 1.387006
C	 -1.134819	 0.293262	 -0.585751
H	 0.474374	 1.714721	 -0.623187
H	 -0.338529	 1.620940	 0.920081
C	 -1.917817	 -0.639439	 0.339494
H	 -0.758119	 -0.268455	 -1.433105
H	 -1.813832	 1.041889	 -0.986690
H	 -2.777680	 -1.057197	 -0.174994
H	 -1.310268	 -1.471279	 0.680599
H	 -2.283753	 -0.111424	 1.216626

	symmetry c1
}
set optking {
	frozen_dihedral = ("
		8 4 7 11,
		2 3 4 8
	")
}

ee = energy('scf')
oeprop('DIPOLE', 'QUADRUPOLE', 'MULLIKEN_CHARGES')
f=open( 'psi4out.xyz', 'w' )
f.write( "15  " )
f.write( str(ee) + "\n" )
f.write( MOL.save_string_xyz() )
f.close()
--------------------------------------------------------------------------

    Molecular point group: c1

    Geometry (in Angstrom), charge = 0, multiplicity = 1:

       Center              X                  Y                   Z               Mass
    ------------   -----------------  -----------------  -----------------  -----------------
           H          2.232260191695    -1.298801194520    -0.131814965760     1.007825032070
           O          1.655440191695    -0.624620194520    -0.461129965760    15.994914619560
           C          1.137209191695     0.120202805480     0.612109034240    12.000000000000
           C          0.032963191695     1.024915805480     0.088317034240    12.000000000000
           H          1.917084191695     0.730987805480     1.063358034240     1.007825032070
           H          0.755959191695    -0.541334194520     1.386782034240     1.007825032070
           C         -1.133402808305     0.294568805480    -0.585974965760    12.000000000000
           H          0.475790191695     1.716027805480    -0.623410965760     1.007825032070
           H         -0.337112808305     1.622246805480     0.919857034240     1.007825032070
           C         -1.916400808305    -0.638132194520     0.339270034240    12.000000000000
           H         -0.756702808305    -0.267148194520    -1.433328965760     1.007825032070
           H         -1.812415808305     1.043195805480    -0.986913965760     1.007825032070
           H         -2.776263808305    -1.055890194520    -0.175217965760     1.007825032070
           H         -1.308851808305    -1.469972194520     0.680375034240     1.007825032070
           H         -2.282336808305    -0.110117194520     1.216402034240     1.007825032070

  Charge       = 0
  Multiplicity = 1
  Basis Set: 6-31G*
  Basis Set:

    Orbital Energies (a.u.)
    -----------------------

    Doubly Occupied:

       1A    -20.553493     2A    -11.267502     3A    -11.212349
       4A    -11.208633     5A    -11.205177     6A     -1.360113
       7A     -1.063755     8A     -0.970225     9A     -0.868651
      10A     -0.773997    11A     -0.704434    12A     -0.648619
      13A     -0.607338    14A     -0.573673    15A     -0.562995
      16A     -0.532403    17A     -0.509391    18A     -0.473544
      19A     -0.466569    20A     -0.452688    21A     -0.430582

  @DF-RHF Final Energy:  -232.14378702276016

   => Energetics <=

    Nuclear Repulsion Energy =            191.9484557910549540
    One-Electron Energy =                -695.2922913916174821
    Two-Electron Energy =                 271.2000485778022494
    DFT Exchange-Correlation Energy =       0.0000000000000000
    Empirical Dispersion Energy =           0.0000000000000000
    PCM Polarization Energy =               0.0000000000000000
    EFP Energy =                            0.0000000000000000
    Total Energy =                       -232.1437870227603071

  Mulliken Charges: (a.u.)
   Center  Symbol    Alpha    Beta     Spin     Total
       1     H     0.28052  0.28052  0.00000  0.43895
       2     O     4.36969  4.36969  0.00000 -0.73938
       3     C     2.99911  2.99911  0.00000  0.00177
       4     C     3.16126  3.16126  0.00000 -0.32253
       5     H     0.42850  0.42850  0.00000  0.14299
       6     H     0.43105  0.43105  0.00000  0.13791
       7     C     3.15337  3.15337  0.00000 -0.30675
       8     H     0.41409  0.41409  0.00000  0.17182
       9     H     0.42467  0.42467  0.00000  0.15067
      10     C     3.24304  3.24304  0.00000 -0.48608
      11     H     0.40753  0.40753  0.00000  0.18494
      12     H     0.42288  0.42288  0.00000  0.15425
      13     H     0.41893  0.41893  0.00000  0.16214
      14     H     0.42060  0.42060  0.00000  0.15879
      15     H     0.42475  0.42475  0.00000  0.15050

   Total alpha = 21.00000, Total beta = 21.00000, Total charge =  0.00000
