  ==> Input File <==

--------------------------------------------------------------------------
set {
	reference rhf
	basis 6-31G*
}

set_num_threads( 4 )
memory 2 gb

molecule MOL {
0 1

O	 3.225979	 0.970355	 -0.599647
C	 2.701189	 0.057885	 -0.047330
C	 1.245376	 -0.013843	 0.345420
O	 3.347903	 -1.046386	 0.304773
C	 0.455112	 1.231400	 -0.050772
H	 0.838542	 -0.913825	 -0.103701
H	 1.208210	 -0.175333	 1.419774
C	 -0.998893	 1.219485	 0.433193
H	 0.482531	 1.345121	 -1.130325
H	 0.957290	 2.103070	 0.354729
C	 -1.883438	 0.145884	 -0.207175
H	 -1.431207	 2.195402	 0.224832
H	 -1.019646	 1.105716	 1.516076
C	 -3.347647	 0.245583	 0.225435
H	 -1.822183	 0.231698	 -1.291012
H	 -1.510341	 -0.844814	 0.042401
C	 -3.657920	 -0.540983	 1.500259
H	 -3.986087	 -0.111884	 -0.580697
H	 -3.607699	 1.291952	 0.377695
C	 -5.122977	 -0.439334	 1.923313
H	 -3.397701	 -1.586644	 1.350187
H	 -3.023797	 -0.182138	 2.308280
H	 -5.311476	 -1.006852	 2.829403
H	 -5.781954	 -0.823209	 1.149631
H	 -5.405227	 0.592201	 2.114481
C	 4.728119	 -1.109107	 -0.004993
H	 4.882018	 -1.033965	 -1.071845
H	 5.068212	 -2.067527	 0.355250
H	 5.265056	 -0.311663	 0.488280

	symmetry c1
}
set optking {
	frozen_dihedral = ("
		17 14 11 15
	")
}

ee = optimize('scf')
oeprop('DIPOLE', 'QUADRUPOLE', 'MULLIKEN_CHARGES')
f=open( 'psi4out.xyz', 'w' )
f.write( "29  " )
f.write( str(ee) + "\n" )
f.write( MOL.save_string_xyz() )
f.close()
--------------------------------------------------------------------------

    Molecular point group: c1
  Charge       = 0
  Multiplicity = 1
  Basis Set: 6-31G*
  Basis Set:
  @DF-RHF Final Energy:  -501.04091027880031
    Total Energy =                       -501.0409102788009932
    Molecular point group: c1
  Basis Set: 6-31G*
  Basis Set:
  Basis Set: 6-31G*
  Basis Set:
  @DF-RHF Final Energy:  -501.04110440543900
    Total Energy =                       -501.0411044054401373
  Basis Set: 6-31G*
  Basis Set:
  Basis Set: 6-31G*
  Basis Set:
  @DF-RHF Final Energy:  -501.04118255159801
    Total Energy =                       -501.0411825515983537
  Basis Set: 6-31G*
  Basis Set:
  Basis Set: 6-31G*
  Basis Set:
  @DF-RHF Final Energy:  -501.04118447993005
    Total Energy =                       -501.0411844799307346
  Basis Set: 6-31G*
  Basis Set:
  Basis Set: 6-31G*
  Basis Set:
  @DF-RHF Final Energy:  -501.04118711132128
    Total Energy =                       -501.0411871113208235
  Basis Set: 6-31G*
  Basis Set:
  Basis Set: 6-31G*
  Basis Set:
  @DF-RHF Final Energy:  -501.04118946707717
    Total Energy =                       -501.0411894670771744
  Basis Set: 6-31G*
  Basis Set:
  Basis Set: 6-31G*
  Basis Set:
  @DF-RHF Final Energy:  -501.04119210212252
    Total Energy =                       -501.0411921021227499
  Basis Set: 6-31G*
  Basis Set:
  Charge       = 0
  Multiplicity = 1
  Basis Set: 6-31G*
  Basis Set:

    Orbital Energies (a.u.)
    -----------------------

    Doubly Occupied:

       1A    -20.603383     2A    -20.545207     3A    -11.372026
       4A    -11.280671     5A    -11.234777     6A    -11.219129
       7A    -11.217768     8A    -11.216308     9A    -11.215876
      10A    -11.214476    11A    -11.209274    12A     -1.469082
      13A     -1.362524    14A     -1.097733    15A     -1.066129
      16A     -1.018521    17A     -0.976890    18A     -0.928779
      19A     -0.861767    20A     -0.809437    21A     -0.783474
      22A     -0.763331    23A     -0.700623    24A     -0.682299
      25A     -0.671899    26A     -0.636487    27A     -0.630788
      28A     -0.613683    29A     -0.596060    30A     -0.580627
      31A     -0.561358    32A     -0.556342    33A     -0.541644
      34A     -0.524955    35A     -0.514307    36A     -0.510658
      37A     -0.494886    38A     -0.481730    39A     -0.473323
      40A     -0.459151    41A     -0.456447    42A     -0.447425
      43A     -0.444942    44A     -0.436378

  @DF-RHF Final Energy:  -501.04119231271318

   => Energetics <=

    Nuclear Repulsion Energy =            615.1443085453278172
    One-Electron Energy =               -1901.4058542966445202
    Two-Electron Energy =                 785.2203534386035244
    DFT Exchange-Correlation Energy =       0.0000000000000000
    Empirical Dispersion Energy =           0.0000000000000000
    PCM Polarization Energy =               0.0000000000000000
    EFP Energy =                            0.0000000000000000
    Total Energy =                       -501.0411923127130649
    Molecular point group: c1
  Basis Set: 6-31G*
  Basis Set:

  -Total Gradient:
     Atom            X                  Y                   Z
    ------   -----------------  -----------------  -----------------
       1       -0.000000491434    -0.000003154376    -0.000004262040
       2        0.000003067601     0.000005374961     0.000008569974
       3        0.000002612513     0.000004450215     0.000002439855
       4       -0.000000929802    -0.000000837341    -0.000001953357
       5        0.000003526214     0.000002973821     0.000010400233
       6        0.000002556438     0.000001082537    -0.000003447588
       7       -0.000001129583    -0.000004033430     0.000000064938
       8        0.000015551232    -0.000007012970     0.000003549471
       9       -0.000002125431    -0.000004097962    -0.000003098772
      10        0.000000029415     0.000001096175    -0.000004812787
      11        0.000082318135     0.002954299975    -0.000141209113
      12        0.000000985759    -0.000005747922    -0.000001979584
      13        0.000002835560     0.000002508928     0.000001380828
      14        0.000570351632     0.001742581588     0.001646416626
      15       -0.000195398732    -0.002953641442    -0.000298835973
      16        0.000004601205     0.000008054070    -0.000008056266
      17       -0.000469936404    -0.001729742649    -0.001218309013
      18       -0.000005141838    -0.000000053988     0.000014679403
      19       -0.000009317480    -0.000004766865    -0.000003886685
      20       -0.000000648286    -0.000006785237     0.000003897712
      21       -0.000001506888     0.000001591284    -0.000000827077
      22        0.000000224955    -0.000003419802    -0.000000806255
      23       -0.000002615409    -0.000001291263     0.000000553918
      24        0.000000761480     0.000000800777    -0.000000209647
      25        0.000000242512    -0.000000413396    -0.000000125366
      26       -0.000000403318     0.000000355789     0.000000308821
      27        0.000000023781    -0.000000019839    -0.000000207230
      28       -0.000000037794    -0.000000098651    -0.000000143802
      29       -0.000000006050    -0.000000052990    -0.000000091224

  **** Optimization is complete! (in 8 steps) ****
    Final optimized geometry and variables:
    Molecular point group: c1

    Geometry (in Angstrom), charge = 0, multiplicity = 1:

    O            3.122772688027     0.897913659031    -0.954460160240
    C            2.587819246579     0.000158904196    -0.387961273543
    C            1.129898512286    -0.051837436833     0.000088742306
    O            3.223430883634    -1.103123353844    -0.013281884465
    C            0.351955910166     1.192364021167    -0.423197080763
    H            0.717594408163    -0.957213954307    -0.432715837299
    H            1.087326785376    -0.191913108580     1.077231135045
    C           -1.104633687895     1.202854294726     0.053321800264
    H            0.385752269120     1.286270389141    -1.504524756314
    H            0.859971606398     2.066752360759    -0.031059340760
    C           -2.001826944586     0.145886210617    -0.597843651387
    H           -1.521457894537     2.184592584106    -0.158421794940
    H           -1.130531343753     1.091591756877     1.135966352869
    C           -3.464428633751     0.199884578331    -0.126117129105
    H           -1.963179630590     0.255553912318    -1.679295029767
    H           -1.611739627327    -0.849486174626    -0.396649378892
    C           -3.738351161576    -0.617944715188     1.139268635584
    H           -4.108312062939    -0.177413185883    -0.917509132194
    H           -3.760934582505     1.234691906058     0.033761840536
    C           -5.189283276614    -0.519040938525     1.608690942742
    H           -3.491670009316    -1.659622912544     0.946450677979
    H           -3.079845332135    -0.292257631700     1.941605517693
    H           -5.358045151572    -1.120669758947     2.496510320894
    H           -5.874224606918    -0.865057579206     0.839562215904
    H           -5.454760234424     0.506632790090     1.848766783572
    C            4.604304906705    -1.183370313563    -0.316002028822
    H            4.763219220983    -1.128834332841    -1.383375153931
    H            4.934514057956    -2.138036929383     0.062898853328
    H            5.146155810680    -0.381832630583     0.165113707710

  Mulliken Charges: (a.u.)
   Center  Symbol    Alpha    Beta     Spin     Total
       1     O     4.28595  4.28595  0.00000 -0.57190
       2     C     2.60487  2.60487  0.00000  0.79026
       3     C     3.20950  3.20950  0.00000 -0.41900
       4     O     4.30744  4.30744  0.00000 -0.61489
       5     C     3.15408  3.15408  0.00000 -0.30816
       6     H     0.39893  0.39893  0.00000  0.20215
       7     H     0.40124  0.40124  0.00000  0.19751
       8     C     3.15738  3.15738  0.00000 -0.31475
       9     H     0.41301  0.41301  0.00000  0.17399
      10     H     0.40872  0.40872  0.00000  0.18256
      11     C     3.15816  3.15816  0.00000 -0.31633
      12     H     0.41794  0.41794  0.00000  0.16411
      13     H     0.42312  0.42312  0.00000  0.15376
      14     C     3.15296  3.15296  0.00000 -0.30592
      15     H     0.41994  0.41994  0.00000  0.16012
      16     H     0.42335  0.42335  0.00000  0.15331
      17     C     3.15260  3.15260  0.00000 -0.30520
      18     H     0.42123  0.42123  0.00000  0.15754
      19     H     0.42259  0.42259  0.00000  0.15483
      20     C     3.23949  3.23949  0.00000 -0.47898
      21     H     0.42293  0.42293  0.00000  0.15413
      22     H     0.42304  0.42304  0.00000  0.15392
      23     H     0.41933  0.41933  0.00000  0.16134
      24     H     0.42167  0.42167  0.00000  0.15666
      25     H     0.42140  0.42140  0.00000  0.15719
      26     C     3.09240  3.09240  0.00000 -0.18481
      27     H     0.40908  0.40908  0.00000  0.18184
      28     H     0.40851  0.40851  0.00000  0.18298
      29     H     0.40913  0.40913  0.00000  0.18174

   Total alpha = 44.00000, Total beta = 44.00000, Total charge =  0.00000
