  ==> Input File <==

--------------------------------------------------------------------------
set {
	reference rhf
	basis 6-31G*
}

set_num_threads( 4 )
memory 2 gb

molecule MOL {
0 1

H	 2.734244	 -0.013684	 0.499261
N	 1.756080	 0.197118	 0.510204
C	 1.033574	 -0.787026	 1.295161
C	 1.239460	 0.279362	 -0.843698
H	 1.439490	 -0.801762	 2.301035
H	 1.118592	 -1.794966	 0.882281
C	 -0.437577	 -0.402674	 1.344344
H	 1.794475	 1.036881	 -1.386738
H	 1.336948	 -0.663990	 -1.386121
C	 -0.231819	 0.663054	 -0.793189
H	 -0.542514	 0.537942	 1.893280
H	 -0.993827	 -1.163368	 1.882374
N	 -0.975995	 -0.298722	 0.000000
H	 -0.639477	 0.671991	 -1.798814
H	 -0.322970	 1.675069	 -0.387461
C	 -2.393863	 -0.024976	 0.000000
H	 -2.854032	 -0.467193	 -0.876721
H	 -2.854032	 -0.467193	 0.876721
H	 -2.623281	 1.044943	 0.000000

	symmetry c1
}
set optking {
	frozen_dihedral = ("
		7 13 16 19
	")
}

ee = optimize('scf')
oeprop('DIPOLE', 'QUADRUPOLE', 'MULLIKEN_CHARGES')
f=open( 'psi4out.xyz', 'w' )
f.write( "19  " )
f.write( str(ee) + "\n" )
f.write( MOL.save_string_xyz() )
f.close()
--------------------------------------------------------------------------

    Molecular point group: c1
  Charge       = 0
  Multiplicity = 1
  Basis Set: 6-31G*
  Basis Set:
  @DF-RHF Final Energy:  -305.19679587554356
    Total Energy =                       -305.1967958755433301
    Molecular point group: c1
  Basis Set: 6-31G*
  Basis Set:
  Basis Set: 6-31G*
  Basis Set:
  @DF-RHF Final Energy:  -305.19718318375652
    Total Energy =                       -305.1971831837565787
  Basis Set: 6-31G*
  Basis Set:
  Basis Set: 6-31G*
  Basis Set:
  @DF-RHF Final Energy:  -305.19724946683442
    Total Energy =                       -305.1972494668343074
  Basis Set: 6-31G*
  Basis Set:
  Charge       = 0
  Multiplicity = 1
  Basis Set: 6-31G*
  Basis Set:

    Orbital Energies (a.u.)
    -----------------------

    Doubly Occupied:

       1A    -15.538405     2A    -15.536412     3A    -11.238280
       4A    -11.238184     5A    -11.237220     6A    -11.237087
       7A    -11.234937     8A     -1.245786     9A     -1.184287
      10A     -1.023093    11A     -0.964410    12A     -0.861041
      13A     -0.857267    14A     -0.755827    15A     -0.690710
      16A     -0.632765    17A     -0.626017    18A     -0.606076
      19A     -0.603070    20A     -0.580177    21A     -0.544416
      22A     -0.529752    23A     -0.512811    24A     -0.489464
      25A     -0.467579    26A     -0.456898    27A     -0.363183
      28A     -0.339132

  @DF-RHF Final Energy:  -305.19725206343560

   => Energetics <=

    Nuclear Repulsion Energy =            339.5480052175026913
    One-Electron Energy =               -1086.3019436745121311
    Two-Electron Energy =                 441.5566863935736137
    DFT Exchange-Correlation Energy =       0.0000000000000000
    Empirical Dispersion Energy =           0.0000000000000000
    PCM Polarization Energy =               0.0000000000000000
    EFP Energy =                            0.0000000000000000
    Total Energy =                       -305.1972520634358261
    Molecular point group: c1
  Basis Set: 6-31G*
  Basis Set:

  -Total Gradient:
     Atom            X                  Y                   Z
    ------   -----------------  -----------------  -----------------
       1       -0.000023725045    -0.000008467826    -0.000014127981
       2       -0.000048956013     0.000012020394    -0.000001186112
       3        0.000023386932     0.000045232973     0.000024062108
       4        0.000002686177    -0.000035311523    -0.000025393293
       5        0.000068141337    -0.000010492253     0.000027138531
       6       -0.000042050880     0.000031105643     0.000010715693
       7       -0.000543580496    -0.003525881197    -0.000035049783
       8        0.000033763169     0.000005730720    -0.000005151991
       9        0.000006170235     0.000003710258     0.000004839164
      10        0.000043500833     0.000091784618     0.000017875529
      11        0.000020885225    -0.000050831417    -0.000044860979
      12       -0.000013376223     0.000009221164    -0.000032163249
      13        0.000820757238     0.004877844378    -0.001260767405
      14        0.000011939334    -0.000020674511     0.000025951794
      15       -0.000018775334    -0.000020257633    -0.000003226244
      16       -0.000577756139    -0.001443280940     0.006047048851
      17        0.000019465131    -0.000007891537    -0.000024105393
      18        0.000067400757    -0.000028976984    -0.000008232319
      19        0.000150123761     0.000075415674    -0.004703366924

  **** Optimization is complete! (in 4 steps) ****
    Final optimized geometry and variables:
    Molecular point group: c1

    Geometry (in Angstrom), charge = 0, multiplicity = 1:

    H            2.745452565369     0.026013617857     0.266053692979
    N            1.768119505992     0.240154698360     0.282007333171
    C            1.047876212786    -0.739357688549     1.075037909512
    C            1.244411644422     0.318595924953    -1.069429417859
    H            1.468806060121    -0.761083350010     2.074723316387
    H            1.118051684202    -1.746470513028     0.657208747777
    C           -0.419667609003    -0.343949387193     1.146707413044
    H            1.803115345135     1.067502823939    -1.620734541027
    H            1.330682672722    -0.629301095040    -1.605818332016
    C           -0.222952607674     0.715424305012    -1.011082728858
    H           -0.507989757484     0.586882119452     1.715237418023
    H           -0.974275357014    -1.110344547826     1.677003004921
    N           -0.966016338015    -0.219242374858    -0.191256899941
    H           -0.642318784174     0.706606242834    -2.012369268561
    H           -0.302744252491     1.736971701051    -0.627157481335
    C           -2.392634099107     0.017182050935    -0.227985968853
    H           -2.809443936645    -0.391680089012    -1.144404702768
    H           -2.879658356612    -0.472844611726     0.605450669249
    H           -2.648005910330     1.079450845958    -0.213160185671

  Mulliken Charges: (a.u.)
   Center  Symbol    Alpha    Beta     Spin     Total
       1     H     0.32946  0.32946  0.00000  0.34108
       2     N     3.85433  3.85433  0.00000 -0.70866
       3     C     3.06403  3.06403  0.00000 -0.12807
       4     C     3.06358  3.06358  0.00000 -0.12716
       5     H     0.41783  0.41783  0.00000  0.16435
       6     H     0.42805  0.42805  0.00000  0.14390
       7     C     3.05161  3.05161  0.00000 -0.10321
       8     H     0.41777  0.41777  0.00000  0.16447
       9     H     0.42800  0.42800  0.00000  0.14400
      10     C     3.05237  3.05237  0.00000 -0.10474
      11     H     0.42885  0.42885  0.00000  0.14229
      12     H     0.41907  0.41907  0.00000  0.16186
      13     N     3.79281  3.79281  0.00000 -0.58562
      14     H     0.41889  0.41889  0.00000  0.16221
      15     H     0.42813  0.42813  0.00000  0.14374
      16     C     3.13814  3.13814  0.00000 -0.27627
      17     H     0.41712  0.41712  0.00000  0.16575
      18     H     0.41860  0.41860  0.00000  0.16280
      19     H     0.43137  0.43137  0.00000  0.13727

   Total alpha = 28.00000, Total beta = 28.00000, Total charge = -0.00000
