                              Psi4 1.0.54 Driver

  ==> Input File <==

--------------------------------------------------------------------------
set {
	reference rhf
	basis cc-pvtz
}

set_num_threads( 4 )
memory 2 gb

molecule MOL {
0 1

H	 -1.752232	 -2.214755	 -0.011938
C	 -1.343852	 -1.221619	 -0.018179
N	 -0.058800	 -1.097635	 -0.261688
C	 -2.148159	 -0.124236	 0.219734
C	 0.449026	 0.119242	 -0.273393
H	 -3.196988	 -0.237571	 0.417076
N	 -1.655094	 1.094230	 0.209506
C	 -0.370318	 1.215445	 -0.035100
C	 1.924033	 0.265863	 -0.538106
H	 0.033214	 2.210441	 -0.046812
C	 2.624215	 -1.079799	 -0.734035
H	 2.048836	 0.869414	 -1.429123
H	 2.384555	 0.804101	 0.281914
H	 3.674476	 -0.932079	 -0.955544
H	 2.176944	 -1.626093	 -1.554090
H	 2.551827	 -1.691023	 0.158552

	symmetry c1
}
set optking {
	frozen_dihedral = ("
		12 9 5 3
	")
}

ee,wfn = optimize('scf', return_wfn=True)
oeprop( wfn, 'DIPOLE', 'QUADRUPOLE', 'MULLIKEN_CHARGES')
f=open( 'psi4out.xyz', 'w' )
f.write( "16  " )
f.write( str(ee) + "\n" )
f.write( MOL.save_string_xyz() )
f.close()
--------------------------------------------------------------------------

    Molecular point group: c1
  Charge       = 0
  Multiplicity = 1
  Basis Set: CC-PVTZ
  Basis Set:
  @DF-RHF Final Energy:  -340.87005784819371
    Total Energy =                       -340.8700578481935963
    Molecular point group: c1
  Basis Set: CC-PVTZ
  Basis Set:
  Basis Set: CC-PVTZ
  Basis Set:
  @DF-RHF Final Energy:  -340.87074484110889
    Total Energy =                       -340.8707448411088876
  Basis Set: CC-PVTZ
  Basis Set:
  Basis Set: CC-PVTZ
  Basis Set:
  @DF-RHF Final Energy:  -340.87093698375753
    Total Energy =                       -340.8709369837570762
  Basis Set: CC-PVTZ
  Basis Set:
  Basis Set: CC-PVTZ
  Basis Set:
  @DF-RHF Final Energy:  -340.87097374525410
    Total Energy =                       -340.8709737452542754
  Basis Set: CC-PVTZ
  Basis Set:
  Basis Set: CC-PVTZ
  Basis Set:
  @DF-RHF Final Energy:  -340.87099317561149
    Total Energy =                       -340.8709931756114884
  Basis Set: CC-PVTZ
  Basis Set:
  Basis Set: CC-PVTZ
  Basis Set:
  @DF-RHF Final Energy:  -340.87099470436249
    Total Energy =                       -340.8709947043623174
  Basis Set: CC-PVTZ
  Basis Set:
  Basis Set: CC-PVTZ
  Basis Set:
  @DF-RHF Final Energy:  -340.87099632429579
    Total Energy =                       -340.8709963242955041
  Basis Set: CC-PVTZ
  Basis Set:
  Charge       = 0
  Multiplicity = 1
  Basis Set: CC-PVTZ
  Basis Set:

    Orbital Energies (a.u.)
    -----------------------

    Doubly Occupied:

       1A    -15.580268     2A    -15.574864     3A    -11.280690
       4A    -11.270335     5A    -11.269446     6A    -11.265710
       7A    -11.233762     8A    -11.210956     9A     -1.315717
      10A     -1.223852    11A     -1.084746    12A     -1.015264
      13A     -0.912516    14A     -0.890224    15A     -0.824931
      16A     -0.720560    17A     -0.707830    18A     -0.657971
      19A     -0.630621    20A     -0.604385    21A     -0.569240
      22A     -0.560558    23A     -0.523302    24A     -0.504254
      25A     -0.501752    26A     -0.487490    27A     -0.435096
      28A     -0.397238    29A     -0.345430

  @DF-RHF Final Energy:  -340.87099646475599

   => Energetics <=

    Nuclear Repulsion Energy =            350.4190689001276269
    One-Electron Energy =               -1155.3821129413136077
    Two-Electron Energy =                 464.0920475764303319
    DFT Exchange-Correlation Energy =       0.0000000000000000
    Empirical Dispersion Energy =           0.0000000000000000
    PCM Polarization Energy =               0.0000000000000000
    EFP Energy =                            0.0000000000000000
    Total Energy =                       -340.8709964647556490
    Molecular point group: c1
  Basis Set: CC-PVTZ
  Basis Set:

  -Total Gradient:
     Atom            X                  Y                   Z
    ------   -----------------  -----------------  -----------------
       1        0.000002975589     0.000001568538    -0.000013396004
       2        0.000004066696     0.000003497185     0.000023687743
       3       -0.000005922071    -0.000013070329     0.000017279602
       4       -0.000000367171    -0.000008301680     0.000024223050
       5       -0.000003560537     0.000010948541    -0.000007852076
       6       -0.000005525316     0.000003048688    -0.000016032112
       7        0.000014550464    -0.000003037655     0.000004740879
       8       -0.000011670101     0.000004662575    -0.000040061087
       9        0.000016413979    -0.000042555398    -0.000022727753
      10        0.000005103518     0.000005671014     0.000006842667
      11       -0.000010091973    -0.000011644607    -0.000001785355
      12        0.000003511162     0.000036462184     0.000024530182
      13       -0.000009637086    -0.000002944120    -0.000002494062
      14       -0.000006019141     0.000007390057     0.000001997774
      15        0.000002255608     0.000003818269     0.000005292170
      16        0.000003916385     0.000004486735    -0.000004245616

  **** Optimization is complete! (in 8 steps) ****
    Final optimized geometry and variables:
    Molecular point group: c1

    Geometry (in Angstrom), charge = 0, multiplicity = 1:

    H           -1.944876992470    -1.941200153441     0.087326036123
    C           -1.447403382108    -0.990246503256     0.107129155442
    N           -0.138823572422    -0.989372770474    -0.084150588787
    C           -2.148182093480     0.169925232506     0.322548360698
    C            0.480308034913     0.164317308911    -0.062348049929
    H           -3.209807240880     0.160396273877     0.476550982947
    N           -1.535943724294     1.342386394633     0.347818570431
    C           -0.244705581035     1.339200235059     0.158933009608
    C            1.974780360584     0.225021094545    -0.279642518075
    H            0.257939499558     2.288993168492     0.179360754038
    C            2.653446213011    -1.127388746492    -0.444053950668
    H            2.164756055155     0.838973452923    -1.155292831698
    H            2.417394505109     0.758712674622     0.556000955149
    H            3.718022314086    -0.988156696608    -0.589816515076
    H            2.258851008888    -1.664039814074    -1.296170238902
    H            2.506765587595    -1.748937790483     0.429358296001

  Mulliken Charges: (a.u.)
   Center  Symbol    Alpha    Beta     Spin     Total
       1     H     0.41472  0.41472  0.00000  0.17056
       2     C     3.04909  3.04909  0.00000 -0.09819
       3     N     3.58869  3.58869  0.00000 -0.17738
       4     C     3.04672  3.04672  0.00000 -0.09344
       5     C     2.94517  2.94517  0.00000  0.10966
       6     H     0.41361  0.41361  0.00000  0.17277
       7     N     3.58678  3.58678  0.00000 -0.17356
       8     C     3.07356  3.07356  0.00000 -0.14712
       9     C     3.08191  3.08191  0.00000 -0.16382
      10     H     0.41606  0.41606  0.00000  0.16788
      11     C     3.14343  3.14343  0.00000 -0.28687
      12     H     0.44617  0.44617  0.00000  0.10767
      13     H     0.44653  0.44653  0.00000  0.10695
      14     H     0.45011  0.45011  0.00000  0.09978
      15     H     0.44825  0.44825  0.00000  0.10349
      16     H     0.44919  0.44919  0.00000  0.10162

   Total alpha = 29.00000, Total beta = 29.00000, Total charge = -0.00000

*** Psi4 exiting successfully. Buy a developer a beer!
