  ==> Input File <==

--------------------------------------------------------------------------
set {
	reference rhf
	basis 6-31G*
}

set_num_threads( 4 )
memory 2 gb

molecule MOL {
0 1

O	 -0.682937	 1.318834	 -0.186099
C	 -0.860635	 0.152188	 -0.042321
C	 -2.173363	 -0.477127	 0.338347
O	 0.083258	 -0.765189	 -0.202595
H	 -2.477673	 -1.180929	 -0.427595
H	 -2.923125	 0.290956	 0.455536
H	 -2.058825	 -1.029004	 1.264191
C	 1.391937	 -0.334737	 -0.569838
C	 2.171028	 -1.443238	 -1.253132
H	 1.907298	 0.023169	 0.308482
H	 1.225668	 0.493689	 -1.243310
H	 3.131806	 -1.064285	 -1.587841
H	 2.348654	 -2.266249	 -0.572346
H	 1.630347	 -1.812353	 -2.117906

	symmetry c1
}
set optking {
	frozen_dihedral = ("
		10 8 4 2
	")
}

ee = optimize('scf')
oeprop('DIPOLE', 'QUADRUPOLE', 'MULLIKEN_CHARGES')
f=open( 'psi4out.xyz', 'w' )
f.write( "14  " )
f.write( str(ee) + "\n" )
f.write( MOL.save_string_xyz() )
f.close()
--------------------------------------------------------------------------

    Molecular point group: c1
  Charge       = 0
  Multiplicity = 1
  Basis Set: 6-31G*
  Basis Set:
  @DF-RHF Final Energy:  -305.87376044506334
    Total Energy =                       -305.8737604450633967
    Molecular point group: c1
  Basis Set: 6-31G*
  Basis Set:
  Basis Set: 6-31G*
  Basis Set:
  @DF-RHF Final Energy:  -305.87516940040257
    Total Energy =                       -305.8751694004026831
  Basis Set: 6-31G*
  Basis Set:
  Basis Set: 6-31G*
  Basis Set:
  @DF-RHF Final Energy:  -305.87531486292801
    Total Energy =                       -305.8753148629281213
  Basis Set: 6-31G*
  Basis Set:
  Basis Set: 6-31G*
  Basis Set:
  @DF-RHF Final Energy:  -305.87529122865152
    Total Energy =                       -305.8752912286512924
  Basis Set: 6-31G*
  Basis Set:
  Basis Set: 6-31G*
  Basis Set:
  @DF-RHF Final Energy:  -305.87557606350117
    Total Energy =                       -305.8755760635011711
  Basis Set: 6-31G*
  Basis Set:
  Basis Set: 6-31G*
  Basis Set:
  @DF-RHF Final Energy:  -305.87557830263461
    Total Energy =                       -305.8755783026347785
  Basis Set: 6-31G*
  Basis Set:
  Charge       = 0
  Multiplicity = 1
  Basis Set: 6-31G*
  Basis Set:

    Orbital Energies (a.u.)
    -----------------------

    Doubly Occupied:

       1A    -20.601986     2A    -20.544219     3A    -11.375173
       4A    -11.285122     5A    -11.233297     6A    -11.222721
       7A     -1.467690     8A     -1.362782     9A     -1.057997
      10A     -1.000235    11A     -0.871841    12A     -0.779606
      13A     -0.692765    14A     -0.685455    15A     -0.665445
      16A     -0.611316    17A     -0.580463    18A     -0.563434
      19A     -0.555014    20A     -0.538988    21A     -0.510273
      22A     -0.501693    23A     -0.452668    24A     -0.438638

  @DF-RHF Final Energy:  -305.87557850008398

   => Energetics <=

    Nuclear Repulsion Energy =            245.5755177904934214
    One-Electron Energy =                -903.7045496252836756
    Two-Electron Energy =                 352.2534533347063643
    DFT Exchange-Correlation Energy =       0.0000000000000000
    Empirical Dispersion Energy =           0.0000000000000000
    PCM Polarization Energy =               0.0000000000000000
    EFP Energy =                            0.0000000000000000
    Total Energy =                       -305.8755785000838614
    Molecular point group: c1
  Basis Set: 6-31G*
  Basis Set:

  -Total Gradient:
     Atom            X                  Y                   Z
    ------   -----------------  -----------------  -----------------
       1        0.000003757907    -0.000007606162    -0.000003805740
       2       -0.000368387886    -0.000118142849    -0.001305218023
       3       -0.000010484304     0.000003237996    -0.000008084562
       4        0.000656297811    -0.000185072200     0.001959730407
       5        0.000000025758    -0.000000233304     0.000002284838
       6       -0.000004069406    -0.000000658452     0.000000915636
       7        0.000002059805     0.000002664109    -0.000000075442
       8       -0.000905658656     0.001728919738    -0.000879516688
       9       -0.000001352826     0.000011497490    -0.000000366020
      10        0.000601952620    -0.001428423234     0.000234757451
      11        0.000019784897    -0.000006210618     0.000001546315
      12        0.000008290615    -0.000003682444    -0.000005418007
      13       -0.000003141391     0.000004439581    -0.000000287054
      14        0.000000925056    -0.000000729652     0.000003536888

  **** Optimization is complete! (in 7 steps) ****
    Final optimized geometry and variables:
    Molecular point group: c1

    Geometry (in Angstrom), charge = 0, multiplicity = 1:

    O           -0.687214969842     1.579798853287     0.181414056769
    C           -0.848555277493     0.407314459913     0.288460347673
    C           -2.149692289008    -0.253047634657     0.656721100540
    O            0.109293014399    -0.489706243272     0.098542307245
    H           -2.448275631100    -0.938234929669    -0.128157611999
    H           -2.910059568581     0.499860921569     0.800968582796
    H           -2.021817399519    -0.830281459932     1.565209664119
    C            1.398884932659    -0.026127240771    -0.290917978651
    C            2.134962719920    -1.194968956533    -0.913019846809
    H            1.915519370350     0.331391460512     0.590920041323
    H            1.291243435947     0.795839138060    -0.981680592533
    H            3.135047236783    -0.889429977553    -1.203451672536
    H            2.218157856645    -2.016456162495    -0.210633824106
    H            1.614927052068    -1.550695204464    -1.795317388593

  Mulliken Charges: (a.u.)
   Center  Symbol    Alpha    Beta     Spin     Total
       1     O     4.28297  4.28297  0.00000 -0.56593
       2     C     2.62020  2.62020  0.00000  0.75960
       3     C     3.28175  3.28175  0.00000 -0.56350
       4     O     4.30688  4.30688  0.00000 -0.61375
       5     H     0.40076  0.40076  0.00000  0.19848
       6     H     0.39696  0.39696  0.00000  0.20607
       7     H     0.40032  0.40032  0.00000  0.19935
       8     C     3.00437  3.00437  0.00000 -0.00873
       9     C     3.24805  3.24805  0.00000 -0.49609
      10     H     0.41392  0.41392  0.00000  0.17217
      11     H     0.40308  0.40308  0.00000  0.19385
      12     H     0.41650  0.41650  0.00000  0.16701
      13     H     0.41159  0.41159  0.00000  0.17682
      14     H     0.41267  0.41267  0.00000  0.17467

   Total alpha = 24.00000, Total beta = 24.00000, Total charge =  0.00000
