  ==> Input File <==

--------------------------------------------------------------------------
set {
	reference rhf
	basis cc-pvtz
}

set_num_threads( 4 )
memory 2 gb

molecule MOL {
0 1

H	 -3.162190	 0.493205	 -0.000107
C	 -2.363908	 -0.234727	 0.000005
O	 -1.158738	 0.454634	 -0.000087
H	 -2.464314	 -0.863616	 -0.882153
H	 -2.464327	 -0.863359	 0.882345
C	 -0.028611	 -0.359694	 0.000037
C	 1.212847	 0.509314	 -0.000053
H	 -0.034155	 -1.007047	 -0.877198
H	 -0.034195	 -1.006836	 0.877430
C	 2.366420	 -0.123159	 0.770399
H	 1.506087	 0.692632	 -1.027832
H	 0.960313	 1.472424	 0.429594
H	 2.651695	 -1.078114	 0.341719
H	 3.239256	 0.517866	 0.754100
H	 2.102385	 -0.292834	 1.808939

	symmetry c1
}
set optking {
	frozen_dihedral = ("
		11 7 6 8
	")
}

ee = optimize('scf')
oeprop('DIPOLE', 'QUADRUPOLE', 'MULLIKEN_CHARGES')
f=open( 'psi4out.xyz', 'w' )
f.write( "15  " )
f.write( str(ee) + "\n" )
f.write( MOL.save_string_xyz() )
f.close()
--------------------------------------------------------------------------

    Molecular point group: c1
  Charge       = 0
  Multiplicity = 1
  Basis Set: CC-PVTZ
  Basis Set:
  @DF-RHF Final Energy:  -232.22463658888736
    Total Energy =                       -232.2246365888876198
    Molecular point group: c1
  Basis Set: CC-PVTZ
  Basis Set:
  Basis Set: CC-PVTZ
  Basis Set:
  @DF-RHF Final Energy:  -232.22498175626109
    Total Energy =                       -232.2249817562610588
  Basis Set: CC-PVTZ
  Basis Set:
  Basis Set: CC-PVTZ
  Basis Set:
  @DF-RHF Final Energy:  -232.22505908115912
    Total Energy =                       -232.2250590811590882
  Basis Set: CC-PVTZ
  Basis Set:
  Basis Set: CC-PVTZ
  Basis Set:
  @DF-RHF Final Energy:  -232.22506119473229
    Total Energy =                       -232.2250611947324046
  Basis Set: CC-PVTZ
  Basis Set:
  Charge       = 0
  Multiplicity = 1
  Basis Set: CC-PVTZ
  Basis Set:

    Orbital Energies (a.u.)
    -----------------------

    Doubly Occupied:

       1A    -20.546930     2A    -11.264730     3A    -11.261294
       4A    -11.212838     5A    -11.210052     6A     -1.380577
       7A     -1.056584     8A     -0.955304     9A     -0.877108
      10A     -0.809398    11A     -0.676101    12A     -0.655450
      13A     -0.632923    14A     -0.604301    15A     -0.567003
      16A     -0.544362    17A     -0.498248    18A     -0.489555
      19A     -0.479732    20A     -0.462602    21A     -0.415716

  @DF-RHF Final Energy:  -232.22506164796195

   => Energetics <=

    Nuclear Repulsion Energy =            189.9360601266781998
    One-Electron Energy =                -691.1206257513274522
    Two-Electron Energy =                 268.9595039766873583
    DFT Exchange-Correlation Energy =       0.0000000000000000
    Empirical Dispersion Energy =           0.0000000000000000
    PCM Polarization Energy =               0.0000000000000000
    EFP Energy =                            0.0000000000000000
    Total Energy =                       -232.2250616479619225
    Molecular point group: c1
  Basis Set: CC-PVTZ
  Basis Set:

  -Total Gradient:
     Atom            X                  Y                   Z
    ------   -----------------  -----------------  -----------------
       1        0.000003523912    -0.000000917314     0.000003812508
       2       -0.000032838366    -0.000011295008    -0.000006157491
       3        0.000049330912    -0.000031923441    -0.000001443549
       4       -0.000001660782     0.000001049699     0.000002751887
       5       -0.000002188869     0.000002170566    -0.000000562165
       6        0.003409756170    -0.004771791225     0.002891269990
       7       -0.003760077906     0.005365382341    -0.000673197143
       8       -0.002275522962     0.003154640850    -0.002311788971
       9        0.000008786508     0.000008558079    -0.000007236211
      10       -0.000005697405     0.000010424239     0.000016929861
      11        0.002591671857    -0.003702915202     0.000082811420
      12        0.000000399448    -0.000015145357     0.000002243197
      13       -0.000004380132    -0.000004599462    -0.000003589180
      14        0.000004808367     0.000000434525     0.000001987402
      15        0.000014089251    -0.000004073286     0.000002168444

  **** Optimization is complete! (in 5 steps) ****
    Final optimized geometry and variables:
    Molecular point group: c1

    Geometry (in Angstrom), charge = 0, multiplicity = 1:

    H           -3.145199170303     0.445848857751    -0.204937019150
    C           -2.343605432294    -0.278554766102    -0.192730197260
    O           -1.142248989454     0.414887538723    -0.146662631312
    H           -2.415982104108    -0.894566864929    -1.086838904894
    H           -2.467641426176    -0.921680948402     0.676387771817
    C           -0.007587211747    -0.399262749691    -0.114235522089
    C            1.236495969544     0.480989849578    -0.137211466438
    H           -0.024915634623    -1.053854463841    -0.984296044840
    H           -0.025446744083    -1.020291833997     0.779947968604
    C            2.418349108905    -0.161008620408     0.585627671209
    H            1.526931297985     0.666648754790    -1.165139337472
    H            0.990379953632     1.431257195996     0.318156669735
    H            2.661665042979    -1.130170972065     0.161284245653
    H            3.303138759630     0.459770547596     0.510267074412
    H            2.203024197808    -0.306831227277     1.638583268349

  Mulliken Charges: (a.u.)
   Center  Symbol    Alpha    Beta     Spin     Total
       1     H     0.44698  0.44698  0.00000  0.10604
       2     C     3.03040  3.03040  0.00000 -0.06079
       3     O     4.17235  4.17235  0.00000 -0.34469
       4     H     0.47227  0.47227  0.00000  0.05546
       5     H     0.47335  0.47335  0.00000  0.05329
       6     C     2.95911  2.95911  0.00000  0.08179
       7     C     3.08318  3.08318  0.00000 -0.16636
       8     H     0.47413  0.47413  0.00000  0.05173
       9     H     0.47510  0.47510  0.00000  0.04981
      10     C     3.15445  3.15445  0.00000 -0.30889
      11     H     0.45372  0.45372  0.00000  0.09255
      12     H     0.44632  0.44632  0.00000  0.10735
      13     H     0.45635  0.45635  0.00000  0.08730
      14     H     0.44766  0.44766  0.00000  0.10467
      15     H     0.45463  0.45463  0.00000  0.09074

   Total alpha = 21.00000, Total beta = 21.00000, Total charge = -0.00000
