  ==> Input File <==

--------------------------------------------------------------------------
set {
	reference rhf
	basis 6-31G*
}

set_num_threads( 1 )
memory 2 gb

molecule MOL {
0 1

O	 -2.821601	 1.309235	 -0.001213
C	 -2.668563	 0.129746	 -0.000350
C	 -3.801572	 -0.864014	 -0.000442
O	 -1.481751	 -0.454642	 0.000584
H	 -4.417280	 -0.689587	 -0.874708
H	 -3.443784	 -1.883046	 -0.000565
H	 -4.417179	 -0.689832	 0.873954
C	 -0.334255	 0.388708	 0.000906
C	 0.891947	 -0.504646	 0.000751
H	 -0.365390	 1.025305	 -0.873475
H	 -0.365484	 1.024911	 0.875569
C	 2.191998	 0.301789	 0.000897
H	 0.855148	 -1.151283	 -0.871571
H	 0.855132	 -1.151660	 0.872805
C	 3.441114	 -0.581407	 0.000108
H	 2.215074	 0.954890	 -0.869742
H	 2.215465	 0.953923	 0.872248
C	 4.282041	 -0.424119	 1.266192
H	 4.049163	 -0.342886	 -0.869638
H	 3.145091	 -1.622208	 -0.110227
H	 4.621842	 0.600601	 1.386604
H	 5.159755	 -1.062040	 1.236026
H	 3.711107	 -0.688651	 2.151668

	symmetry c1
}
set optking {
	frozen_dihedral = ("
		13 9 8 10,
		2 4 8 10,
		16 12 9 13,
		1 2 4 8
	")
}

ee = energy('scf')
oeprop('DIPOLE', 'QUADRUPOLE', 'MULLIKEN_CHARGES')
f=open( 'psi4out.xyz', 'w' )
f.write( "23  " )
f.write( str(ee) + "\n" )
f.write( MOL.save_string_xyz() )
f.close()
--------------------------------------------------------------------------

    Molecular point group: c1

    Geometry (in Angstrom), charge = 0, multiplicity = 1:

       Center              X                  Y                   Z               Mass
    ------------   -----------------  -----------------  -----------------  -----------------
           O         -2.768776487103     1.384075351551    -0.147526980392    15.994914619560
           C         -2.615738487103     0.204586351551    -0.146663980392    12.000000000000
           C         -3.748747487103    -0.789173648449    -0.146755980392    12.000000000000
           O         -1.428926487103    -0.379801648449    -0.145729980392    15.994914619560
           H         -4.364455487103    -0.614746648449    -1.021021980392     1.007825032070
           H         -3.390959487103    -1.808205648449    -0.146878980392     1.007825032070
           H         -4.364354487103    -0.614991648449     0.727640019608     1.007825032070
           C         -0.281430487103     0.463548351551    -0.145407980392    12.000000000000
           C          0.944771512897    -0.429805648449    -0.145562980392    12.000000000000
           H         -0.312565487103     1.100145351551    -1.019788980392     1.007825032070
           H         -0.312659487103     1.099751351551     0.729255019608     1.007825032070
           C          2.244822512897     0.376629351551    -0.145416980392    12.000000000000
           H          0.907972512897    -1.076442648449    -1.017884980392     1.007825032070
           H          0.907956512897    -1.076819648449     0.726491019608     1.007825032070
           C          3.493938512897    -0.506566648449    -0.146205980392    12.000000000000
           H          2.267898512897     1.029730351551    -1.016055980392     1.007825032070
           H          2.268289512897     1.028763351551     0.725934019608     1.007825032070
           C          4.334865512897    -0.349278648449     1.119878019608    12.000000000000
           H          4.101987512897    -0.268045648449    -1.015951980392     1.007825032070
           H          3.197915512897    -1.547367648449    -0.256540980392     1.007825032070
           H          4.674666512897     0.675441351551     1.240290019608     1.007825032070
           H          5.212579512897    -0.987199648449     1.089712019608     1.007825032070
           H          3.763931512897    -0.613810648449     2.005354019608     1.007825032070

  Charge       = 0
  Multiplicity = 1
  Basis Set: 6-31G*
  Basis Set:

    Orbital Energies (a.u.)
    -----------------------

    Doubly Occupied:

       1A    -20.602887     2A    -20.540451     3A    -11.374012
       4A    -11.281023     5A    -11.232370     6A    -11.224662
       7A    -11.222316     8A    -11.220016     9A    -11.213247
      10A     -1.467871    11A     -1.360650    12A     -1.094505
      13A     -1.041884    14A     -1.002835    15A     -0.930603
      16A     -0.845149    17A     -0.800735    18A     -0.773782
      19A     -0.691266    20A     -0.685312    21A     -0.669034
      22A     -0.637151    23A     -0.613061    24A     -0.594920
      25A     -0.580715    26A     -0.571228    27A     -0.549694
      28A     -0.532898    29A     -0.528219    30A     -0.504161
      31A     -0.499677    32A     -0.476049    33A     -0.464204
      34A     -0.462765    35A     -0.451258    36A     -0.435126

  @DF-RHF Final Energy:  -422.97361980984311

   => Energetics <=

    Nuclear Repulsion Energy =            451.4886489983592242
    One-Electron Energy =               -1470.5730096709457939
    Two-Electron Energy =                 596.1107408627450468
    DFT Exchange-Correlation Energy =       0.0000000000000000
    Empirical Dispersion Energy =           0.0000000000000000
    PCM Polarization Energy =               0.0000000000000000
    EFP Energy =                            0.0000000000000000
    Total Energy =                       -422.9736198098415798

  Mulliken Charges: (a.u.)
   Center  Symbol    Alpha    Beta     Spin     Total
       1     O     4.28392  4.28392  0.00000 -0.56783
       2     C     2.61534  2.61534  0.00000  0.76932
       3     C     3.28774  3.28774  0.00000 -0.57548
       4     O     4.31267  4.31267  0.00000 -0.62534
       5     H     0.39750  0.39750  0.00000  0.20499
       6     H     0.39990  0.39990  0.00000  0.20020
       7     H     0.39751  0.39751  0.00000  0.20497
       8     C     2.99625  2.99625  0.00000  0.00750
       9     C     3.16733  3.16733  0.00000 -0.33465
      10     H     0.41063  0.41063  0.00000  0.17874
      11     H     0.41066  0.41066  0.00000  0.17868
      12     C     3.16357  3.16357  0.00000 -0.32714
      13     H     0.41358  0.41358  0.00000  0.17284
      14     H     0.41414  0.41414  0.00000  0.17173
      15     C     3.15444  3.15444  0.00000 -0.30889
      16     H     0.41812  0.41812  0.00000  0.16375
      17     H     0.41783  0.41783  0.00000  0.16434
      18     C     3.24101  3.24101  0.00000 -0.48202
      19     H     0.41852  0.41852  0.00000  0.16297
      20     H     0.41852  0.41852  0.00000  0.16295
      21     H     0.42028  0.42028  0.00000  0.15944
      22     H     0.41913  0.41913  0.00000  0.16174
      23     H     0.42141  0.42141  0.00000  0.15719

   Total alpha = 36.00000, Total beta = 36.00000, Total charge = -0.00000
