                              Psi4 1.0.54 Driver

  ==> Input File <==

--------------------------------------------------------------------------
set {
	reference rhf
	basis cc-pvtz
}

set_num_threads( 4 )
memory 2 gb

molecule MOL {
0 1

H	 2.614283	 2.028610	 0.296620
O	 3.358864	 1.662087	 -0.142800
C	 3.565468	 0.338079	 0.273842
C	 2.533667	 -0.637565	 -0.272227
H	 4.548038	 0.064914	 -0.086598
H	 3.593945	 0.282242	 1.360360
C	 2.089977	 -0.345145	 -1.703827
H	 2.943011	 -1.641659	 -0.214001
H	 1.667923	 -0.610898	 0.385174
C	 1.030268	 -1.324774	 -2.206004
H	 2.952883	 -0.378373	 -2.360556
H	 1.693900	 0.667491	 -1.758385
C	 0.494937	 -1.034402	 -3.609342
H	 1.434938	 -2.333577	 -2.177991
H	 0.194933	 -1.315364	 -1.511312
C	 1.507899	 -1.216483	 -4.738279
H	 -0.350252	 -1.691600	 -3.794470
H	 0.100612	 -0.021130	 -3.640036
C	 0.900988	 -1.012297	 -6.124055
H	 1.934418	 -2.215481	 -4.678661
H	 2.335248	 -0.524491	 -4.613201
C	 1.910488	 -1.189667	 -7.253365
H	 0.079982	 -1.710410	 -6.262493
H	 0.466932	 -0.017687	 -6.182435
H	 2.339407	 -2.186229	 -7.241933
H	 1.446997	 -1.040748	 -8.221924
H	 2.726139	 -0.479570	 -7.164883

	symmetry c1
}
set optking {
	frozen_dihedral = ("
		8 4 3 2
	")
}

ee,wfn = optimize('scf', return_wfn=True)
oeprop( wfn, 'DIPOLE', 'QUADRUPOLE', 'MULLIKEN_CHARGES')
f=open( 'psi4out.xyz', 'w' )
f.write( "27  " )
f.write( str(ee) + "\n" )
f.write( MOL.save_string_xyz() )
f.close()
--------------------------------------------------------------------------

    Molecular point group: c1
  Charge       = 0
  Multiplicity = 1
  Basis Set: CC-PVTZ
  Basis Set:
  @DF-RHF Final Energy:  -388.42502154804475
    Total Energy =                       -388.4250215480446968
    Molecular point group: c1
  Basis Set: CC-PVTZ
  Basis Set:
  Basis Set: CC-PVTZ
  Basis Set:
  @DF-RHF Final Energy:  -388.42563890741911
    Total Energy =                       -388.4256389074191702
  Basis Set: CC-PVTZ
  Basis Set:
  Basis Set: CC-PVTZ
  Basis Set:
  @DF-RHF Final Energy:  -388.42577653163607
    Total Energy =                       -388.4257765316357336
  Basis Set: CC-PVTZ
  Basis Set:
  Basis Set: CC-PVTZ
  Basis Set:
  @DF-RHF Final Energy:  -388.42578682982474
    Total Energy =                       -388.4257868298242329
  Basis Set: CC-PVTZ
  Basis Set:
  Basis Set: CC-PVTZ
  Basis Set:
  @DF-RHF Final Energy:  -388.42578403361102
    Total Energy =                       -388.4257840336115351
  Basis Set: CC-PVTZ
  Basis Set:
  Basis Set: CC-PVTZ
  Basis Set:
  @DF-RHF Final Energy:  -388.42578809499702
    Total Energy =                       -388.4257880949970740
  Basis Set: CC-PVTZ
  Basis Set:
  Charge       = 0
  Multiplicity = 1
  Basis Set: CC-PVTZ
  Basis Set:

    Orbital Energies (a.u.)
    -----------------------

    Doubly Occupied:

       1A    -20.546780     2A    -11.265665     3A    -11.214258
       4A    -11.210343     5A    -11.210146     6A    -11.208994
       7A    -11.208027     8A    -11.207476     9A    -11.204116
      10A     -1.364232    11A     -1.091687    12A     -1.058708
      13A     -1.009427    14A     -0.945778    15A     -0.884950
      16A     -0.819553    17A     -0.799917    18A     -0.774123
      19A     -0.684963    20A     -0.650594    21A     -0.640956
      22A     -0.614234    23A     -0.605112    24A     -0.585139
      25A     -0.570155    26A     -0.558142    27A     -0.539475
      28A     -0.519751    29A     -0.505028    30A     -0.492602
      31A     -0.478397    32A     -0.466122    33A     -0.466001
      34A     -0.456556    35A     -0.455507    36A     -0.439912
      37A     -0.423394

  @DF-RHF Final Energy:  -388.42578811930639

   => Energetics <=

    Nuclear Repulsion Energy =            460.5617430477677772
    One-Electron Energy =               -1439.6226177672851918
    Two-Electron Energy =                 590.6350866002105704
    DFT Exchange-Correlation Energy =       0.0000000000000000
    Empirical Dispersion Energy =           0.0000000000000000
    PCM Polarization Energy =               0.0000000000000000
    EFP Energy =                            0.0000000000000000
    Total Energy =                       -388.4257881193068442
    Molecular point group: c1
  Basis Set: CC-PVTZ
  Basis Set:

  -Total Gradient:
     Atom            X                  Y                   Z
    ------   -----------------  -----------------  -----------------
       1       -0.000003585198     0.000005267994     0.000000294062
       2        0.002388791745    -0.000850599833    -0.003530787515
       3       -0.002873260466     0.001239727408     0.003839276318
       4       -0.001494434255    -0.000809061835     0.004643020995
       5       -0.000008006859     0.000016356092    -0.000020678067
       6        0.000007197855    -0.000013717324     0.000008188392
       7        0.000007364431    -0.000008667700    -0.000012786857
       8        0.001976820651     0.000414123571    -0.004928797031
       9       -0.000001096275     0.000001224924     0.000003223132
      10        0.000003517656    -0.000002688336    -0.000000173447
      11       -0.000000894871    -0.000000029696     0.000002903496
      12       -0.000001675699     0.000003622937    -0.000000030478
      13        0.000002064883    -0.000005075743    -0.000002911977
      14        0.000001162330     0.000000324289     0.000002146509
      15       -0.000000738932    -0.000001818851     0.000000175237
      16        0.000000397622     0.000012575299    -0.000000388668
      17       -0.000002526679     0.000001763348    -0.000000617731
      18        0.000004727341     0.000000066996    -0.000001695983
      19       -0.000000066173    -0.000000879720    -0.000000354696
      20       -0.000000529526     0.000003412076     0.000002533797
      21       -0.000003291716     0.000000621950    -0.000001627244
      22       -0.000001815208    -0.000005664685    -0.000000520486
      23       -0.000002966504     0.000001318318    -0.000001059024
      24        0.000003443237    -0.000000662737     0.000000745908
      25        0.000001315179     0.000000062940    -0.000000836086
      26        0.000000121754    -0.000001619498    -0.000000193804
      27       -0.000002036323     0.000000017821     0.000000951244

  **** Optimization is complete! (in 7 steps) ****
    Final optimized geometry and variables:
    Molecular point group: c1

    Geometry (in Angstrom), charge = 0, multiplicity = 1:

    H            0.650574398351     2.581998252017     3.090282313967
    O            1.403031715507     2.189594249647     2.685564175855
    C            1.539214556219     0.856851645193     3.102305193392
    C            0.447502844713    -0.079193962564     2.587086752434
    H            2.495826931881     0.537902752689     2.708499208973
    H            1.602700346583     0.796055009866     4.185310286525
    C            0.058536721268     0.167580870695     1.129378462193
    H            0.832266604189    -1.093226313550     2.657526725349
    H           -0.435720158973    -0.019637613571     3.218088376570
    C           -0.946056301724    -0.861585398185     0.613709048207
    H            0.956953583821     0.153338815427     0.521037436994
    H           -0.359360677456     1.162342791267     1.023645859014
    C           -1.455969411900    -0.606954018339    -0.805974075451
    H           -0.504559739154    -1.854552370375     0.662170817361
    H           -1.800395584090    -0.879776296199     1.285584387652
    C           -0.402514099128    -0.743008120391    -1.903701169764
    H           -2.261941379179    -1.306373462239    -1.011210696560
    H           -1.898124957082     0.385510218063    -0.854308793719
    C           -0.977369027100    -0.574788878316    -3.307761776727
    H            0.070500037480    -1.719795773044    -1.826394152682
    H            0.384894118734    -0.010399196745    -1.756989984710
    C            0.072526709988    -0.707332986072    -4.405930640726
    H           -1.759292197080    -1.312449024458    -3.466669473245
    H           -1.456823124756     0.397400682246    -3.384384177979
    H            0.548110712070    -1.682186881264    -4.377017355985
    H           -0.368386184706    -0.584175164637    -5.388595651617
    H            0.850132884227     0.041303402339    -4.296433976446

  Mulliken Charges: (a.u.)
   Center  Symbol    Alpha    Beta     Spin     Total
       1     H     0.39536  0.39536  0.00000  0.20928
       2     O     4.20233  4.20233  0.00000 -0.40466
       3     C     2.97953  2.97953  0.00000  0.04095
       4     C     3.11444  3.11444  0.00000 -0.22889
       5     H     0.45675  0.45675  0.00000  0.08650
       6     H     0.45952  0.45952  0.00000  0.08097
       7     C     3.08083  3.08083  0.00000 -0.16166
       8     H     0.45375  0.45375  0.00000  0.09251
       9     H     0.45232  0.45232  0.00000  0.09536
      10     C     3.09856  3.09856  0.00000 -0.19713
      11     H     0.45177  0.45177  0.00000  0.09647
      12     H     0.45190  0.45190  0.00000  0.09619
      13     C     3.09736  3.09736  0.00000 -0.19471
      14     H     0.45440  0.45440  0.00000  0.09120
      15     H     0.44979  0.44979  0.00000  0.10043
      16     C     3.08823  3.08823  0.00000 -0.17645
      17     H     0.44912  0.44912  0.00000  0.10177
      18     H     0.45415  0.45415  0.00000  0.09171
      19     C     3.08389  3.08389  0.00000 -0.16779
      20     H     0.45594  0.45594  0.00000  0.08812
      21     H     0.45163  0.45163  0.00000  0.09675
      22     C     3.14979  3.14979  0.00000 -0.29959
      23     H     0.45459  0.45459  0.00000  0.09082
      24     H     0.45468  0.45468  0.00000  0.09064
      25     H     0.45561  0.45561  0.00000  0.08878
      26     H     0.44884  0.44884  0.00000  0.10232
      27     H     0.45493  0.45493  0.00000  0.09013

   Total alpha = 37.00000, Total beta = 37.00000, Total charge = -0.00000

*** Psi4 exiting successfully. Buy a developer a beer!
