  ==> Input File <==

--------------------------------------------------------------------------
set {
	reference rhf
	basis 6-31G*
}

set_num_threads( 4 )
memory 2 gb

molecule MOL {
0 1

H	 -3.161837	 0.500524	 -0.000234
C	 -2.367097	 -0.232926	 -0.000000
O	 -1.158440	 0.455814	 -0.000122
H	 -2.468853	 -0.861886	 -0.882833
H	 -2.468942	 -0.861421	 0.883154
C	 -0.029776	 -0.365156	 0.000148
C	 1.212217	 0.508981	 0.000007
H	 -0.036772	 -1.013236	 -0.877259
H	 -0.036869	 -1.012778	 0.877897
C	 2.283432	 0.002513	 0.964822
H	 1.606087	 0.547263	 -1.010964
H	 0.920564	 1.521617	 0.261170
H	 2.607246	 -1.001761	 0.705976
H	 3.157519	 0.644707	 0.944684
H	 1.916609	 -0.021174	 1.987213

	symmetry c1
}
set optking {
	frozen_dihedral = ("
		11 7 6 8
	")
}

ee = optimize('scf')
oeprop('DIPOLE', 'QUADRUPOLE', 'MULLIKEN_CHARGES')
f=open( 'psi4out.xyz', 'w' )
f.write( "15  " )
f.write( str(ee) + "\n" )
f.write( MOL.save_string_xyz() )
f.close()
--------------------------------------------------------------------------

    Molecular point group: c1
  Charge       = 0
  Multiplicity = 1
  Basis Set: 6-31G*
  Basis Set:
  @DF-RHF Final Energy:  -232.13425238601363
    Total Energy =                       -232.1342523860135998
    Molecular point group: c1
  Basis Set: 6-31G*
  Basis Set:
  Basis Set: 6-31G*
  Basis Set:
  @DF-RHF Final Energy:  -232.13461365424652
    Total Energy =                       -232.1346136542466070
  Basis Set: 6-31G*
  Basis Set:
  Basis Set: 6-31G*
  Basis Set:
  @DF-RHF Final Energy:  -232.13473178091434
    Total Energy =                       -232.1347317809141941
  Basis Set: 6-31G*
  Basis Set:
  Basis Set: 6-31G*
  Basis Set:
  @DF-RHF Final Energy:  -232.13473303640055
    Total Energy =                       -232.1347330364004051
  Basis Set: 6-31G*
  Basis Set:
  Charge       = 0
  Multiplicity = 1
  Basis Set: 6-31G*
  Basis Set:

    Orbital Energies (a.u.)
    -----------------------

    Doubly Occupied:

       1A    -20.552623     2A    -11.266584     3A    -11.263344
       4A    -11.214179     5A    -11.211617     6A     -1.376775
       7A     -1.054248     8A     -0.954041     9A     -0.877245
      10A     -0.808935    11A     -0.672165    12A     -0.654382
      13A     -0.631157    14A     -0.599837    15A     -0.568984
      16A     -0.544837    17A     -0.495402    18A     -0.488216
      19A     -0.479576    20A     -0.461035    21A     -0.411972

  @DF-RHF Final Energy:  -232.13473474292101

   => Energetics <=

    Nuclear Repulsion Energy =            189.7111675415505374
    One-Electron Energy =                -690.5174961450043156
    Two-Electron Energy =                 268.6715938605326528
    DFT Exchange-Correlation Energy =       0.0000000000000000
    Empirical Dispersion Energy =           0.0000000000000000
    PCM Polarization Energy =               0.0000000000000000
    EFP Energy =                            0.0000000000000000
    Total Energy =                       -232.1347347429211254
    Molecular point group: c1
  Basis Set: 6-31G*
  Basis Set:

  -Total Gradient:
     Atom            X                  Y                   Z
    ------   -----------------  -----------------  -----------------
       1       -0.000023247956    -0.000015374530     0.000004613882
       2       -0.000066394522     0.000012138902    -0.000007510807
       3        0.000090219770    -0.000067331947    -0.000012985818
       4       -0.000008075253    -0.000001457632     0.000007394314
       5       -0.000007023899     0.000001265553    -0.000003891335
       6        0.002986370453    -0.004101168054     0.002624438414
       7       -0.003182245893     0.004565415660    -0.001399132798
       8       -0.001968304141     0.002740326256    -0.001976822185
       9        0.000007655449     0.000026644791    -0.000016490741
      10       -0.000005450624     0.000009175771     0.000035651994
      11        0.002155912109    -0.003145476398     0.000735230198
      12        0.000001854842    -0.000020151303     0.000007983901
      13       -0.000009197038    -0.000000807943    -0.000008389659
      14        0.000004602065     0.000003916010     0.000001617248
      15        0.000023324642    -0.000007115140     0.000008293392

  **** Optimization is complete! (in 5 steps) ****
    Final optimized geometry and variables:
    Molecular point group: c1

    Geometry (in Angstrom), charge = 0, multiplicity = 1:

    H           -3.130259002089     0.426957619972    -0.237406531476
    C           -2.331564313221    -0.302213001299    -0.223752407430
    O           -1.126989920802     0.391931414011    -0.190565794331
    H           -2.409844838158    -0.925849294561    -1.112938766094
    H           -2.451319164303    -0.937896689116     0.652258540356
    C            0.006460827050    -0.429417768319    -0.163463535875
    C            1.257483971353     0.453675386032    -0.181393213465
    H           -0.015906930643    -1.083921901655    -1.033828000442
    H           -0.016469888698    -1.056009058262     0.727660129862
    C            2.358062872387    -0.060105380047     0.749226726181
    H            1.656998216380     0.500970286232    -1.189740671812
    H            0.964407500540     1.456093549913     0.105980981490
    H            2.655603740105    -1.072698259661     0.489245719424
    H            3.242419360627     0.566039354020     0.689521519957
    H            2.025430901219    -0.068689967604     1.783082068717

  Mulliken Charges: (a.u.)
   Center  Symbol    Alpha    Beta     Spin     Total
       1     H     0.41234  0.41234  0.00000  0.17531
       2     C     3.07962  3.07962  0.00000 -0.15924
       3     O     4.30610  4.30610  0.00000 -0.61219
       4     H     0.43079  0.43079  0.00000  0.13842
       5     H     0.43084  0.43084  0.00000  0.13831
       6     C     2.98609  2.98609  0.00000  0.02781
       7     C     3.16454  3.16454  0.00000 -0.32908
       8     H     0.43087  0.43087  0.00000  0.13825
       9     H     0.43002  0.43002  0.00000  0.13996
      10     C     3.24658  3.24658  0.00000 -0.49316
      11     H     0.41846  0.41846  0.00000  0.16309
      12     H     0.40434  0.40434  0.00000  0.19132
      13     H     0.42262  0.42262  0.00000  0.15475
      14     H     0.41768  0.41768  0.00000  0.16463
      15     H     0.41910  0.41910  0.00000  0.16180

   Total alpha = 21.00000, Total beta = 21.00000, Total charge =  0.00000
