  ==> Input File <==

--------------------------------------------------------------------------
set {
	reference rhf
	basis 6-31G*
}

set_num_threads( 4 )
memory 2 gb

molecule MOL {
0 1

H	 2.242674	 -1.903917	 0.231304
O	 2.826016	 -1.159218	 0.122261
C	 2.077727	 -0.067559	 -0.035091
C	 0.624473	 -0.343591	 0.253101
O	 2.542965	 0.974826	 -0.363729
C	 -0.265902	 0.883932	 0.072916
H	 0.324016	 -1.163849	 -0.390541
H	 0.565024	 -0.726111	 1.268924
C	 -1.728698	 0.646073	 0.462102
H	 -0.209144	 1.219470	 -0.958188
H	 0.135059	 1.692851	 0.673903
C	 -2.482460	 -0.343073	 -0.431425
H	 -2.245265	 1.602650	 0.432430
H	 -1.779332	 0.308348	 1.496285
C	 -3.960546	 -0.461025	 -0.060175
H	 -2.395034	 -0.026811	 -1.468912
H	 -2.024850	 -1.327147	 -0.371646
H	 -4.472726	 -1.168004	 -0.705284
H	 -4.465146	 0.496508	 -0.151489
H	 -4.081218	 -0.800940	 0.964585

	symmetry c1
}
set optking {
	frozen_dihedral = ("
		1 2 3 5
	")
}

ee = optimize('scf')
oeprop('DIPOLE', 'QUADRUPOLE', 'MULLIKEN_CHARGES')
f=open( 'psi4out.xyz', 'w' )
f.write( "20  " )
f.write( str(ee) + "\n" )
f.write( MOL.save_string_xyz() )
f.close()
--------------------------------------------------------------------------

    Molecular point group: c1
  Charge       = 0
  Multiplicity = 1
  Basis Set: 6-31G*
  Basis Set:
  @DF-RHF Final Energy:  -383.93575579872817
    Total Energy =                       -383.9357557987279392
    Molecular point group: c1
  Basis Set: 6-31G*
  Basis Set:
  Basis Set: 6-31G*
  Basis Set:
  @DF-RHF Final Energy:  -383.93716748118516
    Total Energy =                       -383.9371674811848720
  Basis Set: 6-31G*
  Basis Set:
  Basis Set: 6-31G*
  Basis Set:
  @DF-RHF Final Energy:  -383.93736935938568
    Total Energy =                       -383.9373693593853432
  Basis Set: 6-31G*
  Basis Set:
  Basis Set: 6-31G*
  Basis Set:
  @DF-RHF Final Energy:  -383.93733675810392
    Total Energy =                       -383.9373367581039815
  Basis Set: 6-31G*
  Basis Set:
  Basis Set: 6-31G*
  Basis Set:
  @DF-RHF Final Energy:  -383.93737501515085
    Total Energy =                       -383.9373750151509057
  Basis Set: 6-31G*
  Basis Set:
  Charge       = 0
  Multiplicity = 1
  Basis Set: 6-31G*
  Basis Set:

    Orbital Energies (a.u.)
    -----------------------

    Doubly Occupied:

       1A    -20.612104     2A    -20.547213     3A    -11.380235
       4A    -11.252189     5A    -11.228834     6A    -11.226202
       7A    -11.225512     8A    -11.216885     9A     -1.467814
      10A     -1.369605    11A     -1.101657    12A     -1.044611
      13A     -0.961104    14A     -0.866521    15A     -0.831065
      16A     -0.793561    17A     -0.720757    18A     -0.669238
      19A     -0.658258    20A     -0.637490    21A     -0.606882
      22A     -0.601396    23A     -0.576156    24A     -0.564402
      25A     -0.543930    26A     -0.518081    27A     -0.501112
      28A     -0.477733    29A     -0.475514    30A     -0.470828
      31A     -0.462721    32A     -0.439416

  @DF-RHF Final Energy:  -383.93737548202995

   => Energetics <=

    Nuclear Repulsion Energy =            375.9293574615816738
    One-Electron Energy =               -1267.6354139428176495
    Two-Electron Energy =                 507.7686809992058556
    DFT Exchange-Correlation Energy =       0.0000000000000000
    Empirical Dispersion Energy =           0.0000000000000000
    PCM Polarization Energy =               0.0000000000000000
    EFP Energy =                            0.0000000000000000
    Total Energy =                       -383.9373754820300633
    Molecular point group: c1
  Basis Set: 6-31G*
  Basis Set:

  -Total Gradient:
     Atom            X                  Y                   Z
    ------   -----------------  -----------------  -----------------
       1       -0.000017596596    -0.000387850890    -0.002458558206
       2       -0.000139179039     0.000219377944     0.002228663450
       3        0.000457595243     0.000641863338     0.002247406599
       4        0.000020071165     0.000002430318     0.000010049697
       5       -0.000311022347    -0.000471608719    -0.002034917530
       6       -0.000015062044     0.000001932176    -0.000015094183
       7        0.000013012549     0.000010364892     0.000012642652
       8       -0.000002603701     0.000000837277     0.000001933481
       9       -0.000004248056    -0.000006183882     0.000006731207
      10        0.000003918674    -0.000008264501    -0.000004861476
      11       -0.000005169841    -0.000003963345    -0.000002255516
      12        0.000002417469    -0.000007492885     0.000006898314
      13       -0.000001470450     0.000002052565     0.000006964628
      14        0.000008015251    -0.000009017053     0.000001035580
      15       -0.000000505670     0.000016391594    -0.000007312711
      16        0.000004854474    -0.000006769243    -0.000002471343
      17       -0.000012461553     0.000003072079     0.000004073707
      18        0.000000870756     0.000004699134    -0.000003762910
      19       -0.000003915972     0.000001595041     0.000005186293
      20        0.000002479680    -0.000003465842    -0.000002351733

  **** Optimization is complete! (in 6 steps) ****
    Final optimized geometry and variables:
    Molecular point group: c1

    Geometry (in Angstrom), charge = 0, multiplicity = 1:

    H            2.421867963916    -1.929304698231     0.239758368133
    O            2.904578941668    -1.122929563778     0.116694693898
    C            2.091072988658    -0.070494777609    -0.035896791841
    C            0.628782908280    -0.346162544111     0.253455676726
    O            2.527033787723     0.974322829982    -0.373506639150
    C           -0.260006085313     0.882817328429     0.073508151094
    H            0.311844969672    -1.159651084327    -0.395404070535
    H            0.558460323132    -0.724250773555     1.272130645158
    C           -1.723531803264     0.650303859947     0.462402398418
    H           -0.198948559935     1.216620536417    -0.957338100274
    H            0.146508967273     1.688187034284     0.674531409213
    C           -2.482847575405    -0.334062140401    -0.431800311550
    H           -2.234705684963     1.609544600038     0.432718757221
    H           -1.776711840140     0.313250150479     1.496740697370
    C           -3.962875475050    -0.439378559559    -0.064639331143
    H           -2.389641066341    -0.020549596808    -1.469512072864
    H           -2.034063903929    -1.322460445008    -0.369224757467
    H           -4.478964944808    -1.142934487931    -0.710260317791
    H           -4.458893751679     0.522174166652    -0.159088254740
    H           -4.089480389842    -0.776446775783     0.960329935152

  Mulliken Charges: (a.u.)
   Center  Symbol    Alpha    Beta     Spin     Total
       1     H     0.26887  0.26887  0.00000  0.46226
       2     O     4.35265  4.35265  0.00000 -0.70531
       3     C     2.60543  2.60543  0.00000  0.78915
       4     C     3.23940  3.23940  0.00000 -0.47880
       5     O     4.26347  4.26347  0.00000 -0.52695
       6     C     3.15218  3.15218  0.00000 -0.30435
       7     H     0.40559  0.40559  0.00000  0.18883
       8     H     0.40329  0.40329  0.00000  0.19342
       9     C     3.15647  3.15647  0.00000 -0.31295
      10     H     0.40936  0.40936  0.00000  0.18127
      11     H     0.40465  0.40465  0.00000  0.19070
      12     C     3.15468  3.15468  0.00000 -0.30937
      13     H     0.41609  0.41609  0.00000  0.16781
      14     H     0.42385  0.42385  0.00000  0.15230
      15     C     3.23930  3.23930  0.00000 -0.47860
      16     H     0.42029  0.42029  0.00000  0.15941
      17     H     0.42573  0.42573  0.00000  0.14854
      18     H     0.41788  0.41788  0.00000  0.16424
      19     H     0.41954  0.41954  0.00000  0.16093
      20     H     0.42127  0.42127  0.00000  0.15746

   Total alpha = 32.00000, Total beta = 32.00000, Total charge =  0.00000
