  ==> Input File <==

--------------------------------------------------------------------------
set {
	reference rhf
	basis 6-31G*
}

set_num_threads( 1 )
memory 2 gb

molecule MOL {
0 1

H	 0.488216	 1.425643	 -1.874552
C	 0.632268	 1.724694	 -0.829268
C	 0.692068	 0.589600	 0.160137
O	 0.729169	 2.874565	 -0.545478
C	 -0.558097	 -0.297372	 0.091132
H	 0.825190	 1.008803	 1.150606
H	 1.572005	 -0.008624	 -0.073681
C	 -1.850991	 0.512573	 -0.019058
H	 -0.476753	 -0.965681	 -0.762987
H	 -0.604799	 -0.930658	 0.975228
C	 -3.096943	 -0.368295	 -0.099594
H	 -1.800724	 1.150330	 -0.898172
H	 -1.931651	 1.177355	 0.838044
H	 -3.060452	 -1.020287	 -0.967456
H	 -3.996858	 0.233488	 -0.175704
H	 -3.191959	 -0.995686	 0.782074

	symmetry c1
}
set optking {
	frozen_dihedral = ("
		9 5 8 12,
		4 2 3 6
	")
}

ee = energy('scf')
oeprop('DIPOLE', 'QUADRUPOLE', 'MULLIKEN_CHARGES')
f=open( 'psi4out.xyz', 'w' )
f.write( "16  " )
f.write( str(ee) + "\n" )
f.write( MOL.save_string_xyz() )
f.close()
--------------------------------------------------------------------------

    Molecular point group: c1

    Geometry (in Angstrom), charge = 0, multiplicity = 1:

       Center              X                  Y                   Z               Mass
    ------------   -----------------  -----------------  -----------------  -----------------
           H          1.078300269530     0.577574798686    -1.664275513401     1.007825032070
           C          1.222352269530     0.876625798686    -0.618991513401    12.000000000000
           C          1.282152269530    -0.258468201314     0.370413486599    12.000000000000
           O          1.319253269530     2.026496798686    -0.335201513401    15.994914619560
           C          0.031987269530    -1.145440201314     0.301408486599    12.000000000000
           H          1.415274269530     0.160734798686     1.360882486599     1.007825032070
           H          2.162089269530    -0.856692201314     0.136595486599     1.007825032070
           C         -1.260906730470    -0.335495201314     0.191218486599    12.000000000000
           H          0.113331269530    -1.813749201314    -0.552710513401     1.007825032070
           H         -0.014714730470    -1.778726201314     1.185504486599     1.007825032070
           C         -2.506858730470    -1.216363201314     0.110682486599    12.000000000000
           H         -1.210639730470     0.302261798686    -0.687895513401     1.007825032070
           H         -1.341566730470     0.329286798686     1.048320486599     1.007825032070
           H         -2.470367730470    -1.868355201314    -0.757179513401     1.007825032070
           H         -3.406773730470    -0.614580201314     0.034572486599     1.007825032070
           H         -2.601874730470    -1.843754201314     0.992350486599     1.007825032070

  Charge       = 0
  Multiplicity = 1
  Basis Set: 6-31G*
  Basis Set:

    Orbital Energies (a.u.)
    -----------------------

    Doubly Occupied:

       1A    -20.561784     2A    -11.326504     3A    -11.235556
       4A    -11.234608     5A    -11.227247     6A    -11.217555
       7A     -1.402049     8A     -1.097742     9A     -1.015764
      10A     -0.903661    11A     -0.827975    12A     -0.781605
      13A     -0.668630    14A     -0.652181    15A     -0.620824
      16A     -0.609029    17A     -0.587122    18A     -0.554119
      19A     -0.522673    20A     -0.513557    21A     -0.492504
      22A     -0.477637    23A     -0.468317    24A     -0.409164

  @DF-RHF Final Energy:  -270.01669166411523

   => Energetics <=

    Nuclear Repulsion Energy =            235.5403151415363823
    One-Electron Energy =                -832.2984347134763539
    Two-Electron Energy =                 326.7414279078249137
    DFT Exchange-Correlation Energy =       0.0000000000000000
    Empirical Dispersion Energy =           0.0000000000000000
    PCM Polarization Energy =               0.0000000000000000
    EFP Energy =                            0.0000000000000000
    Total Energy =                       -270.0166916641150010

  Mulliken Charges: (a.u.)
   Center  Symbol    Alpha    Beta     Spin     Total
       1     H     0.43189  0.43189  0.00000  0.13621
       2     C     2.83320  2.83320  0.00000  0.33361
       3     C     3.20656  3.20656  0.00000 -0.41313
       4     O     4.23836  4.23836  0.00000 -0.47672
       5     C     3.16239  3.16239  0.00000 -0.32477
       6     H     0.39981  0.39981  0.00000  0.20039
       7     H     0.40733  0.40733  0.00000  0.18533
       8     C     3.16084  3.16084  0.00000 -0.32169
       9     H     0.41918  0.41918  0.00000  0.16165
      10     H     0.41204  0.41204  0.00000  0.17591
      11     C     3.23961  3.23961  0.00000 -0.47923
      12     H     0.41838  0.41838  0.00000  0.16323
      13     H     0.41388  0.41388  0.00000  0.17224
      14     H     0.42100  0.42100  0.00000  0.15799
      15     H     0.41542  0.41542  0.00000  0.16916
      16     H     0.42009  0.42009  0.00000  0.15982

   Total alpha = 24.00000, Total beta = 24.00000, Total charge = -0.00000
