  ==> Input File <==

--------------------------------------------------------------------------
set {
	reference rhf
	basis 6-31G*
}

set_num_threads( 1 )
memory 2 gb

molecule MOL {
0 1

H	 0.010058	 4.087899	 0.860342
O	 -0.143639	 3.811128	 -0.031938
C	 -0.149280	 2.410164	 -0.097196
C	 1.256667	 1.847534	 0.014278
H	 -0.779267	 1.975158	 0.673676
H	 -0.570216	 2.142128	 -1.056059
O	 1.171513	 0.459272	 -0.058250
H	 1.709445	 2.155151	 0.958917
H	 1.874403	 2.246257	 -0.788223
C	 2.397842	 -0.198080	 -0.002151
H	 2.508049	 -0.905315	 -0.822092
H	 3.173794	 0.550865	 -0.078850
H	 2.517602	 -0.735921	 0.936026

	symmetry c1
}
set optking {
	frozen_dihedral = ("
		8 4 3 5,
		1 2 3 5,
		10 7 4 8
	")
}

ee = energy('scf')
oeprop('DIPOLE', 'QUADRUPOLE', 'MULLIKEN_CHARGES')
f=open( 'psi4out.xyz', 'w' )
f.write( "13  " )
f.write( str(ee) + "\n" )
f.write( MOL.save_string_xyz() )
f.close()
--------------------------------------------------------------------------

    Molecular point group: c1

    Geometry (in Angstrom), charge = 0, multiplicity = 1:

       Center              X                  Y                   Z               Mass
    ------------   -----------------  -----------------  -----------------  -----------------
           H         -0.897593431117     2.396612645957     0.883671827956     1.007825032070
           O         -1.051290431117     2.119841645957    -0.008608172044    15.994914619560
           C         -1.056931431117     0.718877645957    -0.073866172044    12.000000000000
           C          0.349015568883     0.156247645957     0.037607827956    12.000000000000
           H         -1.686918431117     0.283871645957     0.697005827956     1.007825032070
           H         -1.477867431117     0.450841645957    -1.032729172044     1.007825032070
           O          0.263861568883    -1.232014354043    -0.034920172044    15.994914619560
           H          0.801793568883     0.463864645957     0.982246827956     1.007825032070
           H          0.966751568883     0.554970645957    -0.764893172044     1.007825032070
           C          1.490190568883    -1.889366354043     0.021178827956    12.000000000000
           H          1.600397568883    -2.596601354043    -0.798762172044     1.007825032070
           H          2.266142568883    -1.140421354043    -0.055520172044     1.007825032070
           H          1.609950568883    -2.427207354043     0.959355827956     1.007825032070

  Charge       = 0
  Multiplicity = 1
  Basis Set: 6-31G*
  Basis Set:

    Orbital Energies (a.u.)
    -----------------------

    Doubly Occupied:

       1A    -20.560193     2A    -20.559148     3A    -11.271928
       4A    -11.269717     5A    -11.268868     6A     -1.387945
       7A     -1.365159     8A     -1.017778     9A     -0.913086
      10A     -0.843879    11A     -0.709517    12A     -0.671703
      13A     -0.658606    14A     -0.639990    15A     -0.595889
      16A     -0.569094    17A     -0.548085    18A     -0.489692
      19A     -0.481476    20A     -0.438678    21A     -0.417338

  @DF-RHF Final Energy:  -267.94577947793681

   => Energetics <=

    Nuclear Repulsion Energy =            190.3412442808141805
    One-Electron Energy =                -743.2184998854386322
    Two-Electron Energy =                 284.9314761266880964
    DFT Exchange-Correlation Energy =       0.0000000000000000
    Empirical Dispersion Energy =           0.0000000000000000
    PCM Polarization Energy =               0.0000000000000000
    EFP Energy =                            0.0000000000000000
    Total Energy =                       -267.9457794779363553

  Mulliken Charges: (a.u.)
   Center  Symbol    Alpha    Beta     Spin     Total
       1     H     0.28128  0.28128  0.00000  0.43745
       2     O     4.37083  4.37083  0.00000 -0.74167
       3     C     3.00479  3.00479  0.00000 -0.00959
       4     C     2.99919  2.99919  0.00000  0.00162
       5     H     0.42212  0.42212  0.00000  0.15576
       6     H     0.40835  0.40835  0.00000  0.18331
       7     O     4.30977  4.30977  0.00000 -0.61955
       8     H     0.43699  0.43699  0.00000  0.12602
       9     H     0.42227  0.42227  0.00000  0.15546
      10     C     3.07582  3.07582  0.00000 -0.15165
      11     H     0.41750  0.41750  0.00000  0.16500
      12     H     0.42883  0.42883  0.00000  0.14234
      13     H     0.42226  0.42226  0.00000  0.15548

   Total alpha = 21.00000, Total beta = 21.00000, Total charge = -0.00000
