  ==> Input File <==

--------------------------------------------------------------------------
set {
	reference rhf
	basis cc-pvtz
}

set_num_threads( 4 )
memory 2 gb

molecule MOL {
0 1

H	 1.869947	 1.718805	 0.134529
O	 0.988976	 1.375894	 0.140727
C	 1.050374	 0.054877	 0.000135
C	 -0.318151	 -0.570512	 0.000144
O	 2.078184	 -0.519370	 -0.108562
C	 -1.454884	 0.441630	 -0.000560
H	 -0.371613	 -1.223646	 -0.864985
H	 -0.371920	 -1.222758	 0.865929
C	 -2.822577	 -0.232186	 0.000063
H	 -1.359760	 1.084704	 -0.867077
H	 -1.359641	 1.085996	 0.864983
H	 -2.954352	 -0.858985	 -0.875745
H	 -3.615886	 0.505352	 0.000019
H	 -2.953878	 -0.858359	 0.876394

	symmetry c1
}
set optking {
	frozen_dihedral = ("
		2 3 4 7
	")
}

ee = optimize('scf')
oeprop('DIPOLE', 'QUADRUPOLE', 'MULLIKEN_CHARGES')
f=open( 'psi4out.xyz', 'w' )
f.write( "14  " )
f.write( str(ee) + "\n" )
f.write( MOL.save_string_xyz() )
f.close()
--------------------------------------------------------------------------

    Molecular point group: c1
  Charge       = 0
  Multiplicity = 1
  Basis Set: CC-PVTZ
  Basis Set:
  @DF-RHF Final Energy:  -305.99698936843322
    Total Energy =                       -305.9969893684333329
    Molecular point group: c1
  Basis Set: CC-PVTZ
  Basis Set:
  Basis Set: CC-PVTZ
  Basis Set:
  @DF-RHF Final Energy:  -305.99795444764504
    Total Energy =                       -305.9979544476451565
  Basis Set: CC-PVTZ
  Basis Set:
  Basis Set: CC-PVTZ
  Basis Set:
  @DF-RHF Final Energy:  -305.99825586084398
    Total Energy =                       -305.9982558608439831
  Basis Set: CC-PVTZ
  Basis Set:
  Basis Set: CC-PVTZ
  Basis Set:
  @DF-RHF Final Energy:  -305.99825875305697
    Total Energy =                       -305.9982587530568594
  Basis Set: CC-PVTZ
  Basis Set:
  Basis Set: CC-PVTZ
  Basis Set:
  @DF-RHF Final Energy:  -305.99823232919181
    Total Energy =                       -305.9982323291919215
  Basis Set: CC-PVTZ
  Basis Set:
  Basis Set: CC-PVTZ
  Basis Set:
  @DF-RHF Final Energy:  -305.99827658154874
    Total Energy =                       -305.9982765815485664
  Basis Set: CC-PVTZ
  Basis Set:
  Charge       = 0
  Multiplicity = 1
  Basis Set: CC-PVTZ
  Basis Set:

    Orbital Energies (a.u.)
    -----------------------

    Doubly Occupied:

       1A    -20.607450     2A    -20.536402     3A    -11.374604
       4A    -11.240161     5A    -11.228083     6A    -11.217734
       7A     -1.479396     8A     -1.368137     9A     -1.086261
      10A     -0.979118    11A     -0.848343    12A     -0.821373
      13A     -0.703631    14A     -0.681297    15A     -0.670318
      16A     -0.619140    17A     -0.593007    18A     -0.565095
      19A     -0.550370    20A     -0.527848    21A     -0.497452
      22A     -0.494732    23A     -0.470031    24A     -0.439913

  @DF-RHF Final Energy:  -305.99827670421723

   => Energetics <=

    Nuclear Repulsion Energy =            240.8480326944891203
    One-Electron Energy =                -894.4928294112901312
    Two-Electron Energy =                 347.6465200125834940
    DFT Exchange-Correlation Energy =       0.0000000000000000
    Empirical Dispersion Energy =           0.0000000000000000
    PCM Polarization Energy =               0.0000000000000000
    EFP Energy =                            0.0000000000000000
    Total Energy =                       -305.9982767042175169
    Molecular point group: c1
  Basis Set: CC-PVTZ
  Basis Set:

  -Total Gradient:
     Atom            X                  Y                   Z
    ------   -----------------  -----------------  -----------------
       1        0.000001006293     0.000001211298    -0.000000132914
       2       -0.000007058016     0.000056950156    -0.000211540621
       3        0.000015539389    -0.000047962613     0.000257281782
       4        0.000092816189    -0.000217540385     0.000097374915
       5       -0.000027294672     0.000018565068     0.000005734040
       6        0.000001918283     0.000005007542    -0.000015676145
       7       -0.000083945922     0.000193840005    -0.000143011797
       8        0.000000669902    -0.000004825724     0.000001913887
       9        0.000002798687    -0.000006767220     0.000007213178
      10        0.000000628723     0.000002310620    -0.000000197137
      11       -0.000000079081    -0.000000742509    -0.000000233829
      12        0.000000609313     0.000002423631    -0.000001370044
      13        0.000004410610     0.000000534818     0.000001564893
      14       -0.000002019697    -0.000003004685     0.000001079792

  **** Optimization is complete! (in 7 steps) ****
    Final optimized geometry and variables:
    Molecular point group: c1

    Geometry (in Angstrom), charge = 0, multiplicity = 1:

    H            2.048707851308     1.548628310891     0.113149809489
    O            1.143220297050     1.275896433225     0.118025643980
    C            1.109057474413    -0.044965868372    -0.006323797876
    C           -0.280319296917    -0.634977460619    -0.004737706581
    O            2.095714188194    -0.690940401825    -0.103198213139
    C           -1.449586235079     0.343557661395    -0.001739039591
    H           -0.324970938625    -1.288491535832    -0.868113156912
    H           -0.322726750716    -1.286036709608     0.862191716602
    C           -2.791455207937    -0.380828324715    -0.012568952233
    H           -1.380080360659     0.995621077440    -0.864677147823
    H           -1.386799843297     0.983754537624     0.869740296317
    H           -2.894951034881    -1.005338888252    -0.893539283964
    H           -3.612147443890     0.326164338827    -0.010393374898
    H           -2.901561797537    -1.018233705545     0.858389299736

  Mulliken Charges: (a.u.)
   Center  Symbol    Alpha    Beta     Spin     Total
       1     H     0.38515  0.38515  0.00000  0.22970
       2     O     4.14910  4.14910  0.00000 -0.29821
       3     C     2.81166  2.81166  0.00000  0.37668
       4     C     3.09837  3.09837  0.00000 -0.19675
       5     O     4.19788  4.19788  0.00000 -0.39576
       6     C     3.08362  3.08362  0.00000 -0.16724
       7     H     0.43637  0.43637  0.00000  0.12727
       8     H     0.43824  0.43824  0.00000  0.12352
       9     C     3.15195  3.15195  0.00000 -0.30391
      10     H     0.44712  0.44712  0.00000  0.10576
      11     H     0.44625  0.44625  0.00000  0.10751
      12     H     0.45436  0.45436  0.00000  0.09128
      13     H     0.44538  0.44538  0.00000  0.10923
      14     H     0.45455  0.45455  0.00000  0.09091

   Total alpha = 24.00000, Total beta = 24.00000, Total charge = -0.00000
