  ==> Input File <==

--------------------------------------------------------------------------
set {
	reference rhf
	basis 6-31G*
}

set_num_threads( 1 )
memory 2 gb

molecule MOL {
0 1

O	 -2.495939	 0.865567	 1.461725
C	 -2.495917	 -0.105459	 0.774903
C	 -3.647953	 -1.073298	 0.689053
O	 -1.481751	 -0.454642	 0.000584
H	 -4.531111	 -0.535177	 0.366069
H	 -3.442405	 -1.884925	 0.006815
H	 -3.847144	 -1.465752	 1.679095
C	 -0.334255	 0.388708	 0.000906
C	 0.891947	 -0.504646	 0.000751
H	 -0.365390	 1.025305	 -0.873475
H	 -0.365484	 1.024911	 0.875569
C	 2.191998	 0.301789	 0.000897
H	 0.855148	 -1.151283	 -0.871571
H	 0.855132	 -1.151660	 0.872805
C	 3.441114	 -0.581407	 0.000108
H	 2.215074	 0.954890	 -0.869742
H	 2.215465	 0.953923	 0.872248
C	 4.739576	 0.224112	 -0.001102
H	 3.419457	 -1.233487	 -0.870178
H	 3.420834	 -1.233096	 0.870717
H	 4.804918	 0.861552	 -0.878265
H	 5.606527	 -0.429058	 -0.001824
H	 4.806469	 0.861674	 0.875853

	symmetry c1
}
set optking {
	frozen_dihedral = ("
		13 9 8 10,
		16 12 9 13,
		19 15 12 16,
		1 2 4 8
	")
}

ee = energy('scf')
oeprop('DIPOLE', 'QUADRUPOLE', 'MULLIKEN_CHARGES')
f=open( 'psi4out.xyz', 'w' )
f.write( "23  " )
f.write( str(ee) + "\n" )
f.write( MOL.save_string_xyz() )
f.close()
--------------------------------------------------------------------------

    Molecular point group: c1

    Geometry (in Angstrom), charge = 0, multiplicity = 1:

       Center              X                  Y                   Z               Mass
    ------------   -----------------  -----------------  -----------------  -----------------
           O         -2.569615294237     0.965940321782     1.130855712005    15.994914619560
           C         -2.569593294237    -0.005085678218     0.444033712005    12.000000000000
           C         -3.721629294237    -0.972924678218     0.358183712005    12.000000000000
           O         -1.555427294237    -0.354268678218    -0.330285287995    15.994914619560
           H         -4.604787294237    -0.434803678218     0.035199712005     1.007825032070
           H         -3.516081294237    -1.784551678218    -0.324054287995     1.007825032070
           H         -3.920820294237    -1.365378678218     1.348225712005     1.007825032070
           C         -0.407931294237     0.489081321782    -0.329963287995    12.000000000000
           C          0.818270705763    -0.404272678218    -0.330118287995    12.000000000000
           H         -0.439066294237     1.125678321782    -1.204344287995     1.007825032070
           H         -0.439160294237     1.125284321782     0.544699712005     1.007825032070
           C          2.118321705763     0.402162321782    -0.329972287995    12.000000000000
           H          0.781471705763    -1.050909678218    -1.202440287995     1.007825032070
           H          0.781455705763    -1.051286678218     0.541935712005     1.007825032070
           C          3.367437705763    -0.481033678218    -0.330761287995    12.000000000000
           H          2.141397705763     1.055263321782    -1.200611287995     1.007825032070
           H          2.141788705763     1.054296321782     0.541378712005     1.007825032070
           C          4.665899705763     0.324485321782    -0.331971287995    12.000000000000
           H          3.345780705763    -1.133113678218    -1.201047287995     1.007825032070
           H          3.347157705763    -1.132722678218     0.539847712005     1.007825032070
           H          4.731241705763     0.961925321782    -1.209134287995     1.007825032070
           H          5.532850705763    -0.328684678218    -0.332693287995     1.007825032070
           H          4.732792705763     0.962047321782     0.544983712005     1.007825032070

  Charge       = 0
  Multiplicity = 1
  Basis Set: 6-31G*
  Basis Set:

    Orbital Energies (a.u.)
    -----------------------

    Doubly Occupied:

       1A    -20.603327     2A    -20.540244     3A    -11.375443
       4A    -11.277979     5A    -11.233025     6A    -11.222987
       7A    -11.222366     8A    -11.220791     9A    -11.212265
      10A     -1.468711    11A     -1.361309    12A     -1.092985
      13A     -1.041889    14A     -1.003222    15A     -0.930403
      16A     -0.842843    17A     -0.801116    18A     -0.773921
      19A     -0.697914    20A     -0.681594    21A     -0.663881
      22A     -0.647020    23A     -0.605141    24A     -0.587605
      25A     -0.583653    26A     -0.570272    27A     -0.553273
      28A     -0.538587    29A     -0.522813    30A     -0.507138
      31A     -0.488752    32A     -0.477435    33A     -0.471521
      34A     -0.469237    35A     -0.445502    36A     -0.433651

  @DF-RHF Final Energy:  -422.97734455094314

   => Energetics <=

    Nuclear Repulsion Energy =            451.4506143946175598
    One-Electron Energy =               -1470.5163716265471976
    Two-Electron Energy =                 596.0884126809871759
    DFT Exchange-Correlation Energy =       0.0000000000000000
    Empirical Dispersion Energy =           0.0000000000000000
    PCM Polarization Energy =               0.0000000000000000
    EFP Energy =                            0.0000000000000000
    Total Energy =                       -422.9773445509424619

  Mulliken Charges: (a.u.)
   Center  Symbol    Alpha    Beta     Spin     Total
       1     O     4.28427  4.28427  0.00000 -0.56855
       2     C     2.61554  2.61554  0.00000  0.76891
       3     C     3.28868  3.28868  0.00000 -0.57736
       4     O     4.31106  4.31106  0.00000 -0.62212
       5     H     0.39712  0.39712  0.00000  0.20576
       6     H     0.39963  0.39963  0.00000  0.20073
       7     H     0.39746  0.39746  0.00000  0.20508
       8     C     3.00742  3.00742  0.00000 -0.01485
       9     C     3.16221  3.16221  0.00000 -0.32442
      10     H     0.41549  0.41549  0.00000  0.16901
      11     H     0.39378  0.39378  0.00000  0.21243
      12     C     3.16076  3.16076  0.00000 -0.32152
      13     H     0.41494  0.41494  0.00000  0.17013
      14     H     0.41565  0.41565  0.00000  0.16871
      15     C     3.15132  3.15132  0.00000 -0.30264
      16     H     0.42189  0.42189  0.00000  0.15622
      17     H     0.41993  0.41993  0.00000  0.16014
      18     C     3.23984  3.23984  0.00000 -0.47968
      19     H     0.42163  0.42163  0.00000  0.15674
      20     H     0.42131  0.42131  0.00000  0.15738
      21     H     0.42121  0.42121  0.00000  0.15758
      22     H     0.41815  0.41815  0.00000  0.16369
      23     H     0.42069  0.42069  0.00000  0.15863

   Total alpha = 36.00000, Total beta = 36.00000, Total charge = -0.00000
