  ==> Input File <==

--------------------------------------------------------------------------
set {
	reference rhf
	basis cc-pvtz
}

set_num_threads( 4 )
memory 2 gb

molecule MOL {
0 1

H	 -3.268214	 -0.875720	 0.463107
C	 -2.806015	 0.000007	 0.024886
N	 -1.391133	 0.000016	 0.301321
H	 -3.029448	 0.000055	 -1.045738
H	 -3.268126	 0.875758	 0.463150
C	 -0.850950	 1.338158	 0.406929
C	 -0.642918	 -0.782927	 -0.658213
H	 -0.964683	 1.889336	 -0.531217
H	 -1.397473	 1.877585	 1.171399
C	 0.619241	 1.295359	 0.779384
H	 -1.037561	 -1.791973	 -0.671340
H	 -0.742466	 -0.376339	 -1.668968
C	 0.827272	 -0.825726	 -0.285758
H	 1.013883	 2.304405	 0.792511
H	 0.718789	 0.888771	 1.790138
N	 1.367456	 0.512416	 -0.180151
H	 1.373796	 -1.365153	 -1.050229
H	 0.941006	 -1.376904	 0.652387
C	 2.782338	 0.512425	 0.096284
H	 3.157129	 1.528305	 0.105441
H	 3.310020	 -0.030906	 -0.677604
H	 3.026993	 0.053272	 1.058303

	symmetry c1
}
set optking {
	frozen_dihedral = ("
		6 3 2 4
	")
}

ee = optimize('scf')
oeprop('DIPOLE', 'QUADRUPOLE', 'MULLIKEN_CHARGES')
f=open( 'psi4out.xyz', 'w' )
f.write( "22  " )
f.write( str(ee) + "\n" )
f.write( MOL.save_string_xyz() )
f.close()
--------------------------------------------------------------------------

    Molecular point group: c1
  Charge       = 0
  Multiplicity = 1
  Basis Set: CC-PVTZ
  Basis Set:
  @DF-RHF Final Energy:  -344.34792908799648
    Total Energy =                       -344.3479290879964765
    Molecular point group: c1
  Basis Set: CC-PVTZ
  Basis Set:
  Basis Set: CC-PVTZ
  Basis Set:
  @DF-RHF Final Energy:  -344.34828121228549
    Total Energy =                       -344.3482812122856558
  Basis Set: CC-PVTZ
  Basis Set:
  Basis Set: CC-PVTZ
  Basis Set:
  @DF-RHF Final Energy:  -344.34833688784119
    Total Energy =                       -344.3483368878411284
  Basis Set: CC-PVTZ
  Basis Set:
  Charge       = 0
  Multiplicity = 1
  Basis Set: CC-PVTZ
  Basis Set:

    Orbital Energies (a.u.)
    -----------------------

    Doubly Occupied:

       1A    -15.537534     2A    -15.535114     3A    -11.237551
       4A    -11.237523     5A    -11.236812     6A    -11.236724
       7A    -11.234257     8A    -11.234151     9A     -1.256474
      10A     -1.205132    11A     -1.026171    12A     -0.992614
      13A     -0.912547    14A     -0.868553    15A     -0.836312
      16A     -0.754218    17A     -0.666528    18A     -0.637958
      19A     -0.632567    20A     -0.627036    21A     -0.621688
      22A     -0.581298    23A     -0.550904    24A     -0.548103
      25A     -0.543314    26A     -0.517912    27A     -0.497538
      28A     -0.490181    29A     -0.467499    30A     -0.457304
      31A     -0.351563    32A     -0.343014

  @DF-RHF Final Energy:  -344.34833950807598

   => Energetics <=

    Nuclear Repulsion Energy =            421.7085285357125599
    One-Electron Energy =               -1302.3615537590076201
    Two-Electron Energy =                 536.3046857152193070
    DFT Exchange-Correlation Energy =       0.0000000000000000
    Empirical Dispersion Energy =           0.0000000000000000
    PCM Polarization Energy =               0.0000000000000000
    EFP Energy =                            0.0000000000000000
    Total Energy =                       -344.3483395080758100
    Molecular point group: c1
  Basis Set: CC-PVTZ
  Basis Set:

  -Total Gradient:
     Atom            X                  Y                   Z
    ------   -----------------  -----------------  -----------------
       1        0.000023477410    -0.000026903936     0.000007298672
       2       -0.000565844228     0.005869827335     0.001388933379
       3        0.000812146893    -0.001218789255    -0.004719706130
       4        0.000151295807    -0.004550298045    -0.000061334400
       5        0.000057101617    -0.000010719395     0.000031075197
       6       -0.000546901193    -0.000011616271     0.003393786659
       7        0.000045610786    -0.000000446946    -0.000088283504
       8        0.000011206409    -0.000052134062     0.000044422687
       9       -0.000010117225    -0.000032779171    -0.000004894708
      10        0.000022394792     0.000010558223    -0.000036472333
      11       -0.000005807682     0.000023769331     0.000023998152
      12       -0.000006236859    -0.000008620287     0.000031650144
      13        0.000006314095    -0.000006520181     0.000005279927
      14        0.000054924744     0.000026012827     0.000011686087
      15       -0.000029619163     0.000004600609    -0.000021923509
      16       -0.000021705595     0.000001563265     0.000008089932
      17        0.000044109888    -0.000005948694    -0.000006135385
      18       -0.000002548575     0.000003094264    -0.000008164320
      19       -0.000016937643    -0.000011362823     0.000004589465
      20       -0.000014611897    -0.000001105987    -0.000001632688
      21       -0.000004754689    -0.000002967647    -0.000003341993
      22       -0.000003497695     0.000000786843     0.000001078673

  **** Optimization is complete! (in 4 steps) ****
    Final optimized geometry and variables:
    Molecular point group: c1

    Geometry (in Angstrom), charge = 0, multiplicity = 1:

    H           -3.224417159230    -1.181668131482     0.379457242824
    C           -2.802666856973    -0.267788833122    -0.026169072837
    N           -1.379033615918    -0.232284731806     0.213084324317
    H           -3.052955750730    -0.252794433784    -1.088963677337
    H           -3.290107786898     0.565919242370     0.459807646553
    C           -0.833449355243     1.100232604409     0.338493541878
    C           -0.630868249069    -1.038765513599    -0.721416859767
    H           -0.933663058287     1.671020339068    -0.589918289548
    H           -1.377986834363     1.630778747099     1.109751438084
    C            0.634388757511     1.038673876554     0.719541990028
    H           -1.034953811553    -2.044813468114    -0.718342479434
    H           -0.720170574808    -0.652440925399    -1.741228902725
    C            0.836140067776    -1.087082752517    -0.337353581951
    H            1.041062255156     2.042951787747     0.738926957128
    H            0.721894707951     0.627326169234     1.729655699633
    N            1.381033634035     0.249447854808    -0.236170206736
    H            1.386298031989    -1.633970408570    -1.094030710143
    H            0.940603088696    -1.632299394731     0.605438273171
    C            2.795129727262     0.244537588087     0.043630603973
    H            3.174300181575     1.258848278119     0.049253323771
    H            3.322399593241    -0.304548981744    -0.726534568485
    H            3.035695533191    -0.211412598277     1.008330368527

  Mulliken Charges: (a.u.)
   Center  Symbol    Alpha    Beta     Spin     Total
       1     H     0.45097  0.45097  0.00000  0.09807
       2     C     3.09687  3.09687  0.00000 -0.19374
       3     N     3.61357  3.61357  0.00000 -0.22715
       4     H     0.46787  0.46787  0.00000  0.06426
       5     H     0.45399  0.45399  0.00000  0.09201
       6     C     3.03325  3.03325  0.00000 -0.06650
       7     C     3.03492  3.03492  0.00000 -0.06984
       8     H     0.46991  0.46991  0.00000  0.06018
       9     H     0.45404  0.45404  0.00000  0.09192
      10     C     3.03617  3.03617  0.00000 -0.07234
      11     H     0.45414  0.45414  0.00000  0.09172
      12     H     0.46794  0.46794  0.00000  0.06413
      13     C     3.03609  3.03609  0.00000 -0.07218
      14     H     0.45398  0.45398  0.00000  0.09204
      15     H     0.46852  0.46852  0.00000  0.06297
      16     N     3.61311  3.61311  0.00000 -0.22622
      17     H     0.45394  0.45394  0.00000  0.09213
      18     H     0.46833  0.46833  0.00000  0.06334
      19     C     3.09835  3.09835  0.00000 -0.19671
      20     H     0.45193  0.45193  0.00000  0.09613
      21     H     0.45195  0.45195  0.00000  0.09610
      22     H     0.47017  0.47017  0.00000  0.05966

   Total alpha = 32.00000, Total beta = 32.00000, Total charge = -0.00000
