                              Psi4 1.0.54 Driver

  ==> Input File <==

--------------------------------------------------------------------------
set {
	reference rhf
	basis cc-pvtz
}

set_num_threads( 4 )
memory 2 gb

molecule MOL {
0 1

H	 -3.436473	 1.252944	 -1.023892
O	 -3.458596	 0.315260	 -0.960865
C	 -3.176635	 -0.080824	 0.355601
C	 -1.763371	 0.265266	 0.799691
H	 -3.321825	 -1.153438	 0.379502
H	 -3.895468	 0.357385	 1.043382
C	 -0.673390	 -0.426948	 -0.013392
H	 -1.631049	 1.344913	 0.747560
H	 -1.664587	 -0.001624	 1.849167
C	 -1.199103	 -1.083350	 -1.287258
H	 -0.184853	 -1.171869	 0.604942
H	 0.090745	 0.301969	 -0.272780
C	 -0.102408	 -1.770008	 -2.098928
H	 -1.968615	 -1.801741	 -1.021448
H	 -1.684158	 -0.332008	 -1.906986
C	 -0.565837	 -2.373852	 -3.425749
H	 0.357796	 -2.547634	 -1.493651
H	 0.680712	 -1.045745	 -2.305776
C	 -1.531154	 -3.548930	 -3.289735
H	 0.309502	 -2.705742	 -3.975663
H	 -1.026562	 -1.597671	 -4.031303
H	 -1.099388	 -4.338950	 -2.683498
H	 -1.763961	 -3.969587	 -4.261378
H	 -2.467216	 -3.254307	 -2.830834

	symmetry c1
}
set optking {
	frozen_dihedral = ("
		11 7 4 3
	")
}

ee,wfn = optimize('scf', return_wfn=True)
oeprop( wfn, 'DIPOLE', 'QUADRUPOLE', 'MULLIKEN_CHARGES')
f=open( 'psi4out.xyz', 'w' )
f.write( "24  " )
f.write( str(ee) + "\n" )
f.write( MOL.save_string_xyz() )
f.close()
--------------------------------------------------------------------------

    Molecular point group: c1
  Charge       = 0
  Multiplicity = 1
  Basis Set: CC-PVTZ
  Basis Set:
  @DF-RHF Final Energy:  -349.36164439804304
    Total Energy =                       -349.3616443980434951
    Molecular point group: c1
  Basis Set: CC-PVTZ
  Basis Set:
  Basis Set: CC-PVTZ
  Basis Set:
  @DF-RHF Final Energy:  -349.36809280749355
    Total Energy =                       -349.3680928074936674
  Basis Set: CC-PVTZ
  Basis Set:
  Basis Set: CC-PVTZ
  Basis Set:
  @DF-RHF Final Energy:  -349.37017025761031
    Total Energy =                       -349.3701702576100843
  Basis Set: CC-PVTZ
  Basis Set:
  Basis Set: CC-PVTZ
  Basis Set:
  @DF-RHF Final Energy:  -349.37044713785332
    Total Energy =                       -349.3704471378538301
  Basis Set: CC-PVTZ
  Basis Set:
  @DF-RHF Final Energy:  -349.37050256049758
    Total Energy =                       -349.3705025604976981
  Basis Set: CC-PVTZ
  Basis Set:
  @DF-RHF Final Energy:  -349.37052163438187
    Total Energy =                       -349.3705216343823849
  Basis Set: CC-PVTZ
  Basis Set:
  Basis Set: CC-PVTZ
  Basis Set:
  @DF-RHF Final Energy:  -349.37052428422840
    Total Energy =                       -349.3705242842281677
  Basis Set: CC-PVTZ
  Basis Set:
  Basis Set: CC-PVTZ
  Basis Set:
  @DF-RHF Final Energy:  -349.37052612180855
    Total Energy =                       -349.3705261218084388
  Basis Set: CC-PVTZ
  Basis Set:
  Charge       = 0
  Multiplicity = 1
  Basis Set: CC-PVTZ
  Basis Set:

    Orbital Energies (a.u.)
    -----------------------

    Doubly Occupied:

       1A    -20.546404     2A    -11.266279     3A    -11.216919
       4A    -11.211621     5A    -11.207943     6A    -11.205605
       7A    -11.202142     8A    -11.200935     9A     -1.364858
      10A     -1.084273    11A     -1.044140    12A     -0.983162
      13A     -0.914022    14A     -0.860045    15A     -0.793118
      16A     -0.769895    17A     -0.683573    18A     -0.650345
      19A     -0.624185    20A     -0.614371    21A     -0.596930
      22A     -0.585327    23A     -0.552790    24A     -0.540564
      25A     -0.516729    26A     -0.508196    27A     -0.499466
      28A     -0.482500    29A     -0.464604    30A     -0.456783
      31A     -0.445721    32A     -0.434068    33A     -0.423398

  @DF-RHF Final Energy:  -349.37052615265554

   => Energetics <=

    Nuclear Repulsion Energy =            395.6391077405406804
    One-Electron Energy =               -1258.1174375208522633
    Two-Electron Energy =                 513.1078036276559260
    DFT Exchange-Correlation Energy =       0.0000000000000000
    Empirical Dispersion Energy =           0.0000000000000000
    PCM Polarization Energy =               0.0000000000000000
    EFP Energy =                            0.0000000000000000
    Total Energy =                       -349.3705261526556569
    Molecular point group: c1
  Basis Set: CC-PVTZ
  Basis Set:

  -Total Gradient:
     Atom            X                  Y                   Z
    ------   -----------------  -----------------  -----------------
       1       -0.000002726850    -0.000002633521     0.000003304371
       2       -0.000011234550     0.000007557809     0.000000327513
       3        0.000033208066     0.001664487713    -0.001561797448
       4        0.000456177520    -0.002021050812     0.002422865848
       5       -0.000003811213     0.000004627399     0.000004575194
       6       -0.000006488334     0.000002714135    -0.000010433205
       7       -0.002709509649    -0.001518135273    -0.001422675770
       8       -0.000001199364    -0.000006199756     0.000000381756
       9        0.000008929468    -0.000002966813     0.000002073808
      10        0.000007562098    -0.000005386587    -0.000005814264
      11        0.002228557032     0.001885775304     0.000568289469
      12        0.000003223073    -0.000000877362    -0.000000284971
      13       -0.000004788084    -0.000010375024     0.000012749184
      14        0.000015013616     0.000001117322    -0.000001295234
      15       -0.000001219480    -0.000000501755    -0.000002346599
      16       -0.000012431800     0.000012471351    -0.000002837915
      17       -0.000000335533    -0.000002723209     0.000004003683
      18       -0.000002512105     0.000000905934     0.000004755427
      19        0.000005179472    -0.000004787095    -0.000005590674
      20       -0.000004175007     0.000000240895     0.000000939267
      21       -0.000004649249     0.000000089284    -0.000005123765
      22       -0.000000368897    -0.000000314391     0.000002408354
      23        0.000001909903    -0.000001716876    -0.000000491065
      24        0.000005689869    -0.000002318670    -0.000007982963

  **** Optimization is complete! (in 9 steps) ****
    Final optimized geometry and variables:
    Molecular point group: c1

    Geometry (in Angstrom), charge = 0, multiplicity = 1:

    H           -1.783293756620     2.714813965119     0.517865836058
    O           -1.932103844945     1.787058058987     0.544403347808
    C           -1.457887636469     1.266503103292     1.757791004864
    C            0.046672846260     1.417370586723     1.948801703908
    H           -1.752675370556     0.226165483295     1.773246277414
    H           -1.962444431687     1.749821498862     2.590809346480
    C            0.991036589130     0.566679405346     1.062211420796
    H            0.279042047337     2.470910252285     1.811326849535
    H            0.262815446480     1.207784166587     2.991566708589
    C            0.401286509275    -0.118479658258    -0.170792730943
    H            1.466950447345    -0.183722431221     1.686666639863
    H            1.805252722004     1.205539610420     0.733945478812
    C            1.454948291058    -0.930436874803    -0.922795221666
    H           -0.415168683728    -0.766715298601     0.124267872062
    H           -0.027226763127     0.621699669259    -0.835465241117
    C            0.962366290361    -1.569076759340    -2.222742459660
    H            1.847787336584    -1.707522988489    -0.270324676743
    H            2.294387823041    -0.281031552296    -1.157231571275
    C           -0.099842606709    -2.650533341367    -2.040360312288
    H            1.815060687949    -2.002733047720    -2.736657046280
    H            0.576094815911    -0.793244290375    -2.878337496741
    H            0.252985492838    -3.435200631797    -1.378325890849
    H           -0.348332322679    -3.109161481868    -2.990784982485
    H           -1.016147022877    -2.251645945630    -1.622779324835

  Mulliken Charges: (a.u.)
   Center  Symbol    Alpha    Beta     Spin     Total
       1     H     0.39572  0.39572  0.00000  0.20855
       2     O     4.20444  4.20444  0.00000 -0.40888
       3     C     2.98850  2.98850  0.00000  0.02300
       4     C     3.09691  3.09691  0.00000 -0.19383
       5     H     0.45569  0.45569  0.00000  0.08861
       6     H     0.45473  0.45473  0.00000  0.09053
       7     C     3.10264  3.10264  0.00000 -0.20529
       8     H     0.45903  0.45903  0.00000  0.08193
       9     H     0.44941  0.44941  0.00000  0.10118
      10     C     3.08609  3.08609  0.00000 -0.17219
      11     H     0.45188  0.45188  0.00000  0.09624
      12     H     0.45143  0.45143  0.00000  0.09714
      13     C     3.09524  3.09524  0.00000 -0.19048
      14     H     0.45312  0.45312  0.00000  0.09376
      15     H     0.44563  0.44563  0.00000  0.10874
      16     C     3.08881  3.08881  0.00000 -0.17763
      17     H     0.45613  0.45613  0.00000  0.08774
      18     H     0.45129  0.45129  0.00000  0.09743
      19     C     3.15387  3.15387  0.00000 -0.30774
      20     H     0.44994  0.44994  0.00000  0.10013
      21     H     0.45482  0.45482  0.00000  0.09036
      22     H     0.45615  0.45615  0.00000  0.08770
      23     H     0.44687  0.44687  0.00000  0.10626
      24     H     0.45163  0.45163  0.00000  0.09674

   Total alpha = 33.00000, Total beta = 33.00000, Total charge = -0.00000

*** Psi4 exiting successfully. Buy a developer a beer!
