                              Psi4 1.0.54 Driver

  ==> Input File <==

--------------------------------------------------------------------------
set {
	reference rhf
	basis cc-pvtz
}

set_num_threads( 4 )
memory 2 gb

molecule MOL {
0 1

H	 -2.574148	 0.603797	 0.483152
O	 -2.313989	 -0.142475	 -0.025864
C	 -0.943808	 -0.065018	 -0.330000
H	 -0.812293	 -0.225641	 -1.398673
C	 -0.231030	 -1.182113	 0.407592
C	 -0.353797	 1.300461	 0.050970
H	 -0.312800	 -0.992012	 1.473041
H	 -0.738841	 -2.119564	 0.220514
C	 1.246176	 -1.268044	 -0.015480
H	 -0.539537	 2.008579	 -0.751815
H	 -0.889989	 1.662858	 0.920677
C	 1.153605	 1.231851	 0.356834
H	 1.823096	 -1.684665	 0.802361
H	 1.352335	 -1.958223	 -0.845114
C	 1.826409	 0.100723	 -0.416008
H	 1.622968	 2.181508	 0.128734
H	 1.301983	 1.066493	 1.419367
H	 2.897299	 0.112407	 -0.249665
H	 1.683458	 0.265621	 -1.480024

	symmetry c1
}
set optking {
	frozen_dihedral = ("
		1 2 3 4
	")
}

ee,wfn = optimize('scf', return_wfn=True)
oeprop( wfn, 'DIPOLE', 'QUADRUPOLE', 'MULLIKEN_CHARGES')
f=open( 'psi4out.xyz', 'w' )
f.write( "19  " )
f.write( str(ee) + "\n" )
f.write( MOL.save_string_xyz() )
f.close()
--------------------------------------------------------------------------

    Molecular point group: c1
  Charge       = 0
  Multiplicity = 1
  Basis Set: CC-PVTZ
  Basis Set:
  @DF-RHF Final Energy:  -309.16085836094788
    Total Energy =                       -309.1608583609480547
    Molecular point group: c1
  Basis Set: CC-PVTZ
  Basis Set:
  Basis Set: CC-PVTZ
  Basis Set:
  @DF-RHF Final Energy:  -309.16151804516846
    Total Energy =                       -309.1615180451686911
  Basis Set: CC-PVTZ
  Basis Set:
  Basis Set: CC-PVTZ
  Basis Set:
  @DF-RHF Final Energy:  -309.16166106981768
    Total Energy =                       -309.1616610698176260
  Basis Set: CC-PVTZ
  Basis Set:
  Basis Set: CC-PVTZ
  Basis Set:
  @DF-RHF Final Energy:  -309.16166365581637
    Total Energy =                       -309.1616636558161417
  Basis Set: CC-PVTZ
  Basis Set:
  Charge       = 0
  Multiplicity = 1
  Basis Set: CC-PVTZ
  Basis Set:

    Orbital Energies (a.u.)
    -----------------------

    Doubly Occupied:

       1A    -20.540877     2A    -11.267269     3A    -11.219959
       4A    -11.218680     5A    -11.215422     6A    -11.214035
       7A    -11.206578     8A     -1.361516     9A     -1.112039
      10A     -1.005902    11A     -0.990217    12A     -0.846768
      13A     -0.842871    14A     -0.748320    15A     -0.676044
      16A     -0.668616    17A     -0.618917    18A     -0.607698
      19A     -0.581905    20A     -0.555837    21A     -0.530302
      22A     -0.521852    23A     -0.502944    24A     -0.488218
      25A     -0.470201    26A     -0.450741    27A     -0.429068
      28A     -0.411759

  @DF-RHF Final Energy:  -309.16166391323145

   => Energetics <=

    Nuclear Repulsion Energy =            331.9082210930616839
    One-Electron Energy =               -1077.5306575090826300
    Two-Electron Energy =                 436.4607725027896663
    DFT Exchange-Correlation Energy =       0.0000000000000000
    Empirical Dispersion Energy =           0.0000000000000000
    PCM Polarization Energy =               0.0000000000000000
    EFP Energy =                            0.0000000000000000
    Total Energy =                       -309.1616639132312798
    Molecular point group: c1
  Basis Set: CC-PVTZ
  Basis Set:

  -Total Gradient:
     Atom            X                  Y                   Z
    ------   -----------------  -----------------  -----------------
       1       -0.000108668595     0.000331374273    -0.000563170335
       2        0.000139031110    -0.000316817068     0.000676606770
       3        0.000021238213    -0.000585901963    -0.000015143186
       4       -0.000032860123     0.000538484307    -0.000088466808
       5       -0.000014671067    -0.000004013709    -0.000018241982
       6        0.000028059758     0.000001452959     0.000008469696
       7        0.000001324644    -0.000001403690    -0.000007171198
       8        0.000003099082    -0.000005899367     0.000002014316
       9       -0.000014475665    -0.000006993112     0.000024471492
      10        0.000006839221     0.000010994377    -0.000001046527
      11        0.000012357927     0.000008171975     0.000000282302
      12       -0.000009562072     0.000018826013    -0.000010642321
      13        0.000004400476    -0.000011084553     0.000003290888
      14       -0.000005977094     0.000000182382     0.000002697754
      15       -0.000017306150     0.000011877728    -0.000020922587
      16       -0.000001818718     0.000010506857     0.000008589830
      17       -0.000006443027     0.000000049413     0.000003256415
      18       -0.000010556663    -0.000003742680     0.000003357141
      19        0.000005988742     0.000003935855    -0.000008231659

  **** Optimization is complete! (in 5 steps) ****
    Final optimized geometry and variables:
    Molecular point group: c1

    Geometry (in Angstrom), charge = 0, multiplicity = 1:

    H           -2.611582326881     0.605647000602     0.454640647716
    O           -2.332160991551    -0.140247090813    -0.041159817453
    C           -0.949629891526    -0.077841262309    -0.296362046817
    H           -0.832687439525    -0.248206432261    -1.362009547171
    C           -0.210417029696    -1.178779647993     0.445964809613
    C           -0.360083123359     1.295289269337     0.046987925453
    H           -0.261716322962    -0.972035871205     1.511421295076
    H           -0.719765742757    -2.121123994151     0.289976741728
    C            1.255043301775    -1.266979679484    -0.017293450770
    H           -0.589021022915     1.991664496608    -0.752369994698
    H           -0.852689665489     1.672961302420     0.940120724990
    C            1.158328250772     1.240937730913     0.298825531934
    H            1.860472195292    -1.658145759059     0.792544350319
    H            1.341653947011    -1.976970065605    -0.832215038748
    C            1.811229038172     0.095580783382    -0.470301249606
    H            1.611560487145     2.187974920815     0.031276288743
    H            1.346777118043     1.101611586728     1.358697112879
    H            2.886815626862     0.119490959250    -0.339867244198
    H            1.631603016669     0.234550442406    -1.532108661107

  Mulliken Charges: (a.u.)
   Center  Symbol    Alpha    Beta     Spin     Total
       1     H     0.39286  0.39286  0.00000  0.21428
       2     O     4.20909  4.20909  0.00000 -0.41819
       3     C     2.92577  2.92577  0.00000  0.14845
       4     H     0.45169  0.45169  0.00000  0.09663
       5     C     3.09570  3.09570  0.00000 -0.19139
       6     C     3.12107  3.12107  0.00000 -0.24215
       7     H     0.46013  0.46013  0.00000  0.07973
       8     H     0.44127  0.44127  0.00000  0.11745
       9     C     3.11377  3.11377  0.00000 -0.22753
      10     H     0.44328  0.44328  0.00000  0.11344
      11     H     0.45867  0.45867  0.00000  0.08267
      12     C     3.09990  3.09990  0.00000 -0.19980
      13     H     0.44736  0.44736  0.00000  0.10528
      14     H     0.44673  0.44673  0.00000  0.10655
      15     C     3.10264  3.10264  0.00000 -0.20529
      16     H     0.44160  0.44160  0.00000  0.11679
      17     H     0.45290  0.45290  0.00000  0.09421
      18     H     0.44262  0.44262  0.00000  0.11476
      19     H     0.45294  0.45294  0.00000  0.09411

   Total alpha = 28.00000, Total beta = 28.00000, Total charge = -0.00000

*** Psi4 exiting successfully. Buy a developer a beer!
