                              Psi4 1.0.54 Driver

  ==> Input File <==

--------------------------------------------------------------------------
set {
	reference rhf
	basis cc-pvtz
}

set_num_threads( 4 )
memory 2 gb

molecule MOL {
0 1

H	 -0.939693	 0.000281	 1.681345
O	 -0.046262	 -0.000157	 1.387678
C	 -0.000837	 0.000006	 -0.025491
C	 -1.336497	 -0.491486	 -0.580105
C	 0.307914	 1.409363	 -0.527020
C	 1.121558	 -0.960710	 -0.393518
H	 -1.319701	 -0.536637	 -1.662913
H	 -2.142784	 0.175010	 -0.288979
H	 -1.561035	 -1.479160	 -0.197292
H	 0.384966	 1.433777	 -1.607879
H	 -0.475764	 2.102025	 -0.235233
H	 1.241871	 1.760908	 -0.106775
H	 1.234965	 -1.028733	 -1.469064
H	 0.910998	 -1.949168	 -0.005154
H	 2.058173	 -0.623146	 0.031944

	symmetry c1
}
set optking {
	frozen_dihedral = ("
		4 3 2 1
	")
}

ee,wfn = optimize('scf', return_wfn=True)
oeprop( wfn, 'DIPOLE', 'QUADRUPOLE', 'MULLIKEN_CHARGES')
f=open( 'psi4out.xyz', 'w' )
f.write( "15  " )
f.write( str(ee) + "\n" )
f.write( MOL.save_string_xyz() )
f.close()
--------------------------------------------------------------------------

    Molecular point group: c1
  Charge       = 0
  Multiplicity = 1
  Basis Set: CC-PVTZ
  Basis Set:
  @DF-RHF Final Energy:  -232.24498971132670
    Total Energy =                       -232.2449897113266957
    Molecular point group: c1
  Basis Set: CC-PVTZ
  Basis Set:
  Basis Set: CC-PVTZ
  Basis Set:
  @DF-RHF Final Energy:  -232.24515552111552
    Total Energy =                       -232.2451555211157483
  Basis Set: CC-PVTZ
  Basis Set:
  Basis Set: CC-PVTZ
  Basis Set:
  @DF-RHF Final Energy:  -232.24523492633614
    Total Energy =                       -232.2452349263361384
  Basis Set: CC-PVTZ
  Basis Set:
  Charge       = 0
  Multiplicity = 1
  Basis Set: CC-PVTZ
  Basis Set:

    Orbital Energies (a.u.)
    -----------------------

    Doubly Occupied:

       1A    -20.540704     2A    -11.281065     3A    -11.215452
       4A    -11.204073     5A    -11.203483     6A     -1.363297
       7A     -1.065651     8A     -0.945828     9A     -0.937091
      10A     -0.778594    11A     -0.672066    12A     -0.624619
      13A     -0.622735    14A     -0.576403    15A     -0.557313
      16A     -0.534456    17A     -0.517069    18A     -0.511390
      19A     -0.503428    20A     -0.458637    21A     -0.426844

  @DF-RHF Final Energy:  -232.24523536053871

   => Energetics <=

    Nuclear Repulsion Energy =            200.5998400258623349
    One-Electron Energy =                -712.6097541252238443
    Two-Electron Energy =                 279.7646787388227381
    DFT Exchange-Correlation Energy =       0.0000000000000000
    Empirical Dispersion Energy =           0.0000000000000000
    PCM Polarization Energy =               0.0000000000000000
    EFP Energy =                            0.0000000000000000
    Total Energy =                       -232.2452353605387430
    Molecular point group: c1
  Basis Set: CC-PVTZ
  Basis Set:

  -Total Gradient:
     Atom            X                  Y                   Z
    ------   -----------------  -----------------  -----------------
       1        0.000021376634    -0.001605460952     0.000029468537
       2       -0.000168903326     0.002307123258    -0.000062138069
       3        0.000478162122    -0.001599003195     0.000082388552
       4       -0.000359645872     0.001005832662    -0.000013312000
       5       -0.000017689301    -0.000048139025    -0.000036981374
       6        0.000011299078    -0.000033952259    -0.000002447361
       7        0.000020799263     0.000011779445    -0.000009176582
       8       -0.000044932295     0.000005645783     0.000043045456
       9        0.000054227132    -0.000057444609    -0.000009518094
      10        0.000029139927     0.000027490847    -0.000054676823
      11        0.000009196001    -0.000036127354     0.000005384108
      12       -0.000004730117     0.000013305531     0.000003027224
      13       -0.000009751510     0.000019847871     0.000033928584
      14        0.000002049316     0.000000699833    -0.000014159345
      15       -0.000020597051    -0.000011597837     0.000005167188

  **** Optimization is complete! (in 4 steps) ****
    Final optimized geometry and variables:
    Molecular point group: c1

    Geometry (in Angstrom), charge = 0, multiplicity = 1:

    H           -0.936046253420     0.040407011743     1.691391204389
    O           -0.046892653814     0.032608523762     1.390704755651
    C            0.002931008845    -0.000198755710    -0.025047891799
    C           -1.326369315610    -0.502570062150    -0.581344821514
    C            0.293223422797     1.412254635552    -0.528638392444
    C            1.139073811176    -0.945989733081    -0.394336331707
    H           -1.303507159002    -0.546691925994    -1.663216787826
    H           -2.138012590169     0.159721729699    -0.295043747371
    H           -1.545975410543    -1.496186706098    -0.206943994429
    H            0.386310257031     1.435413249168    -1.608853568304
    H           -0.503383896250     2.089032357877    -0.240968123830
    H            1.215715298925     1.778308751208    -0.095880973460
    H            1.280554063551    -0.985359607594    -1.468305615355
    H            0.929812261989    -1.945977436260    -0.035161482151
    H            2.062589276117    -0.611542492444     0.061405478887

  Mulliken Charges: (a.u.)
   Center  Symbol    Alpha    Beta     Spin     Total
       1     H     0.39276  0.39276  0.00000  0.21449
       2     O     4.21442  4.21442  0.00000 -0.42883
       3     C     2.87971  2.87971  0.00000  0.24058
       4     C     3.16038  3.16038  0.00000 -0.32076
       5     C     3.14206  3.14206  0.00000 -0.28412
       6     C     3.14011  3.14011  0.00000 -0.28022
       7     H     0.45119  0.45119  0.00000  0.09761
       8     H     0.45281  0.45281  0.00000  0.09437
       9     H     0.44609  0.44609  0.00000  0.10781
      10     H     0.45882  0.45882  0.00000  0.08236
      11     H     0.45476  0.45476  0.00000  0.09048
      12     H     0.44825  0.44825  0.00000  0.10350
      13     H     0.45939  0.45939  0.00000  0.08122
      14     H     0.45195  0.45195  0.00000  0.09609
      15     H     0.44729  0.44729  0.00000  0.10542

   Total alpha = 21.00000, Total beta = 21.00000, Total charge = -0.00000

*** Psi4 exiting successfully. Buy a developer a beer!
