  ==> Input File <==

--------------------------------------------------------------------------
set {
	reference rhf
	basis cc-pvtz
}

set_num_threads( 4 )
memory 2 gb

molecule MOL {
0 1

H	 1.383075	 -1.151303	 1.400380
C	 0.482881	 -1.267998	 0.814937
O	 -0.000000	 0.000000	 0.518769
H	 0.722665	 -1.824299	 -0.088882
H	 -0.237666	 -1.844187	 1.391716
C	 -1.165153	 0.000000	 -0.236961
H	 -1.229451	 0.882440	 -0.870223
H	 -2.002557	 0.000000	 0.445289
H	 -1.229451	 -0.882440	 -0.870223

	symmetry c1
}
set optking {
	frozen_dihedral = ("
		2 3 6 7
	")
}

ee = optimize('scf')
oeprop('DIPOLE', 'QUADRUPOLE', 'MULLIKEN_CHARGES')
f=open( 'psi4out.xyz', 'w' )
f.write( "9  " )
f.write( str(ee) + "\n" )
f.write( MOL.save_string_xyz() )
f.close()
--------------------------------------------------------------------------

    Molecular point group: c1
  Charge       = 0
  Multiplicity = 1
  Basis Set: CC-PVTZ
  Basis Set:
  @DF-RHF Final Energy:  -154.12440669490101
    Total Energy =                       -154.1244066949009834
    Molecular point group: c1
  Basis Set: CC-PVTZ
  Basis Set:
  Basis Set: CC-PVTZ
  Basis Set:
  @DF-RHF Final Energy:  -154.12519454181782
    Total Energy =                       -154.1251945418178195
  Basis Set: CC-PVTZ
  Basis Set:
  Basis Set: CC-PVTZ
  Basis Set:
  @DF-RHF Final Energy:  -154.12535226571933
    Total Energy =                       -154.1253522657193002
  Basis Set: CC-PVTZ
  Basis Set:
  Charge       = 0
  Multiplicity = 1
  Basis Set: CC-PVTZ
  Basis Set:

    Orbital Energies (a.u.)
    -----------------------

    Doubly Occupied:

       1A    -20.548577     2A    -11.263421     3A    -11.262899
       4A     -1.380337     5A     -0.975837     6A     -0.872721
       7A     -0.662149     8A     -0.654738     9A     -0.645897
      10A     -0.556500    11A     -0.527538    12A     -0.475728
      13A     -0.418129

  @DF-RHF Final Energy:  -154.12535279064849

   => Energetics <=

    Nuclear Repulsion Energy =             84.7238029074048455
    One-Electron Energy =                -377.2093658128265474
    Two-Electron Energy =                 138.3602101147732526
    DFT Exchange-Correlation Energy =       0.0000000000000000
    Empirical Dispersion Energy =           0.0000000000000000
    PCM Polarization Energy =               0.0000000000000000
    EFP Energy =                            0.0000000000000000
    Total Energy =                       -154.1253527906484635
    Molecular point group: c1
  Basis Set: CC-PVTZ
  Basis Set:

  -Total Gradient:
     Atom            X                  Y                   Z
    ------   -----------------  -----------------  -----------------
       1       -0.000011685963     0.000030404454     0.000002326272
       2        0.001230723652    -0.000073416682    -0.002079451362
       3       -0.001479891845    -0.000264464546     0.002355978580
       4        0.000003826121    -0.000014810567    -0.000000643708
       5       -0.000004271456     0.000042531671    -0.000009092558
       6       -0.001151410763     0.001732313462     0.001821143943
       7        0.001376002426    -0.001462532392    -0.002111514357
       8        0.000010543668     0.000012777184     0.000015482714
       9        0.000026164160    -0.000002802581     0.000005770475

  **** Optimization is complete! (in 4 steps) ****
    Final optimized geometry and variables:
    Molecular point group: c1

    Geometry (in Angstrom), charge = 0, multiplicity = 1:

    H            1.634817528177    -0.700620117155     1.027901765640
    C            0.726569050667    -0.831103897171     0.457405059184
    O            0.237129638403     0.431182545552     0.146190432197
    H            0.955359697595    -1.400535691548    -0.440404162159
    H            0.019756153754    -1.402190921365     1.056290095309
    C           -0.944500028864     0.438165418365    -0.589084293170
    H           -0.956150624147     1.326529236019    -1.205536608941
    H           -1.815605479594     0.434539157663     0.060241341361
    H           -1.006729895732    -0.422250412617    -1.250758597684

  Mulliken Charges: (a.u.)
   Center  Symbol    Alpha    Beta     Spin     Total
       1     H     0.44922  0.44922  0.00000  0.10156
       2     C     3.02137  3.02137  0.00000 -0.04274
       3     O     4.17014  4.17014  0.00000 -0.34028
       4     H     0.47215  0.47215  0.00000  0.05571
       5     H     0.47370  0.47370  0.00000  0.05261
       6     C     3.01879  3.01879  0.00000 -0.03758
       7     H     0.45213  0.45213  0.00000  0.09574
       8     H     0.46638  0.46638  0.00000  0.06724
       9     H     0.47614  0.47614  0.00000  0.04773

   Total alpha = 13.00000, Total beta = 13.00000, Total charge = -0.00000
