                              Psi4 1.0.54 Driver

  ==> Input File <==

--------------------------------------------------------------------------
set {
	reference rhf
	basis cc-pvtz
}

set_num_threads( 4 )
memory 2 gb

molecule MOL {
0 1

O	 1.847685	 1.294399	 -0.000190
C	 1.704209	 0.119472	 -0.000093
C	 0.380337	 -0.600947	 -0.000234
O	 2.715427	 -0.733672	 0.000025
C	 -0.824290	 0.329213	 -0.000115
H	 0.371455	 -1.255476	 -0.865660
H	 0.371410	 -1.255787	 0.864952
C	 -2.146151	 -0.432825	 -0.000068
H	 -0.773936	 0.979158	 -0.866319
H	 -0.773838	 0.979034	 0.866186
C	 -3.366283	 0.483552	 0.000557
H	 -2.189286	 -1.084450	 -0.869996
H	 -2.188867	 -1.085083	 0.869399
C	 -3.370811	 1.474258	 1.159821
H	 -4.267957	 -0.121123	 0.039413
H	 -3.405737	 1.027580	 -0.938930
H	 -3.366529	 0.959584	 2.114978
H	 -4.249291	 2.108411	 1.130545
H	 -2.497696	 2.117637	 1.128682
C	 4.020999	 -0.192556	 0.000019
H	 4.182809	 0.412891	 -0.879449
H	 4.692590	 -1.035653	 0.000152
H	 4.182726	 0.413087	 0.879368

	symmetry c1
}
set optking {
	frozen_dihedral = ("
		15 11 8 12
	")
}

ee,wfn = optimize('scf', return_wfn=True)
oeprop( wfn, 'DIPOLE', 'QUADRUPOLE', 'MULLIKEN_CHARGES')
f=open( 'psi4out.xyz', 'w' )
f.write( "23  " )
f.write( str(ee) + "\n" )
f.write( MOL.save_string_xyz() )
f.close()
--------------------------------------------------------------------------

    Molecular point group: c1
  Charge       = 0
  Multiplicity = 1
  Basis Set: CC-PVTZ
  Basis Set:
  @DF-RHF Final Energy:  -423.12810749410392
    Total Energy =                       -423.1281074941038014
    Molecular point group: c1
  Basis Set: CC-PVTZ
  Basis Set:
  Basis Set: CC-PVTZ
  Basis Set:
  @DF-RHF Final Energy:  -423.12742921334933
    Total Energy =                       -423.1274292133495010
  Basis Set: CC-PVTZ
  Basis Set:
  Basis Set: CC-PVTZ
  Basis Set:
  @DF-RHF Final Energy:  -423.12905369288700
    Total Energy =                       -423.1290536928870551
  Basis Set: CC-PVTZ
  Basis Set:
  Basis Set: CC-PVTZ
  Basis Set:
  @DF-RHF Final Energy:  -423.12916132190321
    Total Energy =                       -423.1291613219030978
  Basis Set: CC-PVTZ
  Basis Set:
  Basis Set: CC-PVTZ
  Basis Set:
  @DF-RHF Final Energy:  -423.12916046750183
    Total Energy =                       -423.1291604675018334
  Basis Set: CC-PVTZ
  Basis Set:
  Basis Set: CC-PVTZ
  Basis Set:
  @DF-RHF Final Energy:  -423.12912308538966
    Total Energy =                       -423.1291230853900061
  Basis Set: CC-PVTZ
  Basis Set:
  Basis Set: CC-PVTZ
  Basis Set:
  @DF-RHF Final Energy:  -423.12916742341827
    Total Energy =                       -423.1291674234188349
  Basis Set: CC-PVTZ
  Basis Set:
  Charge       = 0
  Multiplicity = 1
  Basis Set: CC-PVTZ
  Basis Set:

    Orbital Energies (a.u.)
    -----------------------

    Doubly Occupied:

       1A    -20.596266     2A    -20.534087     3A    -11.364492
       4A    -11.278447     5A    -11.233652     6A    -11.216656
       7A    -11.216020     8A    -11.214923     9A    -11.205848
      10A     -1.472156    11A     -1.365715    12A     -1.094256
      13A     -1.042994    14A     -0.985992    15A     -0.931785
      16A     -0.856939    17A     -0.783099    18A     -0.768573
      19A     -0.698921    20A     -0.686516    21A     -0.676059
      22A     -0.645785    23A     -0.614931    24A     -0.598543
      25A     -0.590588    26A     -0.561934    27A     -0.535347
      28A     -0.526870    29A     -0.521626    30A     -0.515864
      31A     -0.490978    32A     -0.466562    33A     -0.463568
      34A     -0.460853    35A     -0.457664    36A     -0.438342

  @DF-RHF Final Energy:  -423.12916770370327

   => Energetics <=

    Nuclear Repulsion Energy =            458.2004913990691648
    One-Electron Energy =               -1484.4336136931842702
    Two-Electron Energy =                 603.1039545904120587
    DFT Exchange-Correlation Energy =       0.0000000000000000
    Empirical Dispersion Energy =           0.0000000000000000
    PCM Polarization Energy =               0.0000000000000000
    EFP Energy =                            0.0000000000000000
    Total Energy =                       -423.1291677037031604
    Molecular point group: c1
  Basis Set: CC-PVTZ
  Basis Set:

  -Total Gradient:
     Atom            X                  Y                   Z
    ------   -----------------  -----------------  -----------------
       1        0.000003874238    -0.000007180480    -0.000005410848
       2       -0.000003924522     0.000005706074    -0.000004266607
       3        0.000006281567    -0.000001144919     0.000022254261
       4       -0.000002002834    -0.000000903356     0.000006241891
       5       -0.000000163433     0.000002409740    -0.000007917370
       6       -0.000000577564     0.000002978111    -0.000007654763
       7       -0.000001648135    -0.000001951136    -0.000009633321
       8       -0.001024556000    -0.001462702203     0.001758253179
       9        0.000002548702    -0.000003668772     0.000004759692
      10        0.000001250721     0.000002136275     0.000001377140
      11        0.000129892781     0.000003413516    -0.002501061847
      12        0.000845252093     0.001234499924    -0.001106167784
      13       -0.000000969139     0.000000898468    -0.000002579791
      14        0.000001408558     0.000005726263    -0.000002037409
      15        0.000046774015     0.000220723913     0.001847593544
      16        0.000002326164    -0.000003438795     0.000001105699
      17       -0.000001224039     0.000004947728    -0.000002958195
      18        0.000010919025    -0.000001308199     0.000003703833
      19       -0.000011290217    -0.000004625779     0.000004220566
      20       -0.000002446208     0.000004982689     0.000002321587
      21       -0.000000204375    -0.000000999178    -0.000000138342
      22       -0.000002423218     0.000000784080    -0.000000434989
      23        0.000000901808    -0.000001283967    -0.000001570128

  **** Optimization is complete! (in 8 steps) ****
    Final optimized geometry and variables:
    Molecular point group: c1

    Geometry (in Angstrom), charge = 0, multiplicity = 1:

    O            1.666600137640     1.157856642724    -0.218676199073
    C            1.568047164861    -0.021458710993    -0.192223716705
    C            0.274990412468    -0.790287895308    -0.099982431085
    O            2.609203818246    -0.836360649543    -0.241431651485
    C           -0.962166509517     0.095075211878    -0.048006982962
    H            0.241660087844    -1.465363565517    -0.948719139227
    H            0.341133205141    -1.423981935186     0.778537617705
    C           -2.246669255126    -0.725333743977     0.059059066451
    H           -0.995009745153     0.715358870629    -0.937329307945
    H           -0.871845129699     0.773576547528     0.790011059943
    C           -3.535020111014     0.097081906697    -0.008084965865
    H           -2.260702491639    -1.445433285132    -0.755007506875
    H           -2.233234671442    -1.299390179838     0.982554645954
    C           -3.662276427749     1.176633041925     1.064938920550
    H           -4.375585552070    -0.582372024895     0.094175202162
    H           -3.620402328633     0.553377413587    -0.990066656008
    H           -3.550181030309     0.754474126757     2.058798255721
    H           -4.636702580655     1.648891428531     1.016668292267
    H           -2.917886486958     1.954576051560     0.949833995022
    C            3.890773782987    -0.247329641449    -0.329182747964
    H            3.975978982687     0.348730409760    -1.225672276308
    H            4.592767612909    -1.064804420834    -0.357794883001
    H            4.082423498202     0.378699975332     0.529653061862

  Mulliken Charges: (a.u.)
   Center  Symbol    Alpha    Beta     Spin     Total
       1     O     4.19723  4.19723  0.00000 -0.39445
       2     C     2.80609  2.80609  0.00000  0.38781
       3     C     3.10182  3.10182  0.00000 -0.20364
       4     O     4.14637  4.14637  0.00000 -0.29275
       5     C     3.08694  3.08694  0.00000 -0.17389
       6     H     0.43920  0.43920  0.00000  0.12159
       7     H     0.44008  0.44008  0.00000  0.11983
       8     C     3.09853  3.09853  0.00000 -0.19706
       9     H     0.44618  0.44618  0.00000  0.10763
      10     H     0.44408  0.44408  0.00000  0.11185
      11     C     3.08956  3.08956  0.00000 -0.17913
      12     H     0.45085  0.45085  0.00000  0.09830
      13     H     0.45338  0.45338  0.00000  0.09323
      14     C     3.15507  3.15507  0.00000 -0.31013
      15     H     0.44888  0.44888  0.00000  0.10224
      16     H     0.45288  0.45288  0.00000  0.09423
      17     H     0.45505  0.45505  0.00000  0.08990
      18     H     0.44599  0.44599  0.00000  0.10801
      19     H     0.44995  0.44995  0.00000  0.10010
      20     C     3.03775  3.03775  0.00000 -0.07551
      21     H     0.45438  0.45438  0.00000  0.09123
      22     H     0.44536  0.44536  0.00000  0.10928
      23     H     0.45435  0.45435  0.00000  0.09130

   Total alpha = 36.00000, Total beta = 36.00000, Total charge = -0.00000

*** Psi4 exiting successfully. Buy a developer a beer!
