  ==> Input File <==

--------------------------------------------------------------------------
set {
	reference rhf
	basis cc-pvtz
}

set_num_threads( 4 )
memory 2 gb

molecule MOL {
0 1

H	 -2.336769	 -1.526320	 1.128149
C	 -1.607596	 -0.907372	 0.649458
C	 -1.958923	 0.341804	 0.045073
C	 -0.326705	 -1.280976	 0.596832
H	 -2.980778	 0.670950	 0.070217
C	 -1.027743	 1.096223	 -0.546816
H	 0.013354	 -2.202329	 1.026495
N	 0.640204	 -0.530428	 -0.000115
H	 -1.254003	 2.035130	 -1.008576
C	 0.367863	 0.685792	 -0.602168
C	 2.006991	 -1.033007	 -0.000020
O	 1.232608	 1.335359	 -1.124203
H	 2.182444	 -1.636914	 -0.880881
H	 2.678769	 -0.195442	 -0.002236
H	 2.183828	 -1.633244	 0.883082

	symmetry c1
}
set optking {
	frozen_dihedral = ("
		10 8 11 13
	")
}

ee = optimize('scf')
oeprop('DIPOLE', 'QUADRUPOLE', 'MULLIKEN_CHARGES')
f=open( 'psi4out.xyz', 'w' )
f.write( "15  " )
f.write( str(ee) + "\n" )
f.write( MOL.save_string_xyz() )
f.close()
--------------------------------------------------------------------------

    Molecular point group: c1
  Charge       = 0
  Multiplicity = 1
  Basis Set: CC-PVTZ
  Basis Set:
  @DF-RHF Final Energy:  -360.72271876393006
    Total Energy =                       -360.7227187639302883
    Molecular point group: c1
  Basis Set: CC-PVTZ
  Basis Set:
  Basis Set: CC-PVTZ
  Basis Set:
  @DF-RHF Final Energy:  -360.72293902505123
    Total Energy =                       -360.7229390250510050
  Basis Set: CC-PVTZ
  Basis Set:
  Basis Set: CC-PVTZ
  Basis Set:
  @DF-RHF Final Energy:  -360.72296036605701
    Total Energy =                       -360.7229603660572366
  Basis Set: CC-PVTZ
  Basis Set:
  Basis Set: CC-PVTZ
  Basis Set:
  @DF-RHF Final Energy:  -360.72297000128884
    Total Energy =                       -360.7229700012888429
  Basis Set: CC-PVTZ
  Basis Set:
  Charge       = 0
  Multiplicity = 1
  Basis Set: CC-PVTZ
  Basis Set:

    Orbital Energies (a.u.)
    -----------------------

    Doubly Occupied:

       1A    -20.501843     2A    -15.617140     3A    -11.338614
       4A    -11.293840     5A    -11.264777     6A    -11.258152
       7A    -11.230092     8A    -11.228077     9A     -1.390870
      10A     -1.285808    11A     -1.118801    12A     -1.029046
      13A     -0.972512    14A     -0.876138    15A     -0.838755
      16A     -0.719374    17A     -0.702511    18A     -0.663742
      19A     -0.653008    20A     -0.625710    21A     -0.611892
      22A     -0.574745    23A     -0.555268    24A     -0.550758
      25A     -0.530321    26A     -0.483728    27A     -0.420557
      28A     -0.410495    29A     -0.310523

  @DF-RHF Final Energy:  -360.72297941344033

   => Energetics <=

    Nuclear Repulsion Energy =            358.6356917210648021
    One-Electron Energy =               -1200.6031448638127586
    Two-Electron Energy =                 481.2444737293076287
    DFT Exchange-Correlation Energy =       0.0000000000000000
    Empirical Dispersion Energy =           0.0000000000000000
    PCM Polarization Energy =               0.0000000000000000
    EFP Energy =                            0.0000000000000000
    Total Energy =                       -360.7229794134402709
    Molecular point group: c1
  Basis Set: CC-PVTZ
  Basis Set:

  -Total Gradient:
     Atom            X                  Y                   Z
    ------   -----------------  -----------------  -----------------
       1       -0.000009586293    -0.000001742640    -0.000002226380
       2        0.000079592654    -0.000036103440    -0.000014950685
       3       -0.000009012052     0.000071876077    -0.000025343113
       4       -0.000107191484    -0.000005994730     0.000081279766
       5       -0.000004277495    -0.000013982061     0.000003742447
       6       -0.000092135958    -0.000003404123    -0.000002539213
       7        0.000012938095     0.000002368363    -0.000018162606
       8       -0.000177602693    -0.000537495139    -0.000922631014
       9        0.000008547094    -0.000001811995     0.000004316927
      10        0.000164587495     0.000246895880     0.000718135957
      11        0.000362449254     0.001011857522    -0.000246202790
      12        0.000011140590    -0.000001287401    -0.000025834189
      13       -0.000249101824    -0.000708007960     0.000441783485
      14       -0.000037067092     0.000003381498     0.000004574951
      15        0.000046719710    -0.000026549846     0.000004056456

  **** Optimization is complete! (in 5 steps) ****
    Final optimized geometry and variables:
    Molecular point group: c1

    Geometry (in Angstrom), charge = 0, multiplicity = 1:

    H           -2.334538372240    -1.489845668279     1.254004599349
    C           -1.601437182185    -0.871158284331     0.781001993023
    C           -1.946170496927     0.382382640155     0.182955185956
    C           -0.320319819525    -1.247908122065     0.737218389140
    H           -2.967013418826     0.714766698171     0.207349703226
    C           -1.010550058226     1.137860672678    -0.401553530783
    H            0.013328974039    -2.170872611288     1.167186171089
    N            0.650436770937    -0.494676268457     0.151992779994
    H           -1.231975182167     2.079617708277    -0.860020569765
    C            0.380332433354     0.715542513245    -0.461505216819
    C            2.022142522327    -0.981226199514     0.132659102131
    O            1.251739052486     1.344588449991    -0.997460917601
    H            2.203315145436    -1.592461472588    -0.742591138410
    H            2.693285256746    -0.141614830621     0.114901383276
    H            2.201532939249    -1.572444802112     1.018894928409

  Mulliken Charges: (a.u.)
   Center  Symbol    Alpha    Beta     Spin     Total
       1     H     0.41390  0.41390  0.00000  0.17221
       2     C     3.10440  3.10440  0.00000 -0.20880
       3     C     3.06108  3.06108  0.00000 -0.12217
       4     C     3.03413  3.03413  0.00000 -0.06826
       5     H     0.41840  0.41840  0.00000  0.16319
       6     C     3.11783  3.11783  0.00000 -0.23565
       7     H     0.42132  0.42132  0.00000  0.15736
       8     N     3.51072  3.51072  0.00000 -0.02144
       9     H     0.40905  0.40905  0.00000  0.18190
      10     C     2.84522  2.84522  0.00000  0.30955
      11     C     3.09947  3.09947  0.00000 -0.19894
      12     O     4.23623  4.23623  0.00000 -0.47245
      13     H     0.44629  0.44629  0.00000  0.10742
      14     H     0.42701  0.42701  0.00000  0.14598
      15     H     0.45494  0.45494  0.00000  0.09011

   Total alpha = 29.00000, Total beta = 29.00000, Total charge = -0.00000
