  ==> Input File <==

--------------------------------------------------------------------------
set {
	reference rhf
	basis cc-pvtz
}

set_num_threads( 4 )
memory 2 gb

molecule MOL {
0 1

H	 -2.698799	 -0.000846	 0.036018
C	 -1.694291	 -0.000483	 0.434279
O	 -0.828718	 -0.000608	 -0.655022
H	 -1.576855	 0.881100	 1.056504
H	 -1.576401	 -0.881658	 1.057001
C	 0.428544	 0.615613	 -0.522952
C	 0.322291	 2.117041	 -0.280676
C	 1.314290	 -0.075788	 0.507419
H	 0.879222	 0.469535	 -1.496692
H	 -0.342823	 2.569738	 -1.005760
H	 1.299094	 2.575644	 -0.382091
H	 -0.044509	 2.346999	 0.712884
H	 1.337195	 -1.143790	 0.328837
H	 2.327149	 0.303171	 0.434746
H	 0.973748	 0.095897	 1.521863

	symmetry c1
}
set optking {
	frozen_dihedral = ("
		6 3 2 1
	")
}

ee = optimize('scf')
oeprop('DIPOLE', 'QUADRUPOLE', 'MULLIKEN_CHARGES')
f=open( 'psi4out.xyz', 'w' )
f.write( "15  " )
f.write( str(ee) + "\n" )
f.write( MOL.save_string_xyz() )
f.close()
--------------------------------------------------------------------------

    Molecular point group: c1
  Charge       = 0
  Multiplicity = 1
  Basis Set: CC-PVTZ
  Basis Set:
  @DF-RHF Final Energy:  -232.22479656143406
    Total Energy =                       -232.2247965614342888
    Molecular point group: c1
  Basis Set: CC-PVTZ
  Basis Set:
  Basis Set: CC-PVTZ
  Basis Set:
  @DF-RHF Final Energy:  -232.22457939441750
    Total Energy =                       -232.2245793944173329
  Basis Set: CC-PVTZ
  Basis Set:
  Basis Set: CC-PVTZ
  Basis Set:
  @DF-RHF Final Energy:  -232.22515045343701
    Total Energy =                       -232.2251504534369815
  Basis Set: CC-PVTZ
  Basis Set:
  Basis Set: CC-PVTZ
  Basis Set:
  @DF-RHF Final Energy:  -232.22516900736068
    Total Energy =                       -232.2251690073607620
  Basis Set: CC-PVTZ
  Basis Set:
  Basis Set: CC-PVTZ
  Basis Set:
  @DF-RHF Final Energy:  -232.22517014166365
    Total Energy =                       -232.2251701416636251
  Basis Set: CC-PVTZ
  Basis Set:
  Charge       = 0
  Multiplicity = 1
  Basis Set: CC-PVTZ
  Basis Set:

    Orbital Energies (a.u.)
    -----------------------

    Doubly Occupied:

       1A    -20.540650     2A    -11.272921     3A    -11.258891
       4A    -11.209317     5A    -11.208026     6A     -1.372472
       7A     -1.051184     8A     -0.940653     9A     -0.931374
      10A     -0.781679    11A     -0.676568    12A     -0.641971
      13A     -0.634152    14A     -0.571456    15A     -0.564358
      16A     -0.552550    17A     -0.536328    18A     -0.500172
      19A     -0.498192    20A     -0.444130    21A     -0.407752

  @DF-RHF Final Energy:  -232.22517031918517

   => Energetics <=

    Nuclear Repulsion Energy =            199.0290219155040177
    One-Electron Energy =                -709.3187953281213822
    Two-Electron Energy =                 278.0646030934321971
    DFT Exchange-Correlation Energy =       0.0000000000000000
    Empirical Dispersion Energy =           0.0000000000000000
    PCM Polarization Energy =               0.0000000000000000
    EFP Energy =                            0.0000000000000000
    Total Energy =                       -232.2251703191851675
    Molecular point group: c1
  Basis Set: CC-PVTZ
  Basis Set:

  -Total Gradient:
     Atom            X                  Y                   Z
    ------   -----------------  -----------------  -----------------
       1        0.000034461399     0.001892180584     0.000179005814
       2       -0.000348113510    -0.001671490889    -0.000400433128
       3        0.000936628564    -0.001668192986     0.000577793757
       4        0.000022369836     0.000025213519     0.000013832597
       5       -0.000011233767     0.000014792985    -0.000002325001
       6       -0.000624680999     0.001396945369    -0.000397530021
       7        0.000001321335    -0.000011165373     0.000010921182
       8       -0.000000441232     0.000012412286     0.000014108744
       9        0.000017405153     0.000016409420    -0.000008540058
      10       -0.000001352977    -0.000000257893    -0.000001330110
      11       -0.000004478537    -0.000005022733     0.000001473457
      12       -0.000009197389    -0.000003803528     0.000004486358
      13        0.000000317654     0.000004734415    -0.000009183037
      14       -0.000012748250    -0.000000071459     0.000000327829
      15       -0.000000257285    -0.000002683714     0.000017391616

  **** Optimization is complete! (in 6 steps) ****
    Final optimized geometry and variables:
    Molecular point group: c1

    Geometry (in Angstrom), charge = 0, multiplicity = 1:

    H           -2.585299747611    -0.524919237249     0.202125407423
    C           -1.560698928602    -0.574841839269     0.544701864199
    O           -0.735191003260    -0.489811852747    -0.574769207938
    H           -1.409671135128     0.242749946929     1.240496258257
    H           -1.412549041815    -1.508412663135     1.078479340612
    C            0.537603641719     0.092103912808    -0.438466880721
    C            0.462091179607     1.599423239927    -0.221888316068
    C            1.391435670127    -0.608555875885     0.611844049049
    H            0.995785819286    -0.077300402634    -1.404975037361
    H           -0.168457040659     2.053251090905    -0.976191659643
    H            1.452509027289     2.033660097478    -0.298309423432
    H            0.067866910426     1.857174630892     0.754062270897
    H            1.420272240404    -1.675074115645     0.424582101255
    H            2.406403381461    -0.230017024833     0.578497582793
    H            1.013347970631    -0.447652934333     1.615179733588

  Mulliken Charges: (a.u.)
   Center  Symbol    Alpha    Beta     Spin     Total
       1     H     0.44495  0.44495  0.00000  0.11009
       2     C     3.03986  3.03986  0.00000 -0.07971
       3     O     4.18546  4.18546  0.00000 -0.37092
       4     H     0.47050  0.47050  0.00000  0.05901
       5     H     0.46272  0.46272  0.00000  0.07455
       6     C     2.93787  2.93787  0.00000  0.12426
       7     C     3.15369  3.15369  0.00000 -0.30738
       8     C     3.15840  3.15840  0.00000 -0.31680
       9     H     0.44657  0.44657  0.00000  0.10687
      10     H     0.44477  0.44477  0.00000  0.11047
      11     H     0.45127  0.45127  0.00000  0.09745
      12     H     0.45583  0.45583  0.00000  0.08835
      13     H     0.44438  0.44438  0.00000  0.11125
      14     H     0.44856  0.44856  0.00000  0.10287
      15     H     0.45518  0.45518  0.00000  0.08964

   Total alpha = 21.00000, Total beta = 21.00000, Total charge = -0.00000
