  ==> Input File <==

--------------------------------------------------------------------------
set {
	reference rhf
	basis 6-31G*
}

set_num_threads( 4 )
memory 2 gb

molecule MOL {
0 1

H	 -3.943826	 -0.471178	 0.513080
O	 -3.517110	 -0.026191	 -0.205115
C	 -2.306886	 0.532354	 0.237577
C	 -1.177863	 -0.397191	 -0.171080
H	 -2.156308	 1.517575	 -0.201710
H	 -2.315015	 0.655684	 1.319734
C	 0.198102	 0.111031	 0.262842
H	 -1.208843	 -0.518759	 -1.250427
H	 -1.368741	 -1.376554	 0.258909
C	 1.331804	 -0.827780	 -0.158768
H	 0.361943	 1.100838	 -0.156218
H	 0.217265	 0.229072	 1.345532
C	 2.723619	 -0.410569	 0.329459
H	 1.342964	 -0.912588	 -1.244120
H	 1.116806	 -1.824343	 0.220779
C	 3.243875	 0.895854	 -0.272975
H	 3.424222	 -1.207124	 0.091250
H	 2.714788	 -0.329854	 1.414619
H	 3.251977	 0.848779	 -1.358681
H	 2.637085	 1.747371	 0.016682
H	 4.259473	 1.094070	 0.055697

	symmetry c1
}
set optking {
	frozen_dihedral = ("
		1 2 3 5
	")
}

ee = optimize('scf')
oeprop('DIPOLE', 'QUADRUPOLE', 'MULLIKEN_CHARGES')
f=open( 'psi4out.xyz', 'w' )
f.write( "21  " )
f.write( str(ee) + "\n" )
f.write( MOL.save_string_xyz() )
f.close()
--------------------------------------------------------------------------

    Molecular point group: c1
  Charge       = 0
  Multiplicity = 1
  Basis Set: 6-31G*
  Basis Set:
  @DF-RHF Final Energy:  -310.21039843495561
    Total Energy =                       -310.2103984349555503
    Molecular point group: c1
  Basis Set: 6-31G*
  Basis Set:
  Basis Set: 6-31G*
  Basis Set:
  @DF-RHF Final Energy:  -310.21131554965348
    Total Energy =                       -310.2113155496533636
  Basis Set: 6-31G*
  Basis Set:
  Basis Set: 6-31G*
  Basis Set:
  @DF-RHF Final Energy:  -310.21148882567309
    Total Energy =                       -310.2114888256733707
  Basis Set: 6-31G*
  Basis Set:
  Basis Set: 6-31G*
  Basis Set:
  @DF-RHF Final Energy:  -310.21149072936441
    Total Energy =                       -310.2114907293645842
  Basis Set: 6-31G*
  Basis Set:
  Charge       = 0
  Multiplicity = 1
  Basis Set: 6-31G*
  Basis Set:

    Orbital Energies (a.u.)
    -----------------------

    Doubly Occupied:

       1A    -20.551164     2A    -11.267317     3A    -11.216897
       4A    -11.216174     5A    -11.214956     6A    -11.211806
       7A    -11.208741     8A     -1.357714     9A     -1.087170
      10A     -1.033510    11A     -0.954633    12A     -0.877752
      13A     -0.813041    14A     -0.779457    15A     -0.699059
      16A     -0.647803    17A     -0.618603    18A     -0.608561
      19A     -0.588688    20A     -0.571613    21A     -0.541642
      22A     -0.527852    23A     -0.501472    24A     -0.495702
      25A     -0.469915    26A     -0.468344    27A     -0.460761
      28A     -0.456683    29A     -0.419589

  @DF-RHF Final Energy:  -310.21148985483921

   => Energetics <=

    Nuclear Repulsion Energy =            312.0907527894975146
    One-Electron Energy =               -1038.8712480013405184
    Two-Electron Energy =                 416.5690053570039595
    DFT Exchange-Correlation Energy =       0.0000000000000000
    Empirical Dispersion Energy =           0.0000000000000000
    PCM Polarization Energy =               0.0000000000000000
    EFP Energy =                            0.0000000000000000
    Total Energy =                       -310.2114898548390443
    Molecular point group: c1
  Basis Set: 6-31G*
  Basis Set:

  -Total Gradient:
     Atom            X                  Y                   Z
    ------   -----------------  -----------------  -----------------
       1       -0.000691558676     0.001468906880     0.000494644642
       2        0.000797473550    -0.001650894008    -0.000362571528
       3        0.000613159142    -0.000429082799    -0.001285111340
       4       -0.000138768121     0.000063762126    -0.000047741608
       5       -0.000649610627     0.000585096167     0.001131133927
       6       -0.000000209791    -0.000008541533     0.000037197360
       7       -0.000019913202     0.000004438022     0.000005147310
       8        0.000012586214    -0.000031403321    -0.000006483229
       9       -0.000008297870     0.000025578742     0.000004027584
      10        0.000038695688     0.000002022115     0.000039450647
      11        0.000040997343     0.000025518444     0.000019009266
      12       -0.000002888492    -0.000017744676    -0.000009473751
      13        0.000048439089    -0.000047236620    -0.000062972038
      14       -0.000002453193    -0.000030128359     0.000011296841
      15       -0.000006675354     0.000025094211     0.000025666804
      16       -0.000022478446     0.000002133745     0.000014281620
      17        0.000029593952     0.000016228328    -0.000012655288
      18        0.000003941119    -0.000022903850    -0.000007474394
      19        0.000007454081    -0.000006675371     0.000008664610
      20       -0.000045598724     0.000014090939    -0.000004771304
      21       -0.000003887674     0.000011740816     0.000008733870

  **** Optimization is complete! (in 5 steps) ****
    Final optimized geometry and variables:
    Molecular point group: c1

    Geometry (in Angstrom), charge = 0, multiplicity = 1:

    H           -4.002815137176    -0.402391643018     0.473472374932
    O           -3.551182316386     0.049929056659    -0.222667385766
    C           -2.306555378054     0.518073247576     0.237646299671
    C           -1.172329688932    -0.412338161258    -0.168194874819
    H           -2.160279804267     1.505050006750    -0.187037674678
    H           -2.320549792228     0.643205336190     1.318793332388
    C            0.202902992217     0.100454801624     0.263573180237
    H           -1.203713866870    -0.537234176585    -1.247172181297
    H           -1.353789801741    -1.395306173860     0.262256125140
    C            1.342090020059    -0.831737295060    -0.158203271310
    H            0.360047602119     1.090864241090    -0.156430619120
    H            0.223261805789     0.220684778969     1.346287048042
    C            2.732825482031    -0.401855538803     0.322215031609
    H            1.349269669787    -0.921214585233    -1.243158522100
    H            1.136453028811    -1.828413818786     0.226587803502
    C            3.236474892781     0.910459134830    -0.281463627187
    H            3.439758038981    -1.191209243890     0.078727702727
    H            2.729705618653    -0.322651573311     1.407547267352
    H            3.240056360220     0.864338368882    -1.367197609869
    H            2.622106402612     1.755283267690     0.011690731759
    H            4.251414729653     1.119014777604     0.042739556420

  Mulliken Charges: (a.u.)
   Center  Symbol    Alpha    Beta     Spin     Total
       1     H     0.28065  0.28065  0.00000  0.43871
       2     O     4.37285  4.37285  0.00000 -0.74569
       3     C     2.99333  2.99333  0.00000  0.01334
       4     C     3.15848  3.15848  0.00000 -0.31695
       5     H     0.41955  0.41955  0.00000  0.16090
       6     H     0.43251  0.43251  0.00000  0.13498
       7     C     3.16278  3.16278  0.00000 -0.32555
       8     H     0.41422  0.41422  0.00000  0.17155
       9     H     0.42520  0.42520  0.00000  0.14960
      10     C     3.15138  3.15138  0.00000 -0.30276
      11     H     0.42011  0.42011  0.00000  0.15979
      12     H     0.42511  0.42511  0.00000  0.14978
      13     C     3.15244  3.15244  0.00000 -0.30488
      14     H     0.42262  0.42262  0.00000  0.15476
      15     H     0.42200  0.42200  0.00000  0.15600
      16     C     3.24131  3.24131  0.00000 -0.48262
      17     H     0.42061  0.42061  0.00000  0.15878
      18     H     0.42375  0.42375  0.00000  0.15249
      19     H     0.42173  0.42173  0.00000  0.15654
      20     H     0.42027  0.42027  0.00000  0.15947
      21     H     0.41911  0.41911  0.00000  0.16178

   Total alpha = 29.00000, Total beta = 29.00000, Total charge =  0.00000
