                              Psi4 1.0.54 Driver

  ==> Input File <==

--------------------------------------------------------------------------
set {
	reference rhf
	basis cc-pvtz
}

set_num_threads( 4 )
memory 2 gb

molecule MOL {
0 1

H	 -3.273011	 0.339912	 3.049474
O	 -2.563975	 -0.211762	 2.775397
C	 -1.816835	 0.424523	 1.772730
C	 -0.685434	 -0.494214	 1.358031
H	 -2.445792	 0.648847	 0.913739
H	 -1.413749	 1.366701	 2.138317
C	 0.196029	 0.106276	 0.266738
H	 -1.111878	 -1.432667	 1.017924
H	 -0.089179	 -0.722996	 2.235559
C	 1.330220	 -0.826136	 -0.155230
H	 -0.419552	 0.352079	 -0.593120
H	 0.619789	 1.044528	 0.618436
C	 2.719700	 -0.407669	 0.328325
H	 1.339388	 -0.911200	 -1.239363
H	 1.119001	 -1.821953	 0.224128
C	 3.241564	 0.893452	 -0.276737
H	 3.418299	 -1.204729	 0.093035
H	 2.711776	 -0.323368	 1.411960
H	 3.254204	 0.841071	 -1.360784
H	 2.634460	 1.745075	 0.005842
H	 4.254264	 1.092401	 0.054971

	symmetry c1
}
set optking {
	frozen_dihedral = ("
		4 7 10 14
	")
}

ee,wfn = optimize('scf', return_wfn=True)
oeprop( wfn, 'DIPOLE', 'QUADRUPOLE', 'MULLIKEN_CHARGES')
f=open( 'psi4out.xyz', 'w' )
f.write( "21  " )
f.write( str(ee) + "\n" )
f.write( MOL.save_string_xyz() )
f.close()
--------------------------------------------------------------------------

    Molecular point group: c1
  Charge       = 0
  Multiplicity = 1
  Basis Set: CC-PVTZ
  Basis Set:
  @DF-RHF Final Energy:  -310.32775820575745
    Total Energy =                       -310.3277582057575046
    Molecular point group: c1
  Basis Set: CC-PVTZ
  Basis Set:
  Basis Set: CC-PVTZ
  Basis Set:
  @DF-RHF Final Energy:  -310.32768573273955
    Total Energy =                       -310.3276857327393827
  Basis Set: CC-PVTZ
  Basis Set:
  Basis Set: CC-PVTZ
  Basis Set:
  @DF-RHF Final Energy:  -310.32823653997184
    Total Energy =                       -310.3282365399715559
  Basis Set: CC-PVTZ
  Basis Set:
  Basis Set: CC-PVTZ
  Basis Set:
  @DF-RHF Final Energy:  -310.32819847218940
    Total Energy =                       -310.3281984721893991
  Basis Set: CC-PVTZ
  Basis Set:
  Basis Set: CC-PVTZ
  Basis Set:
  @DF-RHF Final Energy:  -310.32827944727291
    Total Energy =                       -310.3282794472727915
  Basis Set: CC-PVTZ
  Basis Set:
  Charge       = 0
  Multiplicity = 1
  Basis Set: CC-PVTZ
  Basis Set:

    Orbital Energies (a.u.)
    -----------------------

    Doubly Occupied:

       1A    -20.545472     2A    -11.264870     3A    -11.213276
       4A    -11.213174     5A    -11.210949     6A    -11.209355
       7A    -11.206024     8A     -1.363283     9A     -1.085983
      10A     -1.033813    11A     -0.954383    12A     -0.875800
      13A     -0.812418    14A     -0.776696    15A     -0.695458
      16A     -0.660291    17A     -0.625617    18A     -0.610559
      19A     -0.577318    20A     -0.574902    21A     -0.544305
      22A     -0.523527    23A     -0.500801    24A     -0.493116
      25A     -0.482749    26A     -0.456146    27A     -0.452168
      28A     -0.445576    29A     -0.437586

  @DF-RHF Final Energy:  -310.32827975936021

   => Energetics <=

    Nuclear Repulsion Energy =            314.2453678853403858
    One-Electron Energy =               -1043.4560553505575626
    Two-Electron Energy =                 418.8824077058570765
    DFT Exchange-Correlation Energy =       0.0000000000000000
    Empirical Dispersion Energy =           0.0000000000000000
    PCM Polarization Energy =               0.0000000000000000
    EFP Energy =                            0.0000000000000000
    Total Energy =                       -310.3282797593601572
    Molecular point group: c1
  Basis Set: CC-PVTZ
  Basis Set:

  -Total Gradient:
     Atom            X                  Y                   Z
    ------   -----------------  -----------------  -----------------
       1       -0.000022064069     0.000016532663     0.000011696345
       2        0.000024199195    -0.000017428045     0.000011482984
       3        0.000003808572     0.000008948418     0.000001141942
       4       -0.000806956823    -0.000552506590    -0.001035629556
       5        0.000001312026    -0.000002843991    -0.000013136600
       6       -0.000000333835     0.000031184255     0.000017099585
       7        0.000816273563     0.000356859242     0.001367372719
       8       -0.000024415830    -0.000004727624    -0.000014828066
       9        0.000019321350    -0.000021792749     0.000009909172
      10        0.001173467536     0.001706963077    -0.000378195060
      11       -0.000021126158    -0.000004409999    -0.000014239565
      12        0.000017103772     0.000010314296    -0.000004462100
      13        0.000026066969    -0.000013513123    -0.000004008722
      14       -0.001175777291    -0.001501528743     0.000043225285
      15       -0.000009398475    -0.000009546755     0.000008253795
      16        0.000005176811    -0.000004214014     0.000007040214
      17        0.000031164907    -0.000036104464     0.000004856620
      18       -0.000026777940    -0.000010279958     0.000012494174
      19       -0.000001337193     0.000000224703    -0.000047579836
      20       -0.000046604604     0.000058826624     0.000014950852
      21        0.000016897518    -0.000010957222     0.000002555818

  **** Optimization is complete! (in 6 steps) ****
    Final optimized geometry and variables:
    Molecular point group: c1

    Geometry (in Angstrom), charge = 0, multiplicity = 1:

    H           -3.576773087873     0.344613552921     2.150976744737
    O           -2.878835663454    -0.206622120310     1.849028167868
    C           -2.109683041210     0.469469530195     0.889958582177
    C           -0.998490662670    -0.450288024355     0.426741346987
    H           -2.727042063334     0.759934021144     0.042294186659
    H           -1.686427984506     1.378184979259     1.313056149939
    C           -0.104168952655     0.185641413993    -0.634959242913
    H           -1.443472657045    -1.359997058290     0.036993437147
    H           -0.407262002791    -0.738383933516     1.290827357363
    C            1.060151254267    -0.728058030173    -1.068218777203
    H           -0.713517075514     0.438298776088    -1.497164393005
    H            0.283424273844     1.127353218370    -0.259481329893
    C            2.433195884085    -0.309364033243    -0.538687147376
    H            1.098519974422    -0.792456546582    -2.151196425541
    H            0.853995562114    -1.737719366664    -0.727542042648
    C            2.999286856540     0.945713027542    -1.197964664180
    H            3.131308120637    -1.126621598085    -0.691795369175
    H            2.372913051767    -0.160534524280     0.536472673284
    H            3.120521264229     0.798897779895    -2.266324001207
    H            2.354406487888     1.805370928163    -1.056107405988
    H            3.970750236304     1.195475124822    -0.786684390028

  Mulliken Charges: (a.u.)
   Center  Symbol    Alpha    Beta     Spin     Total
       1     H     0.39740  0.39740  0.00000  0.20520
       2     O     4.19476  4.19476  0.00000 -0.38953
       3     C     2.96399  2.96399  0.00000  0.07201
       4     C     3.08321  3.08321  0.00000 -0.16641
       5     H     0.47494  0.47494  0.00000  0.05013
       6     H     0.47477  0.47477  0.00000  0.05045
       7     C     3.10991  3.10991  0.00000 -0.21981
       8     H     0.45011  0.45011  0.00000  0.09977
       9     H     0.45083  0.45083  0.00000  0.09835
      10     C     3.10254  3.10254  0.00000 -0.20509
      11     H     0.44841  0.44841  0.00000  0.10317
      12     H     0.45426  0.45426  0.00000  0.09148
      13     C     3.08899  3.08899  0.00000 -0.17797
      14     H     0.44731  0.44731  0.00000  0.10539
      15     H     0.44863  0.44863  0.00000  0.10275
      16     C     3.14944  3.14944  0.00000 -0.29888
      17     H     0.44869  0.44869  0.00000  0.10261
      18     H     0.45400  0.45400  0.00000  0.09200
      19     H     0.45487  0.45487  0.00000  0.09026
      20     H     0.45511  0.45511  0.00000  0.08977
      21     H     0.44783  0.44783  0.00000  0.10433

   Total alpha = 29.00000, Total beta = 29.00000, Total charge =  0.00000

*** Psi4 exiting successfully. Buy a developer a beer!
