  ==> Input File <==

--------------------------------------------------------------------------
set {
	reference rhf
	basis 6-31G*
}

set_num_threads( 4 )
memory 2 gb

molecule MOL {
0 1

O	 1.304070	 1.148864	 1.788985
C	 0.578076	 1.139421	 0.831099
C	 -0.449751	 2.239718	 0.644002
N	 0.623947	 0.147590	 -0.102813
H	 -1.457505	 1.840568	 0.609445
H	 -0.362686	 2.909032	 1.486312
H	 -0.276534	 2.796017	 -0.270934
C	 1.665360	 -0.855771	 0.000151
C	 -0.060029	 0.201767	 -1.376189
H	 2.465253	 -0.618490	 -0.692587
H	 1.257730	 -1.821716	 -0.242189
H	 2.081488	 -0.891645	 1.004627
H	 -0.335357	 -0.803135	 -1.673518
H	 -0.965940	 0.783677	 -1.315852
H	 0.569788	 0.622143	 -2.158128

	symmetry c1
}
set optking {
	frozen_dihedral = ("
		2 4 8 10
	")
}

ee = optimize('scf')
oeprop('DIPOLE', 'QUADRUPOLE', 'MULLIKEN_CHARGES')
f=open( 'psi4out.xyz', 'w' )
f.write( "15  " )
f.write( str(ee) + "\n" )
f.write( MOL.save_string_xyz() )
f.close()
--------------------------------------------------------------------------

    Molecular point group: c1
  Charge       = 0
  Multiplicity = 1
  Basis Set: 6-31G*
  Basis Set:
  @DF-RHF Final Energy:  -286.02940301598107
    Total Energy =                       -286.0294030159809608
    Molecular point group: c1
  Basis Set: 6-31G*
  Basis Set:
  Basis Set: 6-31G*
  Basis Set:
  @DF-RHF Final Energy:  -286.02977070231890
    Total Energy =                       -286.0297707023190696
  Basis Set: 6-31G*
  Basis Set:
  Basis Set: 6-31G*
  Basis Set:
  @DF-RHF Final Energy:  -286.02978509679718
    Total Energy =                       -286.0297850967970703
  Basis Set: 6-31G*
  Basis Set:
  Basis Set: 6-31G*
  Basis Set:
  @DF-RHF Final Energy:  -286.02979122317981
    Total Energy =                       -286.0297912231798705
  Basis Set: 6-31G*
  Basis Set:
  Basis Set: 6-31G*
  Basis Set:
  @DF-RHF Final Energy:  -286.02981505047762
    Total Energy =                       -286.0298150504776231
  Basis Set: 6-31G*
  Basis Set:
  Charge       = 0
  Multiplicity = 1
  Basis Set: 6-31G*
  Basis Set:

    Orbital Energies (a.u.)
    -----------------------

    Doubly Occupied:

       1A    -20.513979     2A    -15.584032     3A    -11.341675
       4A    -11.266446     5A    -11.247778     6A    -11.228286
       7A     -1.384004     8A     -1.243755     9A     -1.014217
      10A     -0.972711    11A     -0.919333    12A     -0.737947
      13A     -0.681098    14A     -0.659275    15A     -0.651315
      16A     -0.589335    17A     -0.576072    18A     -0.567409
      19A     -0.561554    20A     -0.546913    21A     -0.529626
      22A     -0.503695    23A     -0.409991    24A     -0.366377

  @DF-RHF Final Energy:  -286.02981512537809

   => Energetics <=

    Nuclear Repulsion Energy =            252.3681299266607425
    One-Electron Energy =                -888.6022412192460251
    Two-Electron Energy =                 350.2042961672071897
    DFT Exchange-Correlation Energy =       0.0000000000000000
    Empirical Dispersion Energy =           0.0000000000000000
    PCM Polarization Energy =               0.0000000000000000
    EFP Energy =                            0.0000000000000000
    Total Energy =                       -286.0298151253781498
    Molecular point group: c1
  Basis Set: 6-31G*
  Basis Set:

  -Total Gradient:
     Atom            X                  Y                   Z
    ------   -----------------  -----------------  -----------------
       1        0.000005073863     0.000014279398    -0.000002051622
       2       -0.000004948585     0.000003105106     0.000027220979
       3       -0.000039778953    -0.000048778428     0.000020279359
       4       -0.000010261402     0.000008220916    -0.000028472666
       5       -0.000001504453     0.000017954791    -0.000002653538
       6        0.000007108494     0.000001475208    -0.000003472341
       7        0.000015539501    -0.000012351107    -0.000017410544
       8        0.000019615409     0.000004945237     0.000035533387
       9        0.000029691878     0.000015928434    -0.000015478665
      10       -0.000016957846    -0.000029624367    -0.000036223918
      11        0.000005237421     0.000008518389     0.000008134699
      12       -0.000003745196    -0.000001794294    -0.000000835874
      13        0.000005819436     0.000003776487     0.000008907497
      14       -0.000006547311     0.000012708167     0.000010278939
      15       -0.000004342257     0.000001636059    -0.000003755691

  **** Optimization is complete! (in 6 steps) ****
    Final optimized geometry and variables:
    Molecular point group: c1

    Geometry (in Angstrom), charge = 0, multiplicity = 1:

    O            0.690084226247     0.482601952458     1.502350643156
    C           -0.034903136354     0.473292102307     0.543672539054
    C           -1.064774947784     1.571863792314     0.357615326022
    N            0.014039462408    -0.515970183704    -0.392630433219
    H           -2.072174223797     1.171357551283     0.327671664451
    H           -0.975643085163     2.243117299201     1.198151970485
    H           -0.895587195586     2.126250386141    -0.559225961730
    C            1.054977909469    -1.519953888520    -0.291977780310
    C           -0.675683130473    -0.465379250716    -1.662963817478
    H            1.874907879092    -1.307114327170    -0.974439558776
    H            0.645832500896    -2.492464660707    -0.543282465210
    H            1.435537143236    -1.541735920007     0.714258473812
    H           -0.949783789460    -1.471469848158    -1.957518140712
    H           -1.582734587516     0.114425295799    -1.599830521933
    H           -0.050080701384    -0.044837816861    -2.448161143779

  Mulliken Charges: (a.u.)
   Center  Symbol    Alpha    Beta     Spin     Total
       1     O     4.30477  4.30477  0.00000 -0.60953
       2     C     2.62343  2.62343  0.00000  0.75314
       3     C     3.29877  3.29877  0.00000 -0.59753
       4     N     3.82379  3.82379  0.00000 -0.64759
       5     H     0.40654  0.40654  0.00000  0.18692
       6     H     0.39043  0.39043  0.00000  0.21915
       7     H     0.40785  0.40785  0.00000  0.18431
       8     C     3.14543  3.14543  0.00000 -0.29086
       9     C     3.14170  3.14170  0.00000 -0.28339
      10     H     0.41999  0.41999  0.00000  0.16003
      11     H     0.41877  0.41877  0.00000  0.16247
      12     H     0.38418  0.38418  0.00000  0.23165
      13     H     0.41065  0.41065  0.00000  0.17871
      14     H     0.40715  0.40715  0.00000  0.18569
      15     H     0.41658  0.41658  0.00000  0.16685

   Total alpha = 24.00000, Total beta = 24.00000, Total charge =  0.00000
