  ==> Input File <==

--------------------------------------------------------------------------
set {
	reference rhf
	basis cc-pvtz
}

set_num_threads( 4 )
memory 2 gb

molecule MOL {
0 1

H	 3.883246	 0.350212	 0.202241
N	 3.077929	 -0.238488	 0.224910
C	 1.860978	 0.530248	 0.016256
H	 3.066863	 -0.688152	 1.116553
C	 0.644130	 -0.381765	 -0.031064
H	 1.955647	 1.049755	 -0.931403
H	 1.706540	 1.295286	 0.778372
C	 -0.678115	 0.376691	 0.025731
H	 0.693998	 -0.977147	 -0.936845
H	 0.693309	 -1.082142	 0.800523
C	 -1.900706	 -0.535531	 -0.022488
H	 -0.725296	 1.079516	 -0.802982
H	 -0.715474	 0.974884	 0.933278
C	 -3.220513	 0.226854	 0.028039
H	 -1.865036	 -1.134397	 -0.928236
H	 -1.857948	 -1.236381	 0.806820
H	 -3.309098	 0.911849	 -0.808725
H	 -4.066838	 -0.449485	 -0.008086
H	 -3.301685	 0.809374	 0.939860

	symmetry c1
}
set optking {
	frozen_dihedral = ("
		6 3 5 9
	")
}

ee = optimize('scf')
oeprop('DIPOLE', 'QUADRUPOLE', 'MULLIKEN_CHARGES')
f=open( 'psi4out.xyz', 'w' )
f.write( "19  " )
f.write( str(ee) + "\n" )
f.write( MOL.save_string_xyz() )
f.close()
--------------------------------------------------------------------------

    Molecular point group: c1
  Charge       = 0
  Multiplicity = 1
  Basis Set: CC-PVTZ
  Basis Set:
  @DF-RHF Final Energy:  -251.44751316340373
    Total Energy =                       -251.4475131634037552
    Molecular point group: c1
  Basis Set: CC-PVTZ
  Basis Set:
  Basis Set: CC-PVTZ
  Basis Set:
  @DF-RHF Final Energy:  -251.44759265174125
    Total Energy =                       -251.4475926517412745
  Basis Set: CC-PVTZ
  Basis Set:
  Basis Set: CC-PVTZ
  Basis Set:
  @DF-RHF Final Energy:  -251.44761429075913
    Total Energy =                       -251.4476142907589065
  Basis Set: CC-PVTZ
  Basis Set:
  Charge       = 0
  Multiplicity = 1
  Basis Set: CC-PVTZ
  Basis Set:

    Orbital Energies (a.u.)
    -----------------------

    Doubly Occupied:

       1A    -15.526122     2A    -11.238035     3A    -11.211829
       4A    -11.210307     5A    -11.207780     6A    -11.205480
       7A     -1.177789     8A     -1.074180     9A     -0.999395
      10A     -0.900801    11A     -0.813455    12A     -0.789260
      13A     -0.668193    14A     -0.640677    15A     -0.618957
      16A     -0.587629    17A     -0.567587    18A     -0.549420
      19A     -0.528796    20A     -0.500764    21A     -0.481319
      22A     -0.464988    23A     -0.461591    24A     -0.449956
      25A     -0.383664

  @DF-RHF Final Energy:  -251.44761454136838

   => Energetics <=

    Nuclear Repulsion Energy =            246.0688681292982380
    One-Electron Energy =                -826.5170213650817459
    Two-Electron Energy =                 329.0005386944152406
    DFT Exchange-Correlation Energy =       0.0000000000000000
    Empirical Dispersion Energy =           0.0000000000000000
    PCM Polarization Energy =               0.0000000000000000
    EFP Energy =                            0.0000000000000000
    Total Energy =                       -251.4476145413682389
    Molecular point group: c1
  Basis Set: CC-PVTZ
  Basis Set:

  -Total Gradient:
     Atom            X                  Y                   Z
    ------   -----------------  -----------------  -----------------
       1        0.000002744767    -0.000016589124     0.000004495173
       2       -0.000007477781     0.000043690275    -0.000000634653
       3       -0.002017018158     0.002663175497     0.000799032681
       4       -0.000005721954     0.000006408926    -0.000016754151
       5        0.001909857350    -0.002571013845     0.001278468015
       6        0.001425087527    -0.001867685363    -0.000875979598
       7       -0.000004492032    -0.000011682583    -0.000001511775
       8        0.000010116059    -0.000015191187     0.000053759255
       9       -0.001278126213     0.001732656703    -0.001237317483
      10       -0.000013387225     0.000027717046    -0.000004355908
      11       -0.000008719404     0.000000130717     0.000003706424
      12       -0.000000643872    -0.000001420569     0.000007079149
      13       -0.000010265676     0.000013972979     0.000011218024
      14        0.000000643876    -0.000001094055    -0.000016430182
      15        0.000000461052    -0.000011900520     0.000001673993
      16       -0.000002872065     0.000008444404     0.000003077758
      17       -0.000003504352     0.000005791640    -0.000001392336
      18       -0.000001166413     0.000000937327    -0.000005940510
      19        0.000004484517    -0.000006348268    -0.000002193876

  **** Optimization is complete! (in 4 steps) ****
    Final optimized geometry and variables:
    Molecular point group: c1

    Geometry (in Angstrom), charge = 0, multiplicity = 1:

    H            3.891082244356     0.345784825405     0.082649861784
    N            3.085236260041    -0.239150015846     0.146518451291
    C            1.862194974113     0.530141101347    -0.027980667418
    H            3.107604623102    -0.675523417876     1.044381811945
    C            0.647097065575    -0.387875179738    -0.048110688562
    H            1.939907881560     1.038388735080    -0.982947990285
    H            1.729341950165     1.295558907463     0.736933599196
    C           -0.675699785225     0.372640300636    -0.007761266289
    H            0.684785791259    -0.993960736613    -0.947209974842
    H            0.697917440351    -1.069984812926     0.797088925103
    C           -1.898730435759    -0.536949028663    -0.083592845359
    H           -0.708360204109     1.082375667230    -0.831692915026
    H           -0.726926405906     0.964092118605     0.903402628517
    C           -3.218087471131     0.226690594380    -0.041520409197
    H           -1.852028489702    -1.125028900747    -0.995871647951
    H           -1.867955740885    -1.247844019867     0.737728614637
    H           -3.294034031965     0.922552145014    -0.870545716494
    H           -4.064795957881    -0.447810528424    -0.098098894021
    H           -3.311086984554     0.797527952740     0.876523910515

  Mulliken Charges: (a.u.)
   Center  Symbol    Alpha    Beta     Spin     Total
       1     H     0.42995  0.42995  0.00000  0.14010
       2     N     3.69036  3.69036  0.00000 -0.38072
       3     C     3.02803  3.02803  0.00000 -0.05605
       4     H     0.43084  0.43084  0.00000  0.13832
       5     C     3.07940  3.07940  0.00000 -0.15881
       6     H     0.45612  0.45612  0.00000  0.08777
       7     H     0.46819  0.46819  0.00000  0.06362
       8     C     3.09383  3.09383  0.00000 -0.18765
       9     H     0.45038  0.45038  0.00000  0.09924
      10     H     0.45922  0.45922  0.00000  0.08155
      11     C     3.08366  3.08366  0.00000 -0.16733
      12     H     0.45555  0.45555  0.00000  0.08891
      13     H     0.45662  0.45662  0.00000  0.08675
      14     C     3.14968  3.14968  0.00000 -0.29936
      15     H     0.45385  0.45385  0.00000  0.09231
      16     H     0.45485  0.45485  0.00000  0.09031
      17     H     0.45530  0.45530  0.00000  0.08941
      18     H     0.44854  0.44854  0.00000  0.10292
      19     H     0.45564  0.45564  0.00000  0.08872

   Total alpha = 25.00000, Total beta = 25.00000, Total charge = -0.00000
