                              Psi4 1.0.54 Driver

  ==> Input File <==

--------------------------------------------------------------------------
set {
	reference rhf
	basis cc-pvtz
}

set_num_threads( 4 )
memory 2 gb

molecule MOL {
0 1

O	 -1.510770	 1.240811	 -0.054933
C	 -1.081510	 0.147522	 0.122720
C	 0.327029	 -0.064006	 0.641890
C	 -1.903028	 -1.084121	 -0.174656
C	 1.349460	 -0.017068	 -0.500215
H	 0.399029	 -1.014606	 1.159950
H	 0.538021	 0.726928	 1.350471
C	 0.719527	 -0.307480	 -1.857636
H	 1.825862	 0.958747	 -0.525941
H	 2.130899	 -0.739277	 -0.295048
H	 1.464258	 -0.279318	 -2.644155
H	 -0.046525	 0.421385	 -2.099860
H	 0.259193	 -1.289202	 -1.871228
H	 -1.341891	 -1.779207	 -0.789259
H	 -2.820449	 -0.808163	 -0.671328
H	 -2.133314	 -1.593056	 0.755831

	symmetry c1
}
set optking {
	frozen_dihedral = ("
		9 5 3 2
	")
}

ee,wfn = optimize('scf', return_wfn=True)
oeprop( wfn, 'DIPOLE', 'QUADRUPOLE', 'MULLIKEN_CHARGES')
f=open( 'psi4out.xyz', 'w' )
f.write( "16  " )
f.write( str(ee) + "\n" )
f.write( MOL.save_string_xyz() )
f.close()
--------------------------------------------------------------------------

    Molecular point group: c1
  Charge       = 0
  Multiplicity = 1
  Basis Set: CC-PVTZ
  Basis Set:
  @DF-RHF Final Energy:  -270.11764774983419
    Total Energy =                       -270.1176477498344184
    Molecular point group: c1
  Basis Set: CC-PVTZ
  Basis Set:
  Basis Set: CC-PVTZ
  Basis Set:
  @DF-RHF Final Energy:  -270.12025606979580
    Total Energy =                       -270.1202560697958575
  Basis Set: CC-PVTZ
  Basis Set:
  Basis Set: CC-PVTZ
  Basis Set:
  @DF-RHF Final Energy:  -270.12144706547519
    Total Energy =                       -270.1214470654751949
  Basis Set: CC-PVTZ
  Basis Set:
  Basis Set: CC-PVTZ
  Basis Set:
  @DF-RHF Final Energy:  -270.11985369907825
    Total Energy =                       -270.1198536990781349
  Basis Set: CC-PVTZ
  Basis Set:
  @DF-RHF Final Energy:  -270.12216804778006
    Total Energy =                       -270.1221680477800646
  @DF-RHF Final Energy:  -270.12223341084569
    Total Energy =                       -270.1222334108456380
  @DF-RHF Final Energy:  -270.12228475721150
    Total Energy =                       -270.1222847572115597
  @DF-RHF Final Energy:  -270.12232039659671
    Total Energy =                       -270.1223203965964785
  @DF-RHF Final Energy:  -270.12236067210017
    Total Energy =                       -270.1223606721000579
  @DF-RHF Final Energy:  -270.12238630154377
    Total Energy =                       -270.1223863015435427
  @DF-RHF Final Energy:  -270.12239617299724
    Total Energy =                       -270.1223961729973553
  @DF-RHF Final Energy:  -270.12240188867634
    Total Energy =                       -270.1224018886763929
  @DF-RHF Final Energy:  -270.12240740335437
    Total Energy =                       -270.1224074033543161
  @DF-RHF Final Energy:  -270.12240883349978
    Total Energy =                       -270.1224088334998328
  @DF-RHF Final Energy:  -270.12241733383701
    Total Energy =                       -270.1224173338366654
  @DF-RHF Final Energy:  -270.12242766033324
    Total Energy =                       -270.1224276603330736
  @DF-RHF Final Energy:  -270.12240934193210
    Total Energy =                       -270.1224093419320980
  Basis Set: CC-PVTZ
  Basis Set:
  @DF-RHF Final Energy:  -270.12221086032787
    Total Energy =                       -270.1222108603278684
  Basis Set: CC-PVTZ
  Basis Set:
  Basis Set: CC-PVTZ
  Basis Set:
  @DF-RHF Final Energy:  -270.12243392880396
    Total Energy =                       -270.1224339288040710
  Basis Set: CC-PVTZ
  Basis Set:
  Basis Set: CC-PVTZ
  Basis Set:
  @DF-RHF Final Energy:  -270.12243391798108
    Total Energy =                       -270.1224339179812546
  Basis Set: CC-PVTZ
  Basis Set:
  Charge       = 0
  Multiplicity = 1
  Basis Set: CC-PVTZ
  Basis Set:

    Orbital Energies (a.u.)
    -----------------------

    Doubly Occupied:

       1A    -20.536996     2A    -11.321089     3A    -11.230549
       4A    -11.227423     5A    -11.225499     6A    -11.206589
       7A     -1.398137     8A     -1.074313     9A     -1.014862
      10A     -0.947872    11A     -0.831214    12A     -0.725427
      13A     -0.658143    14A     -0.641491    15A     -0.623319
      16A     -0.605045    17A     -0.580850    18A     -0.554855
      19A     -0.543992    20A     -0.506166    21A     -0.494580
      22A     -0.478223    23A     -0.471611    24A     -0.399675

  @DF-RHF Final Energy:  -270.12243383606523

   => Energetics <=

    Nuclear Repulsion Energy =            242.5035324840809494
    One-Electron Energy =                -846.6560924899791871
    Two-Electron Energy =                 334.0301261698331245
    DFT Exchange-Correlation Energy =       0.0000000000000000
    Empirical Dispersion Energy =           0.0000000000000000
    PCM Polarization Energy =               0.0000000000000000
    EFP Energy =                            0.0000000000000000
    Total Energy =                       -270.1224338360651700
    Molecular point group: c1
  Basis Set: CC-PVTZ
  Basis Set:

  -Total Gradient:
     Atom            X                  Y                   Z
    ------   -----------------  -----------------  -----------------
       1       -0.000022402686    -0.000029858899     0.000048424868
       2       -0.000568901319    -0.003586443998    -0.001798246163
       3        0.001653062767     0.004080418945     0.002740336524
       4       -0.000068817356    -0.000054498474    -0.000035400975
       5       -0.004779577518     0.002096242154    -0.003621225284
       6        0.000314015227     0.000073834792     0.000361077359
       7       -0.000197764792     0.000371812747    -0.000102002563
       8       -0.000120658763     0.000255139197     0.000072962549
       9        0.004012687225    -0.002970794202     0.002568184675
      10       -0.000195207140    -0.000236915221    -0.000264260502
      11        0.000012769923    -0.000001883753    -0.000014209923
      12       -0.000014183672     0.000004453577    -0.000006972873
      13       -0.000000715598    -0.000015964964     0.000003481594
      14       -0.000004652948     0.000001809006     0.000002393288
      15       -0.000026457696     0.000001430692    -0.000000747009
      16        0.000006804344     0.000011218398     0.000046204434

  **** Optimization is complete! (in 21 steps) ****
    Final optimized geometry and variables:
    Molecular point group: c1

    Geometry (in Angstrom), charge = 0, multiplicity = 1:

    O           -1.050265157338     1.115405771861     0.149726627966
    C           -0.719440876017     0.041448932025     0.534811919244
    C            0.742376903505    -0.319570557884     0.735863054289
    C           -1.737421504045    -1.014821134698     0.891719576457
    C            1.708310940198     0.046351167638    -0.414080351788
    H            0.810945511922    -1.381177805807     0.942589362106
    H            1.048092871924     0.186654776736     1.646296692604
    C            1.108781338866     0.127599967914    -1.814425872512
    H            2.234423352147     0.961048857150    -0.170646798719
    H            2.478760113013    -0.718244514024    -0.421056394274
    H            1.898482469930     0.260496544435    -2.544675411018
    H            0.416510502888     0.950311939964    -1.909082512866
    H            0.581411286152    -0.786973187132    -2.070400408949
    H           -1.617214098636    -1.872943800186     0.238510579050
    H           -2.735488213498    -0.616742247911     0.792189526633
    H           -1.576003893186    -1.361088015260     1.907185505689

  Mulliken Charges: (a.u.)
   Center  Symbol    Alpha    Beta     Spin     Total
       1     O     4.17789  4.17789  0.00000 -0.35578
       2     C     2.84985  2.84985  0.00000  0.30030
       3     C     3.11853  3.11853  0.00000 -0.23707
       4     C     3.15351  3.15351  0.00000 -0.30702
       5     C     3.07859  3.07859  0.00000 -0.15717
       6     H     0.44582  0.44582  0.00000  0.10837
       7     H     0.43835  0.43835  0.00000  0.12329
       8     C     3.15868  3.15868  0.00000 -0.31736
       9     H     0.44772  0.44772  0.00000  0.10455
      10     H     0.45140  0.45140  0.00000  0.09720
      11     H     0.44807  0.44807  0.00000  0.10386
      12     H     0.43640  0.43640  0.00000  0.12720
      13     H     0.45895  0.45895  0.00000  0.08209
      14     H     0.45014  0.45014  0.00000  0.09972
      15     H     0.43651  0.43651  0.00000  0.12698
      16     H     0.44958  0.44958  0.00000  0.10084

   Total alpha = 24.00000, Total beta = 24.00000, Total charge =  0.00000

*** Psi4 exiting successfully. Buy a developer a beer!
