                              Psi4 1.0.54 Driver

  ==> Input File <==

--------------------------------------------------------------------------
set {
	reference rhf
	basis cc-pvtz
}

set_num_threads( 4 )
memory 2 gb

molecule MOL {
0 1

H	 -3.162190	 0.493205	 -0.000107
C	 -2.363908	 -0.234727	 0.000005
O	 -1.158738	 0.454634	 -0.000087
H	 -2.464314	 -0.863616	 -0.882153
H	 -2.464327	 -0.863359	 0.882345
C	 -0.028611	 -0.359694	 0.000037
C	 1.212847	 0.509314	 -0.000053
H	 -0.034155	 -1.007047	 -0.877198
H	 -0.034195	 -1.006836	 0.877430
C	 1.873649	 0.580589	 -1.372136
H	 0.938485	 1.503645	 0.334546
H	 1.910532	 0.114980	 0.730486
H	 1.199918	 0.995629	 -2.114373
H	 2.756683	 1.207048	 -1.343515
H	 2.178727	 -0.402261	 -1.715651

	symmetry c1
}
set optking {
	frozen_dihedral = ("
		11 7 6 8
	")
}

ee,wfn = optimize('scf', return_wfn=True)
oeprop( wfn, 'DIPOLE', 'QUADRUPOLE', 'MULLIKEN_CHARGES')
f=open( 'psi4out.xyz', 'w' )
f.write( "15  " )
f.write( str(ee) + "\n" )
f.write( MOL.save_string_xyz() )
f.close()
--------------------------------------------------------------------------

    Molecular point group: c1
  Charge       = 0
  Multiplicity = 1
  Basis Set: CC-PVTZ
  Basis Set:
  @DF-RHF Final Energy:  -232.22320806929315
    Total Energy =                       -232.2232080692931504
    Molecular point group: c1
  Basis Set: CC-PVTZ
  Basis Set:
  Basis Set: CC-PVTZ
  Basis Set:
  @DF-RHF Final Energy:  -232.22369005220798
    Total Energy =                       -232.2236900522080418
  Basis Set: CC-PVTZ
  Basis Set:
  Basis Set: CC-PVTZ
  Basis Set:
  @DF-RHF Final Energy:  -232.22382507492063
    Total Energy =                       -232.2238250749207396
  Basis Set: CC-PVTZ
  Basis Set:
  Basis Set: CC-PVTZ
  Basis Set:
  @DF-RHF Final Energy:  -232.22382928099182
    Total Energy =                       -232.2238292809918221
  Basis Set: CC-PVTZ
  Basis Set:
  Charge       = 0
  Multiplicity = 1
  Basis Set: CC-PVTZ
  Basis Set:

    Orbital Energies (a.u.)
    -----------------------

    Doubly Occupied:

       1A    -20.547229     2A    -11.264812     3A    -11.261373
       4A    -11.212787     5A    -11.206560     6A     -1.380524
       7A     -1.054515     8A     -0.953339     9A     -0.880488
      10A     -0.806715    11A     -0.670927    12A     -0.661733
      13A     -0.632803    14A     -0.586614    15A     -0.579520
      16A     -0.546240    17A     -0.492004    18A     -0.486734
      19A     -0.483986    20A     -0.462089    21A     -0.414713

  @DF-RHF Final Energy:  -232.22382980742233

   => Energetics <=

    Nuclear Repulsion Energy =            191.3070596951767754
    One-Electron Energy =                -693.8903634905886975
    Two-Electron Energy =                 270.3594739879895883
    DFT Exchange-Correlation Energy =       0.0000000000000000
    Empirical Dispersion Energy =           0.0000000000000000
    PCM Polarization Energy =               0.0000000000000000
    EFP Energy =                            0.0000000000000000
    Total Energy =                       -232.2238298074223053
    Molecular point group: c1
  Basis Set: CC-PVTZ
  Basis Set:

  -Total Gradient:
     Atom            X                  Y                   Z
    ------   -----------------  -----------------  -----------------
       1        0.000004743091    -0.000002518789     0.000003218388
       2       -0.000046788136    -0.000010333129    -0.000000219558
       3        0.000033832289    -0.000032722442     0.000003503611
       4       -0.000001112302     0.000002482329     0.000001591379
       5       -0.000005306741     0.000003625282    -0.000003149500
       6        0.002371617881    -0.003387003486     0.001822725728
       7        0.000535799524    -0.000533064257     0.004184582772
       8       -0.002043753329     0.002903526740    -0.002111354154
       9        0.000005435646     0.000021810470    -0.000008272079
      10       -0.000015940266     0.000005780496    -0.000005889982
      11       -0.000815979886     0.001057454835    -0.003862348319
      12       -0.000032306115    -0.000022048909    -0.000023866000
      13        0.000005279733    -0.000017508494    -0.000001771047
      14       -0.000000314504     0.000001894934     0.000002071961
      15        0.000004793111     0.000008624420    -0.000000823198

  **** Optimization is complete! (in 5 steps) ****
    Final optimized geometry and variables:
    Molecular point group: c1

    Geometry (in Angstrom), charge = 0, multiplicity = 1:

    H           -3.025176291844     0.339008579068     0.227829562592
    C           -2.235831963575    -0.398586674023     0.247866757434
    O           -1.022949423432     0.275186807014     0.281312578490
    H           -2.321205074901    -1.025627521046    -0.637387672069
    H           -2.368045263025    -1.027424832246     1.126155427439
    C            0.098977254035    -0.559117978751     0.317633723888
    C            1.358607072298     0.305180565838     0.285293431937
    H            0.067068792975    -1.216887703715    -0.549664164135
    H            0.066696707163    -1.176361044653     1.212695777930
    C            1.975162184105     0.416367957445    -1.107179308508
    H            1.076559825181     1.296589636721     0.616458911199
    H            2.093486980672    -0.082959267091     0.981065343234
    H            1.253005274377     0.804763233388    -1.816778356500
    H            2.829693971373     1.083196944148    -1.103691738314
    H            2.311408305496    -0.549841773571    -1.468580877297

  Mulliken Charges: (a.u.)
   Center  Symbol    Alpha    Beta     Spin     Total
       1     H     0.44729  0.44729  0.00000  0.10543
       2     C     3.03047  3.03047  0.00000 -0.06094
       3     O     4.17469  4.17469  0.00000 -0.34938
       4     H     0.47278  0.47278  0.00000  0.05445
       5     H     0.47238  0.47238  0.00000  0.05524
       6     C     2.96500  2.96500  0.00000  0.06999
       7     C     3.08319  3.08319  0.00000 -0.16638
       8     H     0.47612  0.47612  0.00000  0.04776
       9     H     0.46858  0.46858  0.00000  0.06284
      10     C     3.15086  3.15086  0.00000 -0.30171
      11     H     0.44787  0.44787  0.00000  0.10427
      12     H     0.45277  0.45277  0.00000  0.09447
      13     H     0.45053  0.45053  0.00000  0.09894
      14     H     0.44988  0.44988  0.00000  0.10023
      15     H     0.45760  0.45760  0.00000  0.08481

   Total alpha = 21.00000, Total beta = 21.00000, Total charge = -0.00000

*** Psi4 exiting successfully. Buy a developer a beer!
