  ==> Input File <==

--------------------------------------------------------------------------
set {
	reference rhf
	basis 6-31G*
}

set_num_threads( 1 )
memory 2 gb

molecule MOL {
0 1

H	 2.591676	 2.013956	 0.335017
O	 3.341076	 1.666752	 -0.126416
C	 3.569581	 0.339145	 0.272707
C	 2.539767	 -0.640285	 -0.279495
H	 4.553106	 0.084646	 -0.100901
H	 3.608576	 0.269204	 1.359154
C	 1.970669	 -1.601001	 0.767415
H	 1.730895	 -0.071929	 -0.731228
H	 3.009882	 -1.212368	 -1.077668
C	 0.980918	 -2.606094	 0.171596
H	 1.479450	 -1.027616	 1.548632
H	 2.787795	 -2.143537	 1.243125
C	 0.445447	 -3.646816	 1.161802
H	 0.145214	 -2.066546	 -0.270371
H	 1.470061	 -3.129681	 -0.647121
C	 -0.439289	 -3.080849	 2.275985
H	 -0.128093	 -4.384907	 0.604945
H	 1.281927	 -4.185836	 1.604063
C	 -1.034252	 -4.167144	 3.174549
H	 -1.247176	 -2.500243	 1.832899
H	 0.130748	 -2.389287	 2.891697
C	 -1.912657	 -3.604497	 4.291463
H	 -1.619002	 -4.855469	 2.568113
H	 -0.228752	 -4.754488	 3.610532
H	 -2.746907	 -3.038466	 3.886668
H	 -2.320791	 -4.398486	 4.909237
H	 -1.346996	 -2.939990	 4.938627

	symmetry c1
}
set optking {
	frozen_dihedral = ("
		14 10 7 4,
		14 10 13 16,
		10 7 4 8,
		10 13 16 20,
		20 16 19 22,
		4 3 2 1
	")
}

ee = energy('scf')
oeprop('DIPOLE', 'QUADRUPOLE', 'MULLIKEN_CHARGES')
f=open( 'psi4out.xyz', 'w' )
f.write( "27  " )
f.write( str(ee) + "\n" )
f.write( MOL.save_string_xyz() )
f.close()
--------------------------------------------------------------------------

    Molecular point group: c1

    Geometry (in Angstrom), charge = 0, multiplicity = 1:

       Center              X                  Y                   Z               Mass
    ------------   -----------------  -----------------  -----------------  -----------------
           H          1.514824006707     3.877246237077    -0.961619066526     1.007825032070
           O          2.264224006707     3.530042237077    -1.423052066526    15.994914619560
           C          2.492729006707     2.202435237077    -1.023929066526    12.000000000000
           C          1.462915006707     1.223005237077    -1.576131066526    12.000000000000
           H          3.476254006707     1.947936237077    -1.397537066526     1.007825032070
           H          2.531724006707     2.132494237077     0.062517933474     1.007825032070
           C          0.893817006707     0.262289237077    -0.529221066526    12.000000000000
           H          0.654043006707     1.791361237077    -2.027864066526     1.007825032070
           H          1.933030006707     0.650922237077    -2.374304066526     1.007825032070
           C         -0.095933993293    -0.742803762923    -1.125040066526    12.000000000000
           H          0.402598006707     0.835674237077     0.251995933474     1.007825032070
           H          1.710943006707    -0.280246762923    -0.053511066526     1.007825032070
           C         -0.631404993293    -1.783525762923    -0.134834066526    12.000000000000
           H         -0.931637993293    -0.203255762923    -1.567007066526     1.007825032070
           H          0.393209006707    -1.266390762923    -1.943757066526     1.007825032070
           C         -1.516140993293    -1.217558762923     0.979348933474    12.000000000000
           H         -1.204944993293    -2.521616762923    -0.691691066526     1.007825032070
           H          0.205075006707    -2.322545762923     0.307426933474     1.007825032070
           C         -2.111103993293    -2.303853762923     1.877912933474    12.000000000000
           H         -2.324027993293    -0.636952762923     0.536262933474     1.007825032070
           H         -0.946103993293    -0.525996762923     1.595060933474     1.007825032070
           C         -2.989508993293    -1.741206762923     2.994826933474    12.000000000000
           H         -2.695853993293    -2.992178762923     1.271476933474     1.007825032070
           H         -1.305603993293    -2.891197762923     2.313895933474     1.007825032070
           H         -3.823758993293    -1.175175762923     2.590031933474     1.007825032070
           H         -3.397642993293    -2.535195762923     3.612600933474     1.007825032070
           H         -2.423847993293    -1.076699762923     3.641990933474     1.007825032070

  Charge       = 0
  Multiplicity = 1
  Basis Set: 6-31G*
  Basis Set:

    Orbital Energies (a.u.)
    -----------------------

    Doubly Occupied:

       1A    -20.550866     2A    -11.265696     3A    -11.218920
       4A    -11.216300     5A    -11.216122     6A    -11.215242
       7A    -11.214256     8A    -11.213185     9A    -11.209685
      10A     -1.357886    11A     -1.095193    12A     -1.062088
      13A     -1.011471    14A     -0.946178    15A     -0.884569
      16A     -0.821469    17A     -0.804168    18A     -0.778512
      19A     -0.689189    20A     -0.653659    21A     -0.643411
      22A     -0.608330    23A     -0.601491    24A     -0.585166
      25A     -0.573837    26A     -0.551287    27A     -0.544442
      28A     -0.524234    29A     -0.509562    30A     -0.500272
      31A     -0.482837    32A     -0.474378    33A     -0.463510
      34A     -0.460079    35A     -0.451641    36A     -0.442171
      37A     -0.420884

  @DF-RHF Final Energy:  -388.27570608568948

   => Energetics <=

    Nuclear Repulsion Energy =            454.4504625165166658
    One-Electron Energy =               -1426.9280957062935613
    Two-Electron Energy =                 584.2019271040863941
    DFT Exchange-Correlation Energy =       0.0000000000000000
    Empirical Dispersion Energy =           0.0000000000000000
    PCM Polarization Energy =               0.0000000000000000
    EFP Energy =                            0.0000000000000000
    Total Energy =                       -388.2757060856905582

  Mulliken Charges: (a.u.)
   Center  Symbol    Alpha    Beta     Spin     Total
       1     H     0.28346  0.28346  0.00000  0.43308
       2     O     4.37081  4.37081  0.00000 -0.74161
       3     C     2.99505  2.99505  0.00000  0.00990
       4     C     3.17027  3.17027  0.00000 -0.34053
       5     H     0.41470  0.41470  0.00000  0.17060
       6     H     0.42920  0.42920  0.00000  0.14161
       7     C     3.16099  3.16099  0.00000 -0.32198
       8     H     0.41564  0.41564  0.00000  0.16873
       9     H     0.41778  0.41778  0.00000  0.16444
      10     C     3.15311  3.15311  0.00000 -0.30622
      11     H     0.42301  0.42301  0.00000  0.15399
      12     H     0.42322  0.42322  0.00000  0.15356
      13     C     3.15325  3.15325  0.00000 -0.30651
      14     H     0.42340  0.42340  0.00000  0.15320
      15     H     0.42099  0.42099  0.00000  0.15803
      16     C     3.15270  3.15270  0.00000 -0.30541
      17     H     0.42138  0.42138  0.00000  0.15724
      18     H     0.42387  0.42387  0.00000  0.15227
      19     C     3.15117  3.15117  0.00000 -0.30233
      20     H     0.42474  0.42474  0.00000  0.15052
      21     H     0.42295  0.42295  0.00000  0.15409
      22     C     3.23920  3.23920  0.00000 -0.47840
      23     H     0.42288  0.42288  0.00000  0.15425
      24     H     0.42297  0.42297  0.00000  0.15405
      25     H     0.42190  0.42190  0.00000  0.15620
      26     H     0.41915  0.41915  0.00000  0.16170
      27     H     0.42224  0.42224  0.00000  0.15553

   Total alpha = 37.00000, Total beta = 37.00000, Total charge = -0.00000
