  ==> Input File <==

--------------------------------------------------------------------------
set {
	reference rhf
	basis cc-pvtz
}

set_num_threads( 4 )
memory 2 gb

molecule MOL {
0 1

H	 -2.123894	 -0.667238	 -0.609809
O	 -2.041679	 -0.058866	 0.103463
C	 -0.959304	 0.780994	 -0.094939
C	 0.354905	 0.037902	 -0.006215
H	 -0.985899	 1.279578	 -1.057596
H	 -0.969809	 1.529522	 0.682889
F	 1.367123	 0.827899	 -0.317841
F	 0.552534	 -0.396903	 1.220767
F	 0.402420	 -0.996025	 -0.811640

	symmetry c1
}
set optking {
	frozen_dihedral = ("
		7 4 3 5
	")
}

ee = optimize('scf')
oeprop('DIPOLE', 'QUADRUPOLE', 'MULLIKEN_CHARGES')
f=open( 'psi4out.xyz', 'w' )
f.write( "9  " )
f.write( str(ee) + "\n" )
f.write( MOL.save_string_xyz() )
f.close()
--------------------------------------------------------------------------

    Molecular point group: c1
  Charge       = 0
  Multiplicity = 1
  Basis Set: CC-PVTZ
  Basis Set:
  @DF-RHF Final Energy:  -450.84679662876789
    Total Energy =                       -450.8467966287681179
    Molecular point group: c1
  Basis Set: CC-PVTZ
  Basis Set:
  Basis Set: CC-PVTZ
  Basis Set:
  @DF-RHF Final Energy:  -450.84712058106743
    Total Energy =                       -450.8471205810675428
  Basis Set: CC-PVTZ
  Basis Set:
  Basis Set: CC-PVTZ
  Basis Set:
  @DF-RHF Final Energy:  -450.84719654874465
    Total Energy =                       -450.8471965487447051
  Basis Set: CC-PVTZ
  Basis Set:
  Basis Set: CC-PVTZ
  Basis Set:
  @DF-RHF Final Energy:  -450.84720502758250
    Total Energy =                       -450.8472050275822198
  Basis Set: CC-PVTZ
  Basis Set:
  Charge       = 0
  Multiplicity = 1
  Basis Set: CC-PVTZ
  Basis Set:

    Orbital Energies (a.u.)
    -----------------------

    Doubly Occupied:

       1A    -26.339649     2A    -26.339578     3A    -26.336084
       4A    -20.583904     5A    -11.493880     6A    -11.310022
       7A     -1.747957     8A     -1.644891     9A     -1.643180
      10A     -1.407508    11A     -1.050557    12A     -0.929929
      13A     -0.838011    14A     -0.836378    15A     -0.812073
      16A     -0.731836    17A     -0.718827    18A     -0.704072
      19A     -0.671718    20A     -0.666243    21A     -0.649480
      22A     -0.632883    23A     -0.619674    24A     -0.533942
      25A     -0.484821

  @DF-RHF Final Energy:  -450.84720582454514

   => Energetics <=

    Nuclear Repulsion Energy =            277.7059591423322331
    One-Electron Energy =               -1177.6521411158023511
    Two-Electron Energy =                 449.0989761489252032
    DFT Exchange-Correlation Energy =       0.0000000000000000
    Empirical Dispersion Energy =           0.0000000000000000
    PCM Polarization Energy =               0.0000000000000000
    EFP Energy =                            0.0000000000000000
    Total Energy =                       -450.8472058245449716
    Molecular point group: c1
  Basis Set: CC-PVTZ
  Basis Set:

  -Total Gradient:
     Atom            X                  Y                   Z
    ------   -----------------  -----------------  -----------------
       1       -0.000012450377     0.000006043939    -0.000008381409
       2        0.000004664569     0.000012703917     0.000017811775
       3       -0.000578688242    -0.001162593644    -0.000739340446
       4        0.000169123415     0.000500795940     0.001212451294
       5        0.000468970267     0.000853317257     0.000395732634
       6       -0.000007773339    -0.000016547704    -0.000007335382
       7       -0.000005950334    -0.000197793139    -0.000875725356
       8       -0.000024483808    -0.000026489490    -0.000056565792
       9       -0.000013412146     0.000030562926     0.000061352684

  **** Optimization is complete! (in 5 steps) ****
    Final optimized geometry and variables:
    Molecular point group: c1

    Geometry (in Angstrom), charge = 0, multiplicity = 1:

    H           -2.116385774436    -0.680412259384    -0.607152735851
    O           -2.043431115291    -0.054231013269     0.091531395462
    C           -0.958606342221     0.779739344338    -0.113739609434
    C            0.355194438344     0.037910605195    -0.003611954408
    H           -0.975734681542     1.268958167597    -1.081447173846
    H           -0.972898463943     1.540001461148     0.652809066270
    F            1.357521933013     0.833596712652    -0.313733248445
    F            0.569798842071    -0.430218120537     1.202477590503
    F            0.389835902287    -0.987089873398    -0.836735873819

  Mulliken Charges: (a.u.)
   Center  Symbol    Alpha    Beta     Spin     Total
       1     H     0.38620  0.38620  0.00000  0.22761
       2     O     4.19235  4.19235  0.00000 -0.38469
       3     C     2.99084  2.99084  0.00000  0.01831
       4     C     2.68358  2.68358  0.00000  0.63283
       5     H     0.46210  0.46210  0.00000  0.07580
       6     H     0.44778  0.44778  0.00000  0.10443
       7     F     4.61210  4.61210  0.00000 -0.22420
       8     F     4.60747  4.60747  0.00000 -0.21495
       9     F     4.61758  4.61758  0.00000 -0.23515

   Total alpha = 25.00000, Total beta = 25.00000, Total charge = -0.00000
