  ==> Input File <==

--------------------------------------------------------------------------
set {
	reference rhf
	basis 6-31G*
}

set_num_threads( 1 )
memory 2 gb

molecule MOL {
0 1

H	 -2.511323	 -3.160416	 -1.098940
O	 -2.484924	 -2.238217	 -0.887383
C	 -1.182993	 -1.879197	 -0.501806
C	 -1.177863	 -0.397191	 -0.171080
H	 -0.867781	 -2.456177	 0.366551
H	 -0.475459	 -2.084570	 -1.304026
C	 0.198102	 0.111031	 0.262842
H	 -1.907401	 -0.219682	 0.614410
H	 -1.521103	 0.149345	 -1.045129
C	 1.331804	 -0.827780	 -0.158768
H	 0.361943	 1.100838	 -0.156218
H	 0.217265	 0.229072	 1.345532
C	 2.723619	 -0.410569	 0.329459
H	 1.342964	 -0.912588	 -1.244120
H	 1.116806	 -1.824343	 0.220779
C	 3.243875	 0.895854	 -0.272975
H	 3.424222	 -1.207124	 0.091250
H	 2.714788	 -0.329854	 1.414619
H	 3.251977	 0.848779	 -1.358681
H	 2.637085	 1.747371	 0.016682
H	 4.259473	 1.094070	 0.055697

	symmetry c1
}
set optking {
	frozen_dihedral = ("
		2 3 4 8,
		4 7 10 14,
		16 13 10 14,
		1 2 3 5
	")
}

ee = energy('scf')
oeprop('DIPOLE', 'QUADRUPOLE', 'MULLIKEN_CHARGES')
f=open( 'psi4out.xyz', 'w' )
f.write( "21  " )
f.write( str(ee) + "\n" )
f.write( MOL.save_string_xyz() )
f.close()
--------------------------------------------------------------------------

    Molecular point group: c1

    Geometry (in Angstrom), charge = 0, multiplicity = 1:

       Center              X                  Y                   Z               Mass
    ------------   -----------------  -----------------  -----------------  -----------------
           H         -2.844609866451    -2.445711057375    -0.879170631005     1.007825032070
           O         -2.818210866451    -1.523512057375    -0.667613631005    15.994914619560
           C         -1.516279866451    -1.164492057375    -0.282036631005    12.000000000000
           C         -1.511149866451     0.317513942625     0.048689368995    12.000000000000
           H         -1.201067866451    -1.741472057375     0.586320368995     1.007825032070
           H         -0.808745866451    -1.369865057375    -1.084256631005     1.007825032070
           C         -0.135184866451     0.825735942625     0.482611368995    12.000000000000
           H         -2.240687866451     0.495022942625     0.834179368995     1.007825032070
           H         -1.854389866451     0.864049942625    -0.825359631005     1.007825032070
           C          0.998517133549    -0.113075057375     0.061001368995    12.000000000000
           H          0.028656133549     1.815542942625     0.063551368995     1.007825032070
           H         -0.116021866451     0.943776942625     1.565301368995     1.007825032070
           C          2.390332133549     0.304135942625     0.549228368995    12.000000000000
           H          1.009677133549    -0.197883057375    -1.024350631005     1.007825032070
           H          0.783519133549    -1.109638057375     0.440548368995     1.007825032070
           C          2.910588133549     1.610558942625    -0.053205631005    12.000000000000
           H          3.090935133549    -0.492419057375     0.311019368995     1.007825032070
           H          2.381501133549     0.384850942625     1.634388368995     1.007825032070
           H          2.918690133549     1.563483942625    -1.138911631005     1.007825032070
           H          2.303798133549     2.462075942625     0.236451368995     1.007825032070
           H          3.926186133549     1.808774942625     0.275466368995     1.007825032070

  Charge       = 0
  Multiplicity = 1
  Basis Set: 6-31G*
  Basis Set:

    Orbital Energies (a.u.)
    -----------------------

    Doubly Occupied:

       1A    -20.550127     2A    -11.265078     3A    -11.216350
       4A    -11.215379     5A    -11.214451     6A    -11.209484
       7A    -11.208865     8A     -1.357195     9A     -1.090750
      10A     -1.032140    11A     -0.946867    12A     -0.889762
      13A     -0.817548    14A     -0.760754    15A     -0.696795
      16A     -0.660074    17A     -0.623217    18A     -0.608107
      19A     -0.583323    20A     -0.571286    21A     -0.539538
      22A     -0.528734    23A     -0.512565    24A     -0.488266
      25A     -0.482353    26A     -0.462442    27A     -0.451226
      28A     -0.439976    29A     -0.426534

  @DF-RHF Final Energy:  -310.20066534885206

   => Energetics <=

    Nuclear Repulsion Energy =            319.9678086188291104
    One-Electron Energy =               -1054.6385704752551646
    Two-Electron Energy =                 424.4700965075733734
    DFT Exchange-Correlation Energy =       0.0000000000000000
    Empirical Dispersion Energy =           0.0000000000000000
    PCM Polarization Energy =               0.0000000000000000
    EFP Energy =                            0.0000000000000000
    Total Energy =                       -310.2006653488526240

  Mulliken Charges: (a.u.)
   Center  Symbol    Alpha    Beta     Spin     Total
       1     H     0.28164  0.28164  0.00000  0.43672
       2     O     4.37483  4.37483  0.00000 -0.74966
       3     C     2.99443  2.99443  0.00000  0.01114
       4     C     3.16110  3.16110  0.00000 -0.32220
       5     H     0.43189  0.43189  0.00000  0.13621
       6     H     0.42852  0.42852  0.00000  0.14296
       7     C     3.16054  3.16054  0.00000 -0.32108
       8     H     0.41219  0.41219  0.00000  0.17563
       9     H     0.41336  0.41336  0.00000  0.17328
      10     C     3.16580  3.16580  0.00000 -0.33161
      11     H     0.41633  0.41633  0.00000  0.16734
      12     H     0.42102  0.42102  0.00000  0.15796
      13     C     3.14930  3.14930  0.00000 -0.29861
      14     H     0.42179  0.42179  0.00000  0.15641
      15     H     0.41993  0.41993  0.00000  0.16014
      16     C     3.24155  3.24155  0.00000 -0.48309
      17     H     0.42160  0.42160  0.00000  0.15680
      18     H     0.42327  0.42327  0.00000  0.15346
      19     H     0.42226  0.42226  0.00000  0.15547
      20     H     0.41957  0.41957  0.00000  0.16086
      21     H     0.41907  0.41907  0.00000  0.16186

   Total alpha = 29.00000, Total beta = 29.00000, Total charge =  0.00000
