  ==> Input File <==

--------------------------------------------------------------------------
set {
	reference rhf
	basis cc-pvtz
}

set_num_threads( 4 )
memory 2 gb

molecule MOL {
0 1

H	 -2.816458	 -0.841657	 -0.064679
N	 -1.878861	 -0.711874	 0.250184
C	 -1.341419	 0.551458	 -0.220231
H	 -1.333674	 -1.468530	 -0.105118
C	 0.070357	 0.747093	 0.283019
H	 -1.334856	 0.642273	 -1.305705
H	 -1.954711	 1.356357	 0.169721
O	 0.889313	 -0.231575	 -0.281983
H	 0.427087	 1.738392	 0.006899
H	 0.085773	 0.669133	 1.367737
C	 2.207040	 -0.203427	 0.156223
H	 2.741552	 -0.996527	 -0.346445
H	 2.684925	 0.744705	 -0.081194
H	 2.272705	 -0.362160	 1.230026

	symmetry c1
}
set optking {
	frozen_dihedral = ("
		6 3 2 4
	")
}

ee = optimize('scf')
oeprop('DIPOLE', 'QUADRUPOLE', 'MULLIKEN_CHARGES')
f=open( 'psi4out.xyz', 'w' )
f.write( "14  " )
f.write( str(ee) + "\n" )
f.write( MOL.save_string_xyz() )
f.close()
--------------------------------------------------------------------------

    Molecular point group: c1
  Charge       = 0
  Multiplicity = 1
  Basis Set: CC-PVTZ
  Basis Set:
  @DF-RHF Final Energy:  -248.22619069797727
    Total Energy =                       -248.2261906979771311
    Molecular point group: c1
  Basis Set: CC-PVTZ
  Basis Set:
  Charge       = 0
  Multiplicity = 1
  Basis Set: CC-PVTZ
  Basis Set:

    Orbital Energies (a.u.)
    -----------------------

    Doubly Occupied:

       1A    -20.550595     2A    -15.523723     3A    -11.263717
       4A    -11.263497     5A    -11.239968     6A     -1.384486
       7A     -1.176144     8A     -1.000574     9A     -0.907520
      10A     -0.815678    11A     -0.685286    12A     -0.676298
      13A     -0.647118    14A     -0.612069    15A     -0.608070
      16A     -0.541843    17A     -0.530131    18A     -0.498031
      19A     -0.474537    20A     -0.420063    21A     -0.384081

  @DF-RHF Final Energy:  -248.22619141311995

   => Energetics <=

    Nuclear Repulsion Energy =            194.6903891927262578
    One-Electron Energy =                -723.4263107281594785
    Two-Electron Energy =                 280.5097301223133286
    DFT Exchange-Correlation Energy =       0.0000000000000000
    Empirical Dispersion Energy =           0.0000000000000000
    PCM Polarization Energy =               0.0000000000000000
    EFP Energy =                            0.0000000000000000
    Total Energy =                       -248.2261914131199205
    Molecular point group: c1
  Basis Set: CC-PVTZ
  Basis Set:

  -Total Gradient:
     Atom            X                  Y                   Z
    ------   -----------------  -----------------  -----------------
       1        0.000041317115     0.000020880353     0.000018931154
       2        0.000263656852    -0.000069268719     0.000161521790
       3       -0.000311895551     0.000110795958     0.000045648897
       4       -0.000170446196    -0.000018101665    -0.000165774440
       5       -0.000024600770    -0.000013562914    -0.000038805893
       6        0.000225705603    -0.000093463167     0.000006267874
       7       -0.000002914374     0.000053379124    -0.000006349780
       8        0.000003491609    -0.000000211053    -0.000001843743
       9        0.000011387429     0.000009869537    -0.000007806060
      10       -0.000029534081    -0.000004887526    -0.000013992688
      11        0.000004800831     0.000008646283     0.000000805768
      12       -0.000003366502    -0.000001900761     0.000001520150
      13       -0.000003660235    -0.000000459032    -0.000000696452
      14       -0.000003941725    -0.000001716415     0.000000573422

  **** Optimization is complete! (in 2 steps) ****
    Final optimized geometry and variables:
    Molecular point group: c1

    Geometry (in Angstrom), charge = 0, multiplicity = 1:

    H           -2.813826173280    -0.855897608911    -0.099907854870
    N           -1.877462313548    -0.724787458100     0.218021422454
    C           -1.340491615282     0.538546716651    -0.253042253610
    H           -1.331278161925    -1.481699935557    -0.135083842648
    C            0.071462992672     0.734635554199     0.249662636007
    H           -1.332207925518     0.627870698679    -1.338623173854
    H           -1.954143448863     1.343742118042     0.135690091700
    O            0.890116907749    -0.243593565435    -0.316367880451
    H            0.428127619003     1.726174885362    -0.026029358415
    H            0.087066807496     0.655845582333     1.334247477577
    C            2.207569007722    -0.216963557182     0.122583301307
    H            2.741867114783    -1.009558585815    -0.381094162863
    H            2.686173834062     0.731288206264    -0.112968842899
    H            2.272498488112    -0.377523168669     1.196153661628

  Mulliken Charges: (a.u.)
   Center  Symbol    Alpha    Beta     Spin     Total
       1     H     0.43023  0.43023  0.00000  0.13955
       2     N     3.69394  3.69394  0.00000 -0.38787
       3     C     3.02251  3.02251  0.00000 -0.04502
       4     H     0.42255  0.42255  0.00000  0.15490
       5     C     2.96889  2.96889  0.00000  0.06223
       6     H     0.46445  0.46445  0.00000  0.07110
       7     H     0.45848  0.45848  0.00000  0.08305
       8     O     4.17995  4.17995  0.00000 -0.35990
       9     H     0.46986  0.46986  0.00000  0.06029
      10     H     0.46875  0.46875  0.00000  0.06250
      11     C     3.03180  3.03180  0.00000 -0.06359
      12     H     0.44760  0.44760  0.00000  0.10479
      13     H     0.47126  0.47126  0.00000  0.05747
      14     H     0.46975  0.46975  0.00000  0.06051

   Total alpha = 21.00000, Total beta = 21.00000, Total charge = -0.00000
