                              Psi4 1.0.54 Driver

  ==> Input File <==

--------------------------------------------------------------------------
set {
	reference rhf
	basis cc-pvtz
}

set_num_threads( 4 )
memory 2 gb

molecule MOL {
0 1

H	 -2.645224	 -0.658853	 1.272468
C	 -2.093818	 -0.385530	 0.392128
O	 -0.809978	 -0.159165	 0.752749
F	 -2.164274	 -1.356756	 -0.506920
F	 -2.628276	 0.686144	 -0.169088
C	 0.083962	 0.245684	 -0.214861
C	 1.369395	 -0.553129	 -0.012780
Cl	 0.420614	 1.982581	 -0.090794
H	 -0.273263	 0.058168	 -1.212295
F	 2.259573	 -0.224439	 -0.914206
F	 1.104847	 -1.830499	 -0.152977
F	 1.885112	 -0.369594	 1.171535

	symmetry c1
}
ee,wfn = energy('scf', return_wfn=True)
oeprop( wfn, 'DIPOLE', 'QUADRUPOLE', 'MULLIKEN_CHARGES')
oeprop( wfn, 'GRID_ESP')
f=open( 'psi4out.xyz', 'w' )
f.write( "12  " )
f.write( str(ee) + "\n" )
f.write( MOL.save_string_xyz() )
f.close()
--------------------------------------------------------------------------

    Molecular point group: c1

    Geometry (in Angstrom), charge = 0, multiplicity = 1:

       Center              X                  Y                   Z               Mass
    ------------   -----------------  -----------------  -----------------  -----------------
           H         -2.644179990610    -0.653737386254     1.272255300474     1.007825032070
           C         -2.092773990610    -0.380414386254     0.391915300474    12.000000000000
           O         -0.808933990610    -0.154049386254     0.752536300474    15.994914619560
           F         -2.163229990610    -1.351640386254    -0.507132699526    18.998403224000
           F         -2.627231990610     0.691259613746    -0.169300699526    18.998403224000
           C          0.085006009390     0.250799613746    -0.215073699526    12.000000000000
           C          1.370439009390    -0.548013386254    -0.012992699526    12.000000000000
          CL          0.421658009390     1.987696613746    -0.091006699526    34.968852682000
           H         -0.272218990610     0.063283613746    -1.212507699526     1.007825032070
           F          2.260617009390    -0.219323386254    -0.914418699526    18.998403224000
           F          1.105891009390    -1.825383386254    -0.153189699526    18.998403224000
           F          1.886156009390    -0.364478386254     1.171322300474    18.998403224000

  Charge       = 0
  Multiplicity = 1
  Basis Set: CC-PVTZ
  Basis Set:

    Orbital Energies (a.u.)
    -----------------------

    Doubly Occupied:

       1A   -104.856481     2A    -26.354968     3A    -26.353860
       4A    -26.353152     5A    -26.343486     6A    -26.343452
       7A    -20.641427     8A    -11.520124     9A    -11.484156
      10A    -11.401107    11A    -10.581988    12A     -8.048786
      13A     -8.046800    14A     -8.046723    15A     -1.767925
      16A     -1.725070    17A     -1.662886    18A     -1.661272
      19A     -1.645085    20A     -1.487684    21A     -1.178240
      22A     -1.053219    23A     -0.991060    24A     -0.924700
      25A     -0.864971    26A     -0.858768    27A     -0.852234
      28A     -0.829776    29A     -0.818427    30A     -0.794030
      31A     -0.733704    32A     -0.733133    33A     -0.712790
      34A     -0.708527    35A     -0.684927    36A     -0.681464
      37A     -0.665460    38A     -0.664079    39A     -0.649645
      40A     -0.638975    41A     -0.599013    42A     -0.582014
      43A     -0.525530    44A     -0.478232    45A     -0.469801

  @DF-RHF Final Energy: -1146.62044784464206

   => Energetics <=

    Nuclear Repulsion Energy =            738.3250752657058911
    One-Electron Energy =               -3059.8533167383866385
    Two-Electron Energy =                1174.9077936280382346
    DFT Exchange-Correlation Energy =       0.0000000000000000
    Empirical Dispersion Energy =           0.0000000000000000
    PCM Polarization Energy =               0.0000000000000000
    EFP Energy =                            0.0000000000000000
    Total Energy =                      -1146.6204478446425128

  Mulliken Charges: (a.u.)
   Center  Symbol    Alpha    Beta     Spin     Total
       1     H     0.45194  0.45194  0.00000  0.09612
       2     C     2.74011  2.74011  0.00000  0.51979
       3     O     4.15650  4.15650  0.00000 -0.31300
       4     F     4.61788  4.61788  0.00000 -0.23576
       5     F     4.61506  4.61506  0.00000 -0.23011
       6     C     2.93676  2.93676  0.00000  0.12649
       7     C     2.66944  2.66944  0.00000  0.66112
       8    CL     8.57415  8.57415  0.00000 -0.14830
       9     H     0.43052  0.43052  0.00000  0.13896
      10     F     4.60248  4.60248  0.00000 -0.20496
      11     F     4.60467  4.60467  0.00000 -0.20933
      12     F     4.60051  4.60051  0.00000 -0.20102

   Total alpha = 45.00000, Total beta = 45.00000, Total charge =  0.00000

*** Psi4 exiting successfully. Buy a developer a beer!
