  ==> Input File <==

--------------------------------------------------------------------------
set {
	reference rhf
	basis cc-pvtz
}

set_num_threads( 4 )
memory 2 gb

molecule MOL {
0 1

H	 -3.294565	 0.569785	 0.000000
C	 -2.246225	 0.343737	 0.000000
C	 -1.809462	 -0.973484	 0.000000
C	 -1.312577	 1.353775	 0.000000
H	 -2.523539	 -1.775124	 0.000000
C	 -0.467257	 -1.267606	 0.000000
H	 -1.631287	 2.379013	 0.000000
C	 0.046966	 1.074396	 0.000000
H	 -0.119372	 -2.281828	 0.000000
C	 0.471772	 -0.241514	 0.000000
H	 0.748162	 1.882966	 0.000000
O	 1.760432	 -0.625184	 0.000000
C	 2.083450	 -1.983056	 -0.000000
H	 1.703122	 -2.482393	 0.884150
H	 3.160543	 -2.039975	 -0.000000
H	 1.703122	 -2.482393	 -0.884150

	symmetry c1
}
set optking {
	frozen_dihedral = ("
		13 12 10 8
	")
}

ee = optimize('scf')
oeprop('DIPOLE', 'QUADRUPOLE', 'MULLIKEN_CHARGES')
f=open( 'psi4out.xyz', 'w' )
f.write( "16  " )
f.write( str(ee) + "\n" )
f.write( MOL.save_string_xyz() )
f.close()
--------------------------------------------------------------------------

    Molecular point group: c1
  Charge       = 0
  Multiplicity = 1
  Basis Set: CC-PVTZ
  Basis Set:
  @DF-RHF Final Energy:  -344.69539666916836
    Total Energy =                       -344.6953966691685309
    Molecular point group: c1
  Basis Set: CC-PVTZ
  Basis Set:
  Basis Set: CC-PVTZ
  Basis Set:
  @DF-RHF Final Energy:  -344.69940265259737
    Total Energy =                       -344.6994026525976551
  Basis Set: CC-PVTZ
  Basis Set:
  Basis Set: CC-PVTZ
  Basis Set:
  @DF-RHF Final Energy:  -344.70327495404388
    Total Energy =                       -344.7032749540433656
  Basis Set: CC-PVTZ
  Basis Set:
  Basis Set: CC-PVTZ
  Basis Set:
  @DF-RHF Final Energy:  -344.70370380203406
    Total Energy =                       -344.7037038020343402
  Basis Set: CC-PVTZ
  Basis Set:
  Basis Set: CC-PVTZ
  Basis Set:
  @DF-RHF Final Energy:  -344.70375029607624
    Total Energy =                       -344.7037502960763504
  Basis Set: CC-PVTZ
  Basis Set:
  Charge       = 0
  Multiplicity = 1
  Basis Set: CC-PVTZ
  Basis Set:

    Orbital Energies (a.u.)
    -----------------------

    Doubly Occupied:

       1A    -20.580684     2A    -11.293771     3A    -11.278586
       4A    -11.231230     5A    -11.229985     6A    -11.221832
       7A    -11.217919     8A    -11.216833     9A     -1.420181
      10A     -1.150971    11A     -1.025845    12A     -1.016641
      13A     -0.944399    14A     -0.834539    15A     -0.808312
      16A     -0.726437    17A     -0.667805    18A     -0.666354
      19A     -0.661263    20A     -0.619470    21A     -0.590131
      22A     -0.579332    23A     -0.528333    24A     -0.523882
      25A     -0.512457    26A     -0.478698    27A     -0.467973
      28A     -0.339793    29A     -0.309932

  @DF-RHF Final Energy:  -344.70375706193607

   => Energetics <=

    Nuclear Repulsion Energy =            348.9302401162255478
    One-Electron Energy =               -1158.9808134959780546
    Two-Electron Energy =                 465.3468163178166606
    DFT Exchange-Correlation Energy =       0.0000000000000000
    Empirical Dispersion Energy =           0.0000000000000000
    PCM Polarization Energy =               0.0000000000000000
    EFP Energy =                            0.0000000000000000
    Total Energy =                       -344.7037570619357894
    Molecular point group: c1
  Basis Set: CC-PVTZ
  Basis Set:

  -Total Gradient:
     Atom            X                  Y                   Z
    ------   -----------------  -----------------  -----------------
       1       -0.000015006650    -0.000050229739    -0.000000000039
       2        0.000142000465     0.000406771053     0.000000002711
       3        0.000322146101    -0.000282278322    -0.000000001486
       4       -0.000357879773    -0.000132323279    -0.000000003724
       5       -0.000021342842     0.000016426162    -0.000000000186
       6       -0.000338474677    -0.000093712255    -0.000000002276
       7        0.000044785594     0.000003502320     0.000000000702
       8        0.000193452422    -0.000281100277    -0.000000002603
       9        0.000024951015    -0.000025761183    -0.000000000802
      10        0.000044724782     0.000444986389     0.000000011012
      11        0.000013429321     0.000016909462     0.000000000205
      12        0.000030323234    -0.000024935385    -0.000000004450
      13       -0.000077373260    -0.000031365878     0.000000002650
      14       -0.000000529531     0.000004022486     0.000008284920
      15       -0.000004676502     0.000025065112    -0.000000001298
      16       -0.000000529702     0.000004023335    -0.000008285339

  **** Optimization is complete! (in 6 steps) ****
    Final optimized geometry and variables:
    Molecular point group: c1

    Geometry (in Angstrom), charge = 0, multiplicity = 1:

    H           -3.187676803793     1.008384346329    -0.000000006938
    C           -2.152615950342     0.727679246364    -0.000000000242
    C           -1.787722823712    -0.598914241441    -0.000000015557
    C           -1.159565258100     1.696308052263    -0.000000007001
    H           -2.542380550773    -1.362590917726    -0.000000037480
    C           -0.452450628917    -0.975731508972    -0.000000004821
    H           -1.424719212984     2.736605599608    -0.000000007280
    C            0.167958491143     1.340358501599     0.000000010777
    H           -0.201329178862    -2.016125801542    -0.000000032250
    C            0.530010366720    -0.002067927618     0.000000032186
    H            0.943114474288     2.081222679883     0.000000009731
    O            1.850842313080    -0.254139977567    -0.000000011615
    C            2.308863888448    -1.572683673416     0.000000005665
    H            1.980827405977    -2.107744922928     0.884199771262
    H            3.386219292963    -1.520705968329    -0.000000077183
    H            1.980827291073    -2.107744975379    -0.884199685631

  Mulliken Charges: (a.u.)
   Center  Symbol    Alpha    Beta     Spin     Total
       1     H     0.42443  0.42443  0.00000  0.15115
       2     C     3.10101  3.10101  0.00000 -0.20202
       3     C     3.06153  3.06153  0.00000 -0.12307
       4     C     3.05790  3.05790  0.00000 -0.11581
       5     H     0.42366  0.42366  0.00000  0.15267
       6     C     3.14411  3.14411  0.00000 -0.28823
       7     H     0.42300  0.42300  0.00000  0.15399
       8     C     3.11184  3.11184  0.00000 -0.22368
       9     H     0.42253  0.42253  0.00000  0.15493
      10     C     2.84987  2.84987  0.00000  0.30026
      11     H     0.42103  0.42103  0.00000  0.15795
      12     O     4.15065  4.15065  0.00000 -0.30131
      13     C     3.04491  3.04491  0.00000 -0.08981
      14     H     0.46240  0.46240  0.00000  0.07521
      15     H     0.43872  0.43872  0.00000  0.12257
      16     H     0.46240  0.46240  0.00000  0.07521

   Total alpha = 29.00000, Total beta = 29.00000, Total charge =  0.00000
