  ==> Input File <==

--------------------------------------------------------------------------
set {
	reference rhf
	basis 6-31G*
}

set_num_threads( 4 )
memory 2 gb

molecule MOL {
0 1

O	 0.885692	 0.153752	 -0.858595
C	 1.705091	 0.115954	 0.001797
C	 1.738110	 1.002375	 1.222877
O	 2.721346	 -0.737485	 -0.000216
C	 0.588069	 2.003457	 1.276583
H	 1.736817	 0.354016	 2.094853
H	 2.700301	 1.507182	 1.231678
C	 0.645648	 2.887257	 2.523436
H	 -0.354904	 1.466636	 1.248053
H	 0.610167	 2.621722	 0.384637
C	 -0.501278	 3.896936	 2.593914
H	 0.626776	 2.261253	 3.414368
H	 1.594512	 3.421074	 2.547505
C	 -0.442525	 4.780533	 3.839329
H	 -1.449876	 3.365104	 2.572559
H	 -0.483235	 4.523589	 1.705028
H	 -0.493625	 4.184438	 4.746122
H	 -1.267911	 5.485335	 3.860381
H	 0.480986	 5.351826	 3.871918
C	 4.024888	 -0.184556	 -0.001949
H	 4.179030	 0.422472	 -0.882452
H	 4.701782	 -1.024608	 -0.003642
H	 4.181981	 0.421185	 0.878906

	symmetry c1
}
set optking {
	frozen_dihedral = ("
		1 2 4 20
	")
}

ee = optimize('scf')
oeprop('DIPOLE', 'QUADRUPOLE', 'MULLIKEN_CHARGES')
f=open( 'psi4out.xyz', 'w' )
f.write( "23  " )
f.write( str(ee) + "\n" )
f.write( MOL.save_string_xyz() )
f.close()
--------------------------------------------------------------------------

    Molecular point group: c1
  Charge       = 0
  Multiplicity = 1
  Basis Set: 6-31G*
  Basis Set:
  @DF-RHF Final Energy:  -422.95089672487114
    Total Energy =                       -422.9508967248713134
    Molecular point group: c1
  Basis Set: 6-31G*
  Basis Set:
  Basis Set: 6-31G*
  Basis Set:
  @DF-RHF Final Energy:  -422.95080402639081
    Total Energy =                       -422.9508040263912108
  Basis Set: 6-31G*
  Basis Set:
  Basis Set: 6-31G*
  Basis Set:
  @DF-RHF Final Energy:  -422.95461984955438
    Total Energy =                       -422.9546198495548879
  Basis Set: 6-31G*
  Basis Set:
  Basis Set: 6-31G*
  Basis Set:
  @DF-RHF Final Energy:  -422.95558204443705
    Total Energy =                       -422.9555820444370511
  Basis Set: 6-31G*
  Basis Set:
  @DF-RHF Final Energy:  -422.95576541903716
    Total Energy =                       -422.9557654190374478
  @DF-RHF Final Energy:  -422.95580413206989
    Total Energy =                       -422.9558041320700568
  Basis Set: 6-31G*
  Basis Set:
  @DF-RHF Final Energy:  -422.95581026196896
    Total Energy =                       -422.9558102619691908
  Basis Set: 6-31G*
  Basis Set:
  Basis Set: 6-31G*
  Basis Set:
  @DF-RHF Final Energy:  -422.95581165245932
    Total Energy =                       -422.9558116524591469
  Basis Set: 6-31G*
  Basis Set:
  Basis Set: 6-31G*
  Basis Set:
  @DF-RHF Final Energy:  -422.95581326364686
    Total Energy =                       -422.9558132636472010
  Basis Set: 6-31G*
  Basis Set:
  Charge       = 0
  Multiplicity = 1
  Basis Set: 6-31G*
  Basis Set:

    Orbital Energies (a.u.)
    -----------------------

    Doubly Occupied:

       1A    -20.589095     2A    -20.552917     3A    -11.374648
       4A    -11.294540     5A    -11.242129     6A    -11.223227
       7A    -11.221238     8A    -11.218927     9A    -11.211783
      10A     -1.458988    11A     -1.367495    12A     -1.095602
      13A     -1.041423    14A     -0.981544    15A     -0.948526
      16A     -0.852612    17A     -0.798444    18A     -0.765506
      19A     -0.696962    20A     -0.680768    21A     -0.674375
      22A     -0.652543    23A     -0.618928    24A     -0.606571
      25A     -0.580295    26A     -0.569994    27A     -0.556430
      28A     -0.539547    29A     -0.511035    30A     -0.498791
      31A     -0.485884    32A     -0.478158    33A     -0.470798
      34A     -0.468348    35A     -0.449516    36A     -0.431571

  @DF-RHF Final Energy:  -422.95581365101316

   => Energetics <=

    Nuclear Repulsion Energy =            453.4630617883070727
    One-Electron Energy =               -1474.4194352688182335
    Two-Electron Energy =                 598.0005598294978881
    DFT Exchange-Correlation Energy =       0.0000000000000000
    Empirical Dispersion Energy =           0.0000000000000000
    PCM Polarization Energy =               0.0000000000000000
    EFP Energy =                            0.0000000000000000
    Total Energy =                       -422.9558136510132726
    Molecular point group: c1
  Basis Set: 6-31G*
  Basis Set:

  -Total Gradient:
     Atom            X                  Y                   Z
    ------   -----------------  -----------------  -----------------
       1        0.001853446297     0.001742220288    -0.001401379490
       2       -0.002722347082    -0.002414209180     0.000808877151
       3        0.000010130439    -0.000010087080     0.000008765203
       4        0.000853959665     0.000646748436     0.003013470486
       5        0.000002519718     0.000019743771    -0.000013199909
       6       -0.000001938151    -0.000000348326    -0.000002393848
       7       -0.000013308496    -0.000002658749    -0.000008593262
       8       -0.000001453072     0.000001457745     0.000005610609
       9       -0.000004626905     0.000003485430     0.000002347955
      10        0.000009634786    -0.000003196713    -0.000003411781
      11       -0.000013616418    -0.000016983148     0.000008928579
      12        0.000002448320    -0.000003577638    -0.000003109623
      13        0.000000142425     0.000004324819     0.000001324283
      14        0.000009545334     0.000004367771    -0.000005711048
      15       -0.000004289945    -0.000001767517     0.000003622885
      16       -0.000001135044    -0.000004611926     0.000000517247
      17       -0.000004413864    -0.000000512538    -0.000002074525
      18        0.000002783288     0.000001412350    -0.000005300023
      19        0.000003632316    -0.000000344895     0.000004121654
      20        0.000028353125     0.000042744414    -0.002410592786
      21       -0.000004509339    -0.000001892574     0.000001491077
      22       -0.000002878076    -0.000002118819    -0.000001214055
      23       -0.000002079319    -0.000004195915    -0.000002096774

  **** Optimization is complete! (in 10 steps) ****
    Final optimized geometry and variables:
    Molecular point group: c1

    Geometry (in Angstrom), charge = 0, multiplicity = 1:

    O           -0.305213563553    -1.234397349322    -2.059326018432
    C            0.475749568125    -1.330118372076    -1.177961365439
    C            0.501567550394    -0.426682098782     0.036623391395
    O            1.401011940936    -2.312275981295    -1.188839467993
    C           -0.713463137241     0.492691367532     0.132377136827
    H            0.588042397695    -1.059184156783     0.916011816606
    H            1.414492336753     0.163948364889     0.002279220750
    C           -0.663182146298     1.394962038399     1.366186278859
    H           -1.615720819234    -0.110640216118     0.153183904603
    H           -0.774514676033     1.096675863428    -0.766701958513
    C           -1.876866526848     2.319079196921     1.479823623254
    H           -0.594898125403     0.781932072344     2.263632151092
    H            0.243793209473     1.997554911902     1.339857958855
    C           -1.824963642973     3.222904527847     2.710924986714
    H           -2.783442884112     1.718981359555     1.509990748200
    H           -1.946693592966     2.931952045766     0.584016171757
    H           -1.789925217266     2.638205699880     3.625888461224
    H           -2.697958489898     3.865861692925     2.763101173581
    H           -0.945496701390     3.860523033312     2.693043391865
    C            2.768470077976    -1.968554072082    -1.185122032914
    H            2.991200998508    -1.261275780098    -1.975789442353
    H            3.309628115928    -2.883658253051    -1.367785214778
    H            3.078468760859    -1.558855292077    -0.230887852946

  Mulliken Charges: (a.u.)
   Center  Symbol    Alpha    Beta     Spin     Total
       1     O     4.25274  4.25274  0.00000 -0.50547
       2     C     2.60928  2.60928  0.00000  0.78143
       3     C     3.22315  3.22315  0.00000 -0.44630
       4     O     4.31176  4.31176  0.00000 -0.62353
       5     C     3.15114  3.15114  0.00000 -0.30229
       6     H     0.40082  0.40082  0.00000  0.19836
       7     H     0.40601  0.40601  0.00000  0.18797
       8     C     3.15348  3.15348  0.00000 -0.30696
       9     H     0.41110  0.41110  0.00000  0.17781
      10     H     0.40912  0.40912  0.00000  0.18177
      11     C     3.15184  3.15184  0.00000 -0.30368
      12     H     0.42379  0.42379  0.00000  0.15242
      13     H     0.42501  0.42501  0.00000  0.14998
      14     C     3.23969  3.23969  0.00000 -0.47937
      15     H     0.42063  0.42063  0.00000  0.15874
      16     H     0.42088  0.42088  0.00000  0.15824
      17     H     0.42168  0.42168  0.00000  0.15664
      18     H     0.41790  0.41790  0.00000  0.16420
      19     H     0.42200  0.42200  0.00000  0.15600
      20     C     3.09346  3.09346  0.00000 -0.18692
      21     H     0.41478  0.41478  0.00000  0.17045
      22     H     0.40022  0.40022  0.00000  0.19957
      23     H     0.41953  0.41953  0.00000  0.16094

   Total alpha = 36.00000, Total beta = 36.00000, Total charge =  0.00000
