  ==> Input File <==

--------------------------------------------------------------------------
set {
	reference rhf
	basis 6-31G*
}

set_num_threads( 1 )
memory 2 gb

molecule MOL {
0 1

H	 4.098002	 3.636993	 -1.873763
C	 4.070216	 2.635488	 -1.455747
C	 2.767081	 2.389869	 -0.696348
H	 4.181745	 1.931798	 -2.275335
H	 4.932842	 2.524842	 -0.804261
C	 2.698066	 0.987584	 -0.087540
H	 1.927779	 2.533932	 -1.368969
H	 2.667101	 3.130956	 0.095162
C	 1.412233	 0.718564	 0.694463
H	 2.795104	 0.245352	 -0.871963
H	 3.541995	 0.850235	 0.584739
C	 0.169600	 0.576866	 -0.172154
H	 1.509019	 -0.211887	 1.251836
H	 1.242124	 1.491625	 1.440530
C	 -1.181045	 0.701995	 0.511084
O	 0.245480	 0.356965	 -1.343602
C	 -2.285934	 -0.139295	 -0.145128
H	 -1.449051	 1.751551	 0.493206
H	 -1.071135	 0.403303	 1.551943
C	 -3.651768	 0.085446	 0.506485
H	 -2.346596	 0.110469	 -1.202272
H	 -2.034737	 -1.195320	 -0.088721
C	 -4.759797	 -0.746382	 -0.137905
H	 -3.908762	 1.140117	 0.445781
H	 -3.588286	 -0.154158	 1.565709
H	 -4.868882	 -0.505166	 -1.191300
H	 -4.548009	 -1.809175	 -0.062213
H	 -5.715422	 -0.564821	 0.343442

	symmetry c1
}
set optking {
	frozen_dihedral = ("
		10 6 3 2,
		12 15 17 21
	")
}

ee = energy('scf')
oeprop('DIPOLE', 'QUADRUPOLE', 'MULLIKEN_CHARGES')
f=open( 'psi4out.xyz', 'w' )
f.write( "28  " )
f.write( str(ee) + "\n" )
f.write( MOL.save_string_xyz() )
f.close()
--------------------------------------------------------------------------

    Molecular point group: c1

    Geometry (in Angstrom), charge = 0, multiplicity = 1:

       Center              X                  Y                   Z               Mass
    ------------   -----------------  -----------------  -----------------  -----------------
           H          4.153340173543     2.879536234322    -1.625647293511     1.007825032070
           C          4.125554173543     1.878031234322    -1.207631293511    12.000000000000
           C          2.822419173543     1.632412234322    -0.448232293511    12.000000000000
           H          4.237083173543     1.174341234322    -2.027219293511     1.007825032070
           H          4.988180173543     1.767385234322    -0.556145293511     1.007825032070
           C          2.753404173543     0.230127234322     0.160575706489    12.000000000000
           H          1.983117173543     1.776475234322    -1.120853293511     1.007825032070
           H          2.722439173543     2.373499234322     0.343277706489     1.007825032070
           C          1.467571173543    -0.038892765678     0.942578706489    12.000000000000
           H          2.850442173543    -0.512104765678    -0.623847293511     1.007825032070
           H          3.597333173543     0.092778234322     0.832854706489     1.007825032070
           C          0.224938173543    -0.180590765678     0.075961706489    12.000000000000
           H          1.564357173543    -0.969343765678     1.499951706489     1.007825032070
           H          1.297462173543     0.734168234322     1.688645706489     1.007825032070
           C         -1.125706826457    -0.055461765678     0.759199706489    12.000000000000
           O          0.300818173543    -0.400491765678    -1.095486293511    15.994914619560
           C         -2.230595826457    -0.896751765678     0.102987706489    12.000000000000
           H         -1.393712826457     0.994094234322     0.741321706489     1.007825032070
           H         -1.015796826457    -0.354153765678     1.800058706489     1.007825032070
           C         -3.596429826457    -0.672010765678     0.754600706489    12.000000000000
           H         -2.291257826457    -0.646987765678    -0.954156293511     1.007825032070
           H         -1.979398826457    -1.952776765678     0.159394706489     1.007825032070
           C         -4.704458826457    -1.503838765678     0.110210706489    12.000000000000
           H         -3.853423826457     0.382660234322     0.693896706489     1.007825032070
           H         -3.532947826457    -0.911614765678     1.813824706489     1.007825032070
           H         -4.813543826457    -1.262622765678    -0.943184293511     1.007825032070
           H         -4.492670826457    -2.566631765678     0.185902706489     1.007825032070
           H         -5.660083826457    -1.322277765678     0.591557706489     1.007825032070

  Charge       = 0
  Multiplicity = 1
  Basis Set: 6-31G*
  Basis Set:

    Orbital Energies (a.u.)
    -----------------------

    Doubly Occupied:

       1A    -20.548171     2A    -11.323618     3A    -11.231335
       4A    -11.230755     5A    -11.219565     6A    -11.218954
       7A    -11.216843     8A    -11.212967     9A    -11.210470
      10A    -11.206205    11A     -1.394316    12A     -1.087619
      13A     -1.077413    14A     -1.021251    15A     -0.990777
      16A     -0.909707    17A     -0.866899    18A     -0.805970
      19A     -0.792000    20A     -0.723234    21A     -0.669226
      22A     -0.653236    23A     -0.624726    24A     -0.619363
      25A     -0.608725    26A     -0.585600    27A     -0.577777
      28A     -0.573314    29A     -0.536954    30A     -0.527971
      31A     -0.521512    32A     -0.509572    33A     -0.491191
      34A     -0.478389    35A     -0.474415    36A     -0.470162
      37A     -0.468350    38A     -0.466268    39A     -0.456066
      40A     -0.393824

  @DF-RHF Final Energy:  -426.17052451826680

   => Energetics <=

    Nuclear Repulsion Energy =            529.2012573102572333
    One-Electron Energy =               -1626.7541937355190385
    Two-Electron Energy =                 671.3824119069938661
    DFT Exchange-Correlation Energy =       0.0000000000000000
    Empirical Dispersion Energy =           0.0000000000000000
    PCM Polarization Energy =               0.0000000000000000
    EFP Energy =                            0.0000000000000000
    Total Energy =                       -426.1705245182679391

  Mulliken Charges: (a.u.)
   Center  Symbol    Alpha    Beta     Spin     Total
       1     H     0.41934  0.41934  0.00000  0.16132
       2     C     3.24009  3.24009  0.00000 -0.48017
       3     C     3.15650  3.15650  0.00000 -0.31301
       4     H     0.41826  0.41826  0.00000  0.16348
       5     H     0.42348  0.42348  0.00000  0.15303
       6     C     3.14992  3.14992  0.00000 -0.29984
       7     H     0.41067  0.41067  0.00000  0.17865
       8     H     0.42751  0.42751  0.00000  0.14498
       9     C     3.21105  3.21105  0.00000 -0.42209
      10     H     0.40647  0.40647  0.00000  0.18706
      11     H     0.42170  0.42170  0.00000  0.15660
      12     C     2.73084  2.73084  0.00000  0.53832
      13     H     0.40394  0.40394  0.00000  0.19213
      14     H     0.41186  0.41186  0.00000  0.17629
      15     C     3.20676  3.20676  0.00000 -0.41351
      16     O     4.26917  4.26917  0.00000 -0.53835
      17     C     3.15101  3.15101  0.00000 -0.30202
      18     H     0.40352  0.40352  0.00000  0.19296
      19     H     0.41413  0.41413  0.00000  0.17174
      20     C     3.15305  3.15305  0.00000 -0.30611
      21     H     0.40558  0.40558  0.00000  0.18884
      22     H     0.41909  0.41909  0.00000  0.16182
      23     C     3.23947  3.23947  0.00000 -0.47895
      24     H     0.42289  0.42289  0.00000  0.15423
      25     H     0.42446  0.42446  0.00000  0.15108
      26     H     0.41935  0.41935  0.00000  0.16130
      27     H     0.42094  0.42094  0.00000  0.15812
      28     H     0.41894  0.41894  0.00000  0.16211

   Total alpha = 40.00000, Total beta = 40.00000, Total charge =  0.00000
