  ==> Input File <==

--------------------------------------------------------------------------
set {
	reference rhf
	basis 6-31G*
}

set_num_threads( 4 )
memory 2 gb

molecule MOL {
0 1

H	 4.447243	 0.207376	 1.206820
C	 3.661373	 -0.379294	 0.742087
C	 2.350429	 0.403781	 0.685674
H	 3.998902	 -0.651895	 -0.253899
H	 3.550657	 -1.295366	 1.315499
C	 1.217350	 -0.386724	 0.039429
H	 2.488544	 1.326491	 0.130769
H	 2.058311	 0.689742	 1.694775
N	 0.000003	 0.397874	 -0.023260
H	 1.498102	 -0.649890	 -0.976880
H	 1.077254	 -1.331170	 0.575873
C	 -1.217365	 -0.386708	 0.039277
H	 -0.000031	 1.072115	 0.718656
C	 -2.452633	 0.504241	 -0.042481
H	 -1.215291	 -1.074557	 -0.802042
H	 -1.269739	 -1.003477	 0.942735
C	 -3.758029	 -0.289423	 -0.010781
H	 -2.394220	 1.093569	 -0.952170
H	 -2.440793	 1.210787	 0.785871
H	 -3.816659	 -0.981993	 -0.845726
H	 -4.617837	 0.370165	 -0.069296
H	 -3.847478	 -0.867502	 0.904682

	symmetry c1
}
set optking {
	frozen_dihedral = ("
		10 6 9 12
	")
}

ee = optimize('scf')
oeprop('DIPOLE', 'QUADRUPOLE', 'MULLIKEN_CHARGES')
f=open( 'psi4out.xyz', 'w' )
f.write( "22  " )
f.write( str(ee) + "\n" )
f.write( MOL.save_string_xyz() )
f.close()
--------------------------------------------------------------------------

    Molecular point group: c1
  Charge       = 0
  Multiplicity = 1
  Basis Set: 6-31G*
  Basis Set:
  @DF-RHF Final Energy:  -290.38040869766786
    Total Energy =                       -290.3804086976679741
    Molecular point group: c1
  Basis Set: 6-31G*
  Basis Set:
  Basis Set: 6-31G*
  Basis Set:
  @DF-RHF Final Energy:  -290.38060987014330
    Total Energy =                       -290.3806098701437008
  Basis Set: 6-31G*
  Basis Set:
  Basis Set: 6-31G*
  Basis Set:
  @DF-RHF Final Energy:  -290.38065699918974
    Total Energy =                       -290.3806569991899664
  Basis Set: 6-31G*
  Basis Set:
  Basis Set: 6-31G*
  Basis Set:
  @DF-RHF Final Energy:  -290.38065890408831
    Total Energy =                       -290.3806589040883637
  Basis Set: 6-31G*
  Basis Set:
  Charge       = 0
  Multiplicity = 1
  Basis Set: 6-31G*
  Basis Set:

    Orbital Energies (a.u.)
    -----------------------

    Doubly Occupied:

       1A    -15.532609     2A    -11.237629     3A    -11.237601
       4A    -11.217756     5A    -11.212951     6A    -11.211924
       7A    -11.209379     8A     -1.204269     9A     -1.060276
      10A     -1.026513    11A     -0.928493    12A     -0.868023
      13A     -0.813010    14A     -0.795233    15A     -0.661746
      16A     -0.633558    17A     -0.614114    18A     -0.612976
      19A     -0.573890    20A     -0.561844    21A     -0.537674
      22A     -0.525367    23A     -0.514795    24A     -0.485779
      25A     -0.482228    26A     -0.474217    27A     -0.468275
      28A     -0.450723    29A     -0.358813

  @DF-RHF Final Energy:  -290.38065985082392

   => Energetics <=

    Nuclear Repulsion Energy =            313.4200047384506433
    One-Electron Energy =               -1012.5779983373747655
    Two-Electron Energy =                 408.7773337480998634
    DFT Exchange-Correlation Energy =       0.0000000000000000
    Empirical Dispersion Energy =           0.0000000000000000
    PCM Polarization Energy =               0.0000000000000000
    EFP Energy =                            0.0000000000000000
    Total Energy =                       -290.3806598508242587
    Molecular point group: c1
  Basis Set: 6-31G*
  Basis Set:

  -Total Gradient:
     Atom            X                  Y                   Z
    ------   -----------------  -----------------  -----------------
       1        0.000007728107    -0.000003114120     0.000004085248
       2        0.000019243401    -0.000016065793     0.000013862802
       3        0.000009680309     0.000018490340    -0.000015368776
       4       -0.000003023486    -0.000000377403     0.000002521422
       5        0.000011684179    -0.000004774900    -0.000002502588
       6       -0.002918250269    -0.004275732207     0.001674984263
       7       -0.000013645274    -0.000004845888    -0.000000417643
       8       -0.000004435203     0.000000290657    -0.000008020842
       9        0.000585210137     0.000437787361    -0.004716824102
      10        0.002306659305     0.003542305656    -0.000232041472
      11        0.000038725424    -0.000015415944    -0.000015732533
      12        0.000010321111     0.000320158748     0.003294451105
      13       -0.000020681427     0.000014840162    -0.000001152587
      14       -0.000012452073    -0.000004931864    -0.000003205610
      15        0.000009850227     0.000003670838     0.000000295845
      16       -0.000003717254    -0.000017535934     0.000005955591
      17       -0.000013782257     0.000007075640     0.000002339953
      18       -0.000000530931     0.000000737856     0.000001765170
      19       -0.000003121956    -0.000000615959    -0.000002803998
      20        0.000000081373     0.000001496344    -0.000000755271
      21       -0.000006241936    -0.000003736807     0.000000239431
      22        0.000000698499     0.000000293218    -0.000001675410

  **** Optimization is complete! (in 5 steps) ****
    Final optimized geometry and variables:
    Molecular point group: c1

    Geometry (in Angstrom), charge = 0, multiplicity = 1:

    H            4.496604928164     0.249724937873     0.949229090781
    C            3.708686932574    -0.338188607522     0.489639708403
    C            2.383507971590     0.422129519436     0.491216823967
    H            4.022361328365    -0.577229750334    -0.522250361732
    H            3.628651623291    -1.271052831508     1.040508749899
    C            1.243330547064    -0.373795861766    -0.140501840392
    H            2.494926702643     1.358493302089    -0.049042898934
    H            2.117020660023     0.681374401067     1.514633214036
    N            0.025100037401     0.418539210132    -0.214923159640
    H            1.544438068579    -0.644816313402    -1.149311303554
    H            1.096920271934    -1.299087707276     0.420788730631
    C           -1.197584192202    -0.360112643922    -0.164675619320
    H            0.014049137198     1.077485229497     0.540050997468
    C           -2.427314842852     0.534885864038    -0.274882753839
    H           -1.187254457307    -1.058022862367    -0.998022079501
    H           -1.263486452011    -0.966860857855     0.744341350139
    C           -3.737001499807    -0.251801038799    -0.244624535638
    H           -2.355943281999     1.109262663766    -1.193128939990
    H           -2.420715452635     1.255030133224     0.541865684702
    H           -3.789532816048    -0.958367273172    -1.068144650580
    H           -4.592812380653     0.410799457445    -0.324343951747
    H           -3.839932988601    -0.813652643717     0.679533361639

  Mulliken Charges: (a.u.)
   Center  Symbol    Alpha    Beta     Spin     Total
       1     H     0.41746  0.41746  0.00000  0.16508
       2     C     3.24229  3.24229  0.00000 -0.48458
       3     C     3.16684  3.16684  0.00000 -0.33369
       4     H     0.41933  0.41933  0.00000  0.16134
       5     H     0.42089  0.42089  0.00000  0.15822
       6     C     3.03878  3.03878  0.00000 -0.07755
       7     H     0.41416  0.41416  0.00000  0.17167
       8     H     0.42565  0.42565  0.00000  0.14869
       9     N     3.85921  3.85921  0.00000 -0.71841
      10     H     0.42134  0.42134  0.00000  0.15733
      11     H     0.43348  0.43348  0.00000  0.13305
      12     C     3.05024  3.05024  0.00000 -0.10048
      13     H     0.33440  0.33440  0.00000  0.33120
      14     C     3.15517  3.15517  0.00000 -0.31034
      15     H     0.42150  0.42150  0.00000  0.15701
      16     H     0.43596  0.43596  0.00000  0.12808
      17     C     3.24324  3.24324  0.00000 -0.48648
      18     H     0.41283  0.41283  0.00000  0.17434
      19     H     0.42685  0.42685  0.00000  0.14630
      20     H     0.42070  0.42070  0.00000  0.15860
      21     H     0.41779  0.41779  0.00000  0.16442
      22     H     0.42190  0.42190  0.00000  0.15621

   Total alpha = 29.00000, Total beta = 29.00000, Total charge =  0.00000
