  ==> Input File <==

--------------------------------------------------------------------------
set {
	reference rhf
	basis cc-pvtz
}

set_num_threads( 4 )
memory 2 gb

molecule MOL {
0 1

H	 -2.816458	 -0.841657	 -0.064679
N	 -1.878861	 -0.711874	 0.250184
C	 -1.341419	 0.551458	 -0.220231
H	 -1.333674	 -1.468530	 -0.105118
C	 0.108341	 0.395316	 -0.618306
H	 -1.887305	 0.966302	 -1.066669
H	 -1.395247	 1.273705	 0.586933
O	 0.183969	 -0.464967	 -1.714618
H	 0.527615	 1.366977	 -0.875711
H	 0.675015	 -0.010092	 0.216831
C	 1.476566	 -0.746824	 -2.137664
H	 1.410961	 -1.413196	 -2.985620
H	 2.000859	 0.156241	 -2.443089
H	 2.054625	 -1.231791	 -1.354581

	symmetry c1
}
set optking {
	frozen_dihedral = ("
		6 3 2 4
	")
}

ee = optimize('scf')
oeprop('DIPOLE', 'QUADRUPOLE', 'MULLIKEN_CHARGES')
f=open( 'psi4out.xyz', 'w' )
f.write( "14  " )
f.write( str(ee) + "\n" )
f.write( MOL.save_string_xyz() )
f.close()
--------------------------------------------------------------------------

    Molecular point group: c1
  Charge       = 0
  Multiplicity = 1
  Basis Set: CC-PVTZ
  Basis Set:
  @DF-RHF Final Energy:  -248.22253231727069
    Total Energy =                       -248.2225323172706908
    Molecular point group: c1
  Basis Set: CC-PVTZ
  Basis Set:
  Basis Set: CC-PVTZ
  Basis Set:
  @DF-RHF Final Energy:  -248.22287366362238
    Total Energy =                       -248.2228736636225221
  Basis Set: CC-PVTZ
  Basis Set:
  Basis Set: CC-PVTZ
  Basis Set:
  @DF-RHF Final Energy:  -248.22294678490243
    Total Energy =                       -248.2229467849026037
  Basis Set: CC-PVTZ
  Basis Set:
  Basis Set: CC-PVTZ
  Basis Set:
  @DF-RHF Final Energy:  -248.22294909666053
    Total Energy =                       -248.2229490966603862
  Basis Set: CC-PVTZ
  Basis Set:
  Charge       = 0
  Multiplicity = 1
  Basis Set: CC-PVTZ
  Basis Set:

    Orbital Energies (a.u.)
    -----------------------

    Doubly Occupied:

       1A    -20.554278     2A    -15.520178     3A    -11.269205
       4A    -11.266798     5A    -11.239946     6A     -1.388437
       7A     -1.173236     8A     -1.002392     9A     -0.911076
      10A     -0.819986    11A     -0.690219    12A     -0.670487
      13A     -0.654508    14A     -0.621492    15A     -0.591300
      16A     -0.550827    17A     -0.535480    18A     -0.502873
      19A     -0.473687    20A     -0.423747    21A     -0.378753

  @DF-RHF Final Energy:  -248.22294934718053

   => Energetics <=

    Nuclear Repulsion Energy =            194.5830846776958083
    One-Electron Energy =                -723.1342593297217718
    Two-Electron Energy =                 280.3282253048455459
    DFT Exchange-Correlation Energy =       0.0000000000000000
    Empirical Dispersion Energy =           0.0000000000000000
    PCM Polarization Energy =               0.0000000000000000
    EFP Energy =                            0.0000000000000000
    Total Energy =                       -248.2229493471804744
    Molecular point group: c1
  Basis Set: CC-PVTZ
  Basis Set:

  -Total Gradient:
     Atom            X                  Y                   Z
    ------   -----------------  -----------------  -----------------
       1       -0.000015766950    -0.000001046634    -0.000012448492
       2       -0.003501142054     0.000418662181    -0.003058089396
       3        0.003196121242    -0.002262371731    -0.002264129960
       4        0.002357199590     0.000040341671     0.003014377271
       5       -0.000035711327    -0.000025559453     0.000013016622
       6       -0.002017081450     0.001795646329     0.002306241730
       7        0.000005556316     0.000005186838     0.000009995152
       8        0.000008838193     0.000016043755    -0.000000163338
       9        0.000008770746     0.000010154702    -0.000012257725
      10       -0.000002811114     0.000006758918     0.000006741497
      11       -0.000002797918    -0.000000543503    -0.000008121825
      12        0.000002907046    -0.000001838246     0.000001506202
      13       -0.000002572538    -0.000000383550     0.000001063034
      14       -0.000001509781    -0.000001051276     0.000002269227

  **** Optimization is complete! (in 5 steps) ****
    Final optimized geometry and variables:
    Molecular point group: c1

    Geometry (in Angstrom), charge = 0, multiplicity = 1:

    H           -2.589292180824    -0.577543549821     0.890724348584
    N           -1.632701636988    -0.486474275220     1.150542739077
    C           -1.056159650563     0.764327478496     0.683206313383
    H           -1.134938726455    -1.265186625893     0.778234331270
    C            0.391195166189     0.602342016264     0.279418120393
    H           -1.617756279791     1.195653625202    -0.141327948151
    H           -1.085060602865     1.495789323263     1.486344673316
    O            0.483572358198    -0.271446474817    -0.803269003186
    H            0.804743065948     1.574348907010     0.017464646225
    H            0.964161207471     0.214403167890     1.121059195003
    C            1.780777343173    -0.511644123176    -1.239175925236
    H            1.729254122139    -1.198702451696    -2.071264073680
    H            2.264763038199     0.404111844504    -1.571367399066
    H            2.389017986965    -0.956218344483    -0.454598359396

  Mulliken Charges: (a.u.)
   Center  Symbol    Alpha    Beta     Spin     Total
       1     H     0.42843  0.42843  0.00000  0.14314
       2     N     3.69647  3.69647  0.00000 -0.39295
       3     C     3.01187  3.01187  0.00000 -0.02374
       4     H     0.42424  0.42424  0.00000  0.15152
       5     C     2.97987  2.97987  0.00000  0.04027
       6     H     0.46293  0.46293  0.00000  0.07414
       7     H     0.46628  0.46628  0.00000  0.06744
       8     O     4.17767  4.17767  0.00000 -0.35535
       9     H     0.46569  0.46569  0.00000  0.06861
      10     H     0.46685  0.46685  0.00000  0.06630
      11     C     3.03257  3.03257  0.00000 -0.06513
      12     H     0.44676  0.44676  0.00000  0.10648
      13     H     0.46989  0.46989  0.00000  0.06021
      14     H     0.47048  0.47048  0.00000  0.05904

   Total alpha = 21.00000, Total beta = 21.00000, Total charge =  0.00000
