  ==> Input File <==

--------------------------------------------------------------------------
set {
	reference rhf
	basis 6-31G*
}

set_num_threads( 4 )
memory 2 gb

molecule MOL {
0 1

O	 -2.828148	 1.295663	 -0.172933
C	 -2.668563	 0.129746	 -0.000350
C	 -3.792389	 -0.844980	 0.240883
O	 -1.481751	 -0.454642	 0.000584
H	 -4.474266	 -0.804879	 -0.600128
H	 -3.429677	 -1.853803	 0.371859
H	 -4.340228	 -0.533160	 1.122087
C	 -0.334255	 0.388708	 0.000906
C	 0.891947	 -0.504646	 0.000751
H	 -0.365390	 1.025305	 -0.873475
H	 -0.365484	 1.024911	 0.875569
C	 2.191998	 0.301789	 0.000897
H	 0.855148	 -1.151283	 -0.871571
H	 0.855132	 -1.151660	 0.872805
C	 3.441114	 -0.581407	 0.000108
H	 2.215074	 0.954890	 -0.869742
H	 2.215465	 0.953923	 0.872248
C	 4.739576	 0.224112	 -0.001102
H	 3.419457	 -1.233487	 -0.870178
H	 3.420834	 -1.233096	 0.870717
H	 4.804918	 0.861552	 -0.878265
H	 5.606527	 -0.429058	 -0.001824
H	 4.806469	 0.861674	 0.875853

	symmetry c1
}
set optking {
	frozen_dihedral = ("
		1 2 4 8
	")
}

ee = optimize('scf')
oeprop('DIPOLE', 'QUADRUPOLE', 'MULLIKEN_CHARGES')
f=open( 'psi4out.xyz', 'w' )
f.write( "23  " )
f.write( str(ee) + "\n" )
f.write( MOL.save_string_xyz() )
f.close()
--------------------------------------------------------------------------

    Molecular point group: c1
  Charge       = 0
  Multiplicity = 1
  Basis Set: 6-31G*
  Basis Set:
  @DF-RHF Final Energy:  -422.97883578124777
    Total Energy =                       -422.9788357812479944
    Molecular point group: c1
  Basis Set: 6-31G*
  Basis Set:
  Basis Set: 6-31G*
  Basis Set:
  @DF-RHF Final Energy:  -422.97750914527472
    Total Energy =                       -422.9775091452753486
  Basis Set: 6-31G*
  Basis Set:
  Basis Set: 6-31G*
  Basis Set:
  @DF-RHF Final Energy:  -422.97890722300269
    Total Energy =                       -422.9789072230024658
  Basis Set: 6-31G*
  Basis Set:
  Basis Set: 6-31G*
  Basis Set:
  @DF-RHF Final Energy:  -422.97892427037829
    Total Energy =                       -422.9789242703786840
  Basis Set: 6-31G*
  Basis Set:
  @DF-RHF Final Energy:  -422.97892819680442
    Total Energy =                       -422.9789281968047590
  @DF-RHF Final Energy:  -422.97893241474441
    Total Energy =                       -422.9789324147441221
  @DF-RHF Final Energy:  -422.97871290327737
    Total Energy =                       -422.9787129032770281
  @DF-RHF Final Energy:  -422.97893554729455
    Total Energy =                       -422.9789355472950092
  @DF-RHF Final Energy:  -422.97894907693438
    Total Energy =                       -422.9789490769341000
  @DF-RHF Final Energy:  -422.97897098940660
    Total Energy =                       -422.9789709894067755
  @DF-RHF Final Energy:  -422.97902786347242
    Total Energy =                       -422.9790278634724245
  @DF-RHF Final Energy:  -422.97678164467112
    Total Energy =                       -422.9767816446712914
  @DF-RHF Final Energy:  -422.97886239790648
    Total Energy =                       -422.9788623979062550
  @DF-RHF Final Energy:  -422.97905774809152
    Total Energy =                       -422.9790577480907814
  @DF-RHF Final Energy:  -422.97907245097787
    Total Energy =                       -422.9790724509782649
  @DF-RHF Final Energy:  -422.97910487256843
    Total Energy =                       -422.9791048725688825
  @DF-RHF Final Energy:  -422.97908776638405
    Total Energy =                       -422.9790877663839410
  @DF-RHF Final Energy:  -422.97918416031575
    Total Energy =                       -422.9791841603158673
  @DF-RHF Final Energy:  -422.97922123936576
    Total Energy =                       -422.9792212393650743
  @DF-RHF Final Energy:  -422.97937809786862
    Total Energy =                       -422.9793780978690165
  @DF-RHF Final Energy:  -422.97976317301618
    Total Energy =                       -422.9797631730161811
  @DF-RHF Final Energy:  -422.97977296945618
    Total Energy =                       -422.9797729694566897
  @DF-RHF Final Energy:  -422.97977659265695
    Total Energy =                       -422.9797765926574584
  @DF-RHF Final Energy:  -422.97977795518028
    Total Energy =                       -422.9797779551803387
  @DF-RHF Final Energy:  -422.97978294068565
    Total Energy =                       -422.9797829406847995
  @DF-RHF Final Energy:  -422.97978491590584
    Total Energy =                       -422.9797849159059524
  @DF-RHF Final Energy:  -422.97978730569332
    Total Energy =                       -422.9797873056933213
  @DF-RHF Final Energy:  -422.97963300348152
    Total Energy =                       -422.9796330034814673
  @DF-RHF Final Energy:  -422.97978850862120
    Total Energy =                       -422.9797885086206861
  @DF-RHF Final Energy:  -422.97979001288252
    Total Energy =                       -422.9797900128818355
  @DF-RHF Final Energy:  -422.97979069787397
    Total Energy =                       -422.9797906978735682
  @DF-RHF Final Energy:  -422.97979172176571
    Total Energy =                       -422.9797917217661052
  @DF-RHF Final Energy:  -422.97979228293570
    Total Energy =                       -422.9797922829345680
  @DF-RHF Final Energy:  -422.97979250236040
    Total Energy =                       -422.9797925023601692
  @DF-RHF Final Energy:  -422.97547250821287
    Total Energy =                       -422.9754725082131017
  @DF-RHF Final Energy:  -422.97939778905732
    Total Energy =                       -422.9793977890570886
  Basis Set: 6-31G*
  Basis Set:
  @DF-RHF Final Energy:  -422.97976430602927
    Total Energy =                       -422.9797643060288692
  Basis Set: 6-31G*
  Basis Set:
  Basis Set: 6-31G*
  Basis Set:
  @DF-RHF Final Energy:  -422.97979101564835
    Total Energy =                       -422.9797910156482885
  Basis Set: 6-31G*
  Basis Set:
  Basis Set: 6-31G*
  Basis Set:
  @DF-RHF Final Energy:  -422.97979258340968
    Total Energy =                       -422.9797925834099033
  Basis Set: 6-31G*
  Basis Set:
  Charge       = 0
  Multiplicity = 1
  Basis Set: 6-31G*
  Basis Set:

    Orbital Energies (a.u.)
    -----------------------

    Doubly Occupied:

       1A    -20.600595     2A    -20.543535     3A    -11.373811
       4A    -11.281784     5A    -11.232708     6A    -11.224460
       7A    -11.223860     8A    -11.221785     9A    -11.213046
      10A     -1.467037    11A     -1.361507    12A     -1.094333
      13A     -1.042853    14A     -1.003819    15A     -0.930349
      16A     -0.841267    17A     -0.802707    18A     -0.774042
      19A     -0.692521    20A     -0.685858    21A     -0.667047
      22A     -0.647022    23A     -0.606065    24A     -0.588633
      25A     -0.582585    26A     -0.565603    27A     -0.559217
      28A     -0.538368    29A     -0.523171    30A     -0.505075
      31A     -0.491974    32A     -0.478064    33A     -0.471277
      34A     -0.466115    35A     -0.451546    36A     -0.436097

  @DF-RHF Final Energy:  -422.97979237825723

   => Energetics <=

    Nuclear Repulsion Energy =            449.6928459608130879
    One-Electron Energy =               -1466.9658055614718251
    Two-Electron Energy =                 594.2931672224011663
    DFT Exchange-Correlation Energy =       0.0000000000000000
    Empirical Dispersion Energy =           0.0000000000000000
    PCM Polarization Energy =               0.0000000000000000
    EFP Energy =                            0.0000000000000000
    Total Energy =                       -422.9797923782575708
    Molecular point group: c1
  Basis Set: 6-31G*
  Basis Set:

  -Total Gradient:
     Atom            X                  Y                   Z
    ------   -----------------  -----------------  -----------------
       1       -0.000506913173    -0.000546206966    -0.003683344782
       2        0.000984223664     0.000982528716     0.007128516150
       3       -0.000065502976     0.000014783911    -0.000327406976
       4       -0.000458740705    -0.000612512336    -0.005806182668
       5       -0.000005504127     0.000005986238     0.000007764398
       6       -0.000004251182     0.000019776225     0.000006710704
       7        0.000011791032    -0.000039941843     0.000052133161
       8        0.000080146723     0.000160142644     0.002563353787
       9       -0.000002492412    -0.000010631489    -0.000009645798
      10       -0.000006134145    -0.000006280140     0.000012979794
      11       -0.000008865884     0.000024344732     0.000035101134
      12       -0.000018622984     0.000006239369    -0.000008942528
      13       -0.000008497705     0.000010293911     0.000008729785
      14        0.000003926808    -0.000001159013     0.000004483964
      15        0.000001122762    -0.000002839195     0.000018305722
      16       -0.000003895853     0.000003541375     0.000002401344
      17        0.000002733846    -0.000009535989     0.000001455983
      18        0.000002610718     0.000001009895    -0.000004835843
      19       -0.000004358366     0.000001871226     0.000001066140
      20        0.000006671284     0.000000376102    -0.000000604293
      21       -0.000000436603     0.000000522248     0.000000255095
      22        0.000001455939    -0.000000061903    -0.000002534143
      23       -0.000000466658    -0.000002247721     0.000000239870

  **** Optimization is complete! (in 42 steps) ****
    Final optimized geometry and variables:
    Molecular point group: c1

    Geometry (in Angstrom), charge = 0, multiplicity = 1:

    O           -2.833183701391     1.290396669010    -0.267614322754
    C           -2.672867371309     0.137097607016    -0.029099730878
    C           -3.777234128219    -0.846870866462     0.247969746775
    O           -1.484809783114    -0.450441546240    -0.013429781052
    H           -4.731921382675    -0.345336947748     0.193937151432
    H           -3.738586846382    -1.652296212080    -0.476237234829
    H           -3.641837614704    -1.283084661423     1.231142796383
    C           -0.335184241027     0.387077283359    -0.082262291579
    C            0.888429838057    -0.501337119678     0.040078753645
    H           -0.344747872256     0.925672574936    -1.020422096151
    H           -0.382497603515     1.114074235449     0.718360371087
    C            2.190452115903     0.299370764002    -0.022893961427
    H            0.866466769685    -1.239477805397    -0.756813338513
    H            0.832897044121    -1.049084558368     0.976755671908
    C            3.436892347269    -0.579363606908     0.097619512280
    H            2.232081210411     0.852906956511    -0.959304502121
    H            2.199107966478     1.043220234713     0.771958383718
    C            4.737346438682     0.220394480787     0.033508565566
    H            3.430199708420    -1.322838969615    -0.696264587752
    H            3.397950018245    -1.131755664706     1.033803863945
    H            4.821370179108     0.757876965603    -0.906731298144
    H            5.602332196278    -0.429476508340     0.121183696832
    H            4.789130392202     0.950151410259     0.836504292496

  Mulliken Charges: (a.u.)
   Center  Symbol    Alpha    Beta     Spin     Total
       1     O     4.28298  4.28298  0.00000 -0.56596
       2     C     2.61998  2.61998  0.00000  0.76003
       3     C     3.28161  3.28161  0.00000 -0.56321
       4     O     4.31136  4.31136  0.00000 -0.62272
       5     H     0.39711  0.39711  0.00000  0.20578
       6     H     0.39995  0.39995  0.00000  0.20010
       7     H     0.40147  0.40147  0.00000  0.19707
       8     C     2.99443  2.99443  0.00000  0.01115
       9     C     3.16463  3.16463  0.00000 -0.32926
      10     H     0.40987  0.40987  0.00000  0.18025
      11     H     0.41261  0.41261  0.00000  0.17478
      12     C     3.16006  3.16006  0.00000 -0.32011
      13     H     0.41384  0.41384  0.00000  0.17232
      14     H     0.41478  0.41478  0.00000  0.17045
      15     C     3.15142  3.15142  0.00000 -0.30283
      16     H     0.42059  0.42059  0.00000  0.15882
      17     H     0.42101  0.42101  0.00000  0.15798
      18     C     3.23987  3.23987  0.00000 -0.47974
      19     H     0.42130  0.42130  0.00000  0.15740
      20     H     0.42148  0.42148  0.00000  0.15704
      21     H     0.42077  0.42077  0.00000  0.15845
      22     H     0.41798  0.41798  0.00000  0.16403
      23     H     0.42090  0.42090  0.00000  0.15820

   Total alpha = 36.00000, Total beta = 36.00000, Total charge = -0.00000
