  ==> Input File <==

--------------------------------------------------------------------------
set {
	reference rhf
	basis 6-31G*
}

set_num_threads( 1 )
memory 2 gb

molecule MOL {
0 1

O	 1.218092	 1.301238	 0.112748
C	 1.122059	 0.121804	 -0.000188
C	 -0.170150	 -0.657997	 -0.000612
O	 2.168313	 -0.681706	 -0.144062
C	 -1.412532	 0.227344	 -0.000452
H	 -0.153702	 -1.313099	 -0.867402
H	 -0.153924	 -1.313811	 0.865644
C	 -2.706999	 -0.587347	 -0.000541
H	 -1.388000	 0.879466	 -0.868000
H	 -1.387972	 0.879138	 0.867341
C	 -3.956778	 0.291888	 0.000910
H	 -2.726114	 -1.239230	 -0.871609
H	 -2.725217	 -1.240844	 0.869333
H	 -3.985213	 0.933254	 -0.875158
H	 -4.860123	 -0.309979	 0.000519
H	 -3.984618	 0.931166	 0.878514
C	 3.447466	 -0.074546	 -0.160312
H	 3.526759	 0.622688	 -0.981936
H	 4.154802	 -0.879792	 -0.283613
H	 3.632182	 0.447416	 0.767558

	symmetry c1
}
set optking {
	frozen_dihedral = ("
		9 5 8 12,
		9 5 3 6,
		1 2 4 17
	")
}

ee = energy('scf')
oeprop('DIPOLE', 'QUADRUPOLE', 'MULLIKEN_CHARGES')
f=open( 'psi4out.xyz', 'w' )
f.write( "20  " )
f.write( str(ee) + "\n" )
f.write( MOL.save_string_xyz() )
f.close()
--------------------------------------------------------------------------

    Molecular point group: c1

    Geometry (in Angstrom), charge = 0, multiplicity = 1:

       Center              X                  Y                   Z               Mass
    ------------   -----------------  -----------------  -----------------  -----------------
           O          1.218847830734     1.299972206664     0.138056602354    15.994914619560
           C          1.122814830734     0.120538206664     0.025120602354    12.000000000000
           C         -0.169394169266    -0.659262793336     0.024696602354    12.000000000000
           O          2.169068830734    -0.682971793336    -0.118753397646    15.994914619560
           C         -1.411776169266     0.226078206664     0.024856602354    12.000000000000
           H         -0.152946169266    -1.314364793336    -0.842093397646     1.007825032070
           H         -0.153168169266    -1.315076793336     0.890952602354     1.007825032070
           C         -2.706243169266    -0.588612793336     0.024767602354    12.000000000000
           H         -1.387244169266     0.878200206664    -0.842691397646     1.007825032070
           H         -1.387216169266     0.877872206664     0.892649602354     1.007825032070
           C         -3.956022169266     0.290622206664     0.026218602354    12.000000000000
           H         -2.725358169266    -1.240495793336    -0.846300397646     1.007825032070
           H         -2.724461169266    -1.242109793336     0.894641602354     1.007825032070
           H         -3.984457169266     0.931988206664    -0.849849397646     1.007825032070
           H         -4.859367169266    -0.311244793336     0.025827602354     1.007825032070
           H         -3.983862169266     0.929900206664     0.903822602354     1.007825032070
           C          3.448221830734    -0.075811793336    -0.135003397646    12.000000000000
           H          3.527514830734     0.621422206664    -0.956627397646     1.007825032070
           H          4.155557830734    -0.881057793336    -0.258304397646     1.007825032070
           H          3.632937830734     0.446150206664     0.792866602354     1.007825032070

  Charge       = 0
  Multiplicity = 1
  Basis Set: 6-31G*
  Basis Set:

    Orbital Energies (a.u.)
    -----------------------

    Doubly Occupied:

       1A    -20.603826     2A    -20.545487     3A    -11.372406
       4A    -11.280953     5A    -11.235693     6A    -11.220389
       7A    -11.219470     8A    -11.210710     9A     -1.469474
      10A     -1.362896    11A     -1.088820    12A     -1.024458
      13A     -0.969164    14A     -0.885927    15A     -0.804089
      16A     -0.767711    17A     -0.696776    18A     -0.683779
      19A     -0.672012    20A     -0.646148    21A     -0.597540
      22A     -0.592105    23A     -0.578815    24A     -0.539729
      25A     -0.537287    26A     -0.522849    27A     -0.500655
      28A     -0.478298    29A     -0.473657    30A     -0.470576
      31A     -0.455854    32A     -0.436939

  @DF-RHF Final Energy:  -383.94154483437381

   => Energetics <=

    Nuclear Repulsion Energy =            381.0740579482298358
    One-Electron Energy =               -1278.1424359539935267
    Two-Electron Energy =                 513.1268331713912403
    DFT Exchange-Correlation Energy =       0.0000000000000000
    Empirical Dispersion Energy =           0.0000000000000000
    PCM Polarization Energy =               0.0000000000000000
    EFP Energy =                            0.0000000000000000
    Total Energy =                       -383.9415448343723938

  Mulliken Charges: (a.u.)
   Center  Symbol    Alpha    Beta     Spin     Total
       1     O     4.28599  4.28599  0.00000 -0.57197
       2     C     2.60514  2.60514  0.00000  0.78972
       3     C     3.20829  3.20829  0.00000 -0.41658
       4     O     4.30718  4.30718  0.00000 -0.61437
       5     C     3.15130  3.15130  0.00000 -0.30259
       6     H     0.40100  0.40100  0.00000  0.19800
       7     H     0.40027  0.40027  0.00000  0.19946
       8     C     3.15422  3.15422  0.00000 -0.30844
       9     H     0.41325  0.41325  0.00000  0.17349
      10     H     0.41059  0.41059  0.00000  0.17882
      11     C     3.23933  3.23933  0.00000 -0.47866
      12     H     0.42295  0.42295  0.00000  0.15410
      13     H     0.42288  0.42288  0.00000  0.15423
      14     H     0.42008  0.42008  0.00000  0.15985
      15     H     0.41872  0.41872  0.00000  0.16256
      16     H     0.41984  0.41984  0.00000  0.16033
      17     C     3.09250  3.09250  0.00000 -0.18499
      18     H     0.40901  0.40901  0.00000  0.18199
      19     H     0.40840  0.40840  0.00000  0.18320
      20     H     0.40907  0.40907  0.00000  0.18186

   Total alpha = 32.00000, Total beta = 32.00000, Total charge =  0.00000
