  ==> Input File <==

--------------------------------------------------------------------------
set {
	reference rhf
	basis 6-31G*
}

set_num_threads( 1 )
memory 2 gb

molecule MOL {
0 1

H	 4.543497	 0.324254	 0.800495
C	 3.716858	 -0.312389	 0.501994
C	 2.406926	 0.472964	 0.454453
H	 3.958554	 -0.731811	 -0.470578
H	 3.660293	 -1.133613	 1.210964
C	 1.217350	 -0.386724	 0.039429
H	 2.492521	 1.303052	 -0.239822
H	 2.211686	 0.906854	 1.433745
N	 0.000003	 0.397874	 -0.023260
H	 1.400608	 -0.798949	 -0.949232
H	 1.128024	 -1.240971	 0.718885
C	 -1.217365	 -0.386708	 0.039277
H	 -0.000031	 1.072115	 0.718656
C	 -2.452633	 0.504241	 -0.042481
H	 -1.215291	 -1.074557	 -0.802042
H	 -1.269739	 -1.003477	 0.942735
C	 -3.758029	 -0.289423	 -0.010781
H	 -2.394220	 1.093569	 -0.952170
H	 -2.440793	 1.210787	 0.785871
H	 -3.816659	 -0.981993	 -0.845726
H	 -4.617837	 0.370165	 -0.069296
H	 -3.847478	 -0.867502	 0.904682

	symmetry c1
}
set optking {
	frozen_dihedral = ("
		15 12 14 18
	")
}

ee = energy('scf')
oeprop('DIPOLE', 'QUADRUPOLE', 'MULLIKEN_CHARGES')
f=open( 'psi4out.xyz', 'w' )
f.write( "22  " )
f.write( str(ee) + "\n" )
f.write( MOL.save_string_xyz() )
f.close()
--------------------------------------------------------------------------

    Molecular point group: c1

    Geometry (in Angstrom), charge = 0, multiplicity = 1:

       Center              X                  Y                   Z               Mass
    ------------   -----------------  -----------------  -----------------  -----------------
           H          4.555869944567     0.331861076409     0.655429513669     1.007825032070
           C          3.729230944567    -0.304781923591     0.356928513669    12.000000000000
           C          2.419298944567     0.480571076409     0.309387513669    12.000000000000
           H          3.970926944567    -0.724203923591    -0.615643486331     1.007825032070
           H          3.672665944567    -1.126005923591     1.065898513669     1.007825032070
           C          1.229722944567    -0.379116923591    -0.105636486331    12.000000000000
           H          2.504893944567     1.310659076409    -0.384887486331     1.007825032070
           H          2.224058944567     0.914461076409     1.288679513669     1.007825032070
           N          0.012375944567     0.405481076409    -0.168325486331    14.003074004780
           H          1.412980944567    -0.791341923591    -1.094297486331     1.007825032070
           H          1.140396944567    -1.233363923591     0.573819513669     1.007825032070
           C         -1.204992055433    -0.379100923591    -0.105788486331    12.000000000000
           H          0.012341944567     1.079722076409     0.573590513669     1.007825032070
           C         -2.440260055433     0.511848076409    -0.187546486331    12.000000000000
           H         -1.202918055433    -1.066949923591    -0.947107486331     1.007825032070
           H         -1.257366055433    -0.995869923591     0.797669513669     1.007825032070
           C         -3.745656055433    -0.281815923591    -0.155846486331    12.000000000000
           H         -2.381847055433     1.101176076409    -1.097235486331     1.007825032070
           H         -2.428420055433     1.218394076409     0.640805513669     1.007825032070
           H         -3.804286055433    -0.974385923591    -0.990791486331     1.007825032070
           H         -4.605464055433     0.377772076409    -0.214361486331     1.007825032070
           H         -3.835105055433    -0.859894923591     0.759616513669     1.007825032070

  Charge       = 0
  Multiplicity = 1
  Basis Set: 6-31G*
  Basis Set:

    Orbital Energies (a.u.)
    -----------------------

    Doubly Occupied:

       1A    -15.532600     2A    -11.237649     3A    -11.237343
       4A    -11.216879     5A    -11.213160     6A    -11.211481
       7A    -11.209455     8A     -1.205360     9A     -1.060103
      10A     -1.026350    11A     -0.928482    12A     -0.867846
      13A     -0.813422    14A     -0.794803    15A     -0.664251
      16A     -0.629629    17A     -0.615475    18A     -0.613976
      19A     -0.573270    20A     -0.562860    21A     -0.535104
      22A     -0.526323    23A     -0.514996    24A     -0.486086
      25A     -0.482396    26A     -0.475037    27A     -0.467502
      28A     -0.450156    29A     -0.358446

  @DF-RHF Final Energy:  -290.38185063653270

   => Energetics <=

    Nuclear Repulsion Energy =            313.4520434435272591
    One-Electron Energy =               -1012.6469951852287750
    Two-Electron Energy =                 408.8131011051694372
    DFT Exchange-Correlation Energy =       0.0000000000000000
    Empirical Dispersion Energy =           0.0000000000000000
    PCM Polarization Energy =               0.0000000000000000
    EFP Energy =                            0.0000000000000000
    Total Energy =                       -290.3818506365320786

  Mulliken Charges: (a.u.)
   Center  Symbol    Alpha    Beta     Spin     Total
       1     H     0.41758  0.41758  0.00000  0.16484
       2     C     3.24256  3.24256  0.00000 -0.48511
       3     C     3.16359  3.16359  0.00000 -0.32718
       4     H     0.41966  0.41966  0.00000  0.16068
       5     H     0.42088  0.42088  0.00000  0.15825
       6     C     3.04035  3.04035  0.00000 -0.08071
       7     H     0.41317  0.41317  0.00000  0.17367
       8     H     0.42618  0.42618  0.00000  0.14763
       9     N     3.85954  3.85954  0.00000 -0.71908
      10     H     0.42141  0.42141  0.00000  0.15718
      11     H     0.43575  0.43575  0.00000  0.12851
      12     C     3.04805  3.04805  0.00000 -0.09609
      13     H     0.33491  0.33491  0.00000  0.33019
      14     C     3.15560  3.15560  0.00000 -0.31120
      15     H     0.42175  0.42175  0.00000  0.15649
      16     H     0.43586  0.43586  0.00000  0.12827
      17     C     3.24321  3.24321  0.00000 -0.48641
      18     H     0.41293  0.41293  0.00000  0.17413
      19     H     0.42676  0.42676  0.00000  0.14649
      20     H     0.42067  0.42067  0.00000  0.15866
      21     H     0.41780  0.41780  0.00000  0.16439
      22     H     0.42180  0.42180  0.00000  0.15640

   Total alpha = 29.00000, Total beta = 29.00000, Total charge =  0.00000
