  ==> Input File <==

--------------------------------------------------------------------------
set {
	reference rhf
	basis 6-31G*
}

set_num_threads( 4 )
memory 2 gb

molecule MOL {
0 1

O	 1.214711	 1.306902	 -0.000018
C	 1.122059	 0.121804	 -0.000188
C	 -0.170150	 -0.657997	 -0.000612
O	 2.172624	 -0.688929	 0.000216
C	 -1.412532	 0.227344	 -0.000452
H	 -0.153702	 -1.313099	 -0.867402
H	 -0.153924	 -1.313811	 0.865644
C	 -2.121835	 0.233558	 1.354619
H	 -2.095804	 -0.113799	 -0.771986
H	 -1.131150	 1.239737	 -0.273195
C	 -3.367063	 1.119177	 1.364025
H	 -2.400868	 -0.783270	 1.623463
H	 -1.432008	 0.573664	 2.124384
H	 -4.091700	 0.783551	 0.627878
H	 -3.851002	 1.105679	 2.335568
H	 -3.115834	 2.150268	 1.132994
C	 3.452279	 -0.082609	 0.000533
H	 3.583069	 0.529321	 -0.880332
H	 4.163299	 -0.894027	 0.001117
H	 3.582335	 0.529955	 0.881077

	symmetry c1
}
set optking {
	frozen_dihedral = ("
		9 5 3 6
	")
}

ee = optimize('scf')
oeprop('DIPOLE', 'QUADRUPOLE', 'MULLIKEN_CHARGES')
f=open( 'psi4out.xyz', 'w' )
f.write( "20  " )
f.write( str(ee) + "\n" )
f.write( MOL.save_string_xyz() )
f.close()
--------------------------------------------------------------------------

    Molecular point group: c1
  Charge       = 0
  Multiplicity = 1
  Basis Set: 6-31G*
  Basis Set:
  @DF-RHF Final Energy:  -383.93748305618760
    Total Energy =                       -383.9374830561877161
    Molecular point group: c1
  Basis Set: 6-31G*
  Basis Set:
  Basis Set: 6-31G*
  Basis Set:
  @DF-RHF Final Energy:  -383.93777369806890
    Total Energy =                       -383.9377736980688951
  Basis Set: 6-31G*
  Basis Set:
  Basis Set: 6-31G*
  Basis Set:
  @DF-RHF Final Energy:  -383.93761429728289
    Total Energy =                       -383.9376142972826074
  Basis Set: 6-31G*
  Basis Set:
  Basis Set: 6-31G*
  Basis Set:
  @DF-RHF Final Energy:  -383.93786581984313
    Total Energy =                       -383.9378658198429548
  Basis Set: 6-31G*
  Basis Set:
  Basis Set: 6-31G*
  Basis Set:
  @DF-RHF Final Energy:  -383.93786445439144
    Total Energy =                       -383.9378644543911605
  Basis Set: 6-31G*
  Basis Set:
  Basis Set: 6-31G*
  Basis Set:
  @DF-RHF Final Energy:  -383.93787516876034
    Total Energy =                       -383.9378751687607974
  Basis Set: 6-31G*
  Basis Set:
  Basis Set: 6-31G*
  Basis Set:
  @DF-RHF Final Energy:  -383.93787778364526
    Total Energy =                       -383.9378777836449217
  Basis Set: 6-31G*
  Basis Set:
  Charge       = 0
  Multiplicity = 1
  Basis Set: 6-31G*
  Basis Set:

    Orbital Energies (a.u.)
    -----------------------

    Doubly Occupied:

       1A    -20.604322     2A    -20.546456     3A    -11.373426
       4A    -11.281316     5A    -11.235372     6A    -11.218011
       7A    -11.217371     8A    -11.208340     9A     -1.470250
      10A     -1.363581    11A     -1.085765    12A     -1.023277
      13A     -0.968242    14A     -0.885375    15A     -0.804996
      16A     -0.766970    17A     -0.703021    18A     -0.680670
      19A     -0.672679    20A     -0.631270    21A     -0.604629
      22A     -0.589805    23A     -0.578843    24A     -0.546421
      25A     -0.529418    26A     -0.515064    27A     -0.511063
      28A     -0.476934    29A     -0.468523    30A     -0.462282
      31A     -0.456954    32A     -0.439956

  @DF-RHF Final Energy:  -383.93787840389939

   => Energetics <=

    Nuclear Repulsion Energy =            384.5604056677167364
    One-Electron Energy =               -1285.1553710814250735
    Two-Electron Energy =                 516.6570870098088335
    DFT Exchange-Correlation Energy =       0.0000000000000000
    Empirical Dispersion Energy =           0.0000000000000000
    PCM Polarization Energy =               0.0000000000000000
    EFP Energy =                            0.0000000000000000
    Total Energy =                       -383.9378784038995036
    Molecular point group: c1
  Basis Set: 6-31G*
  Basis Set:

  -Total Gradient:
     Atom            X                  Y                   Z
    ------   -----------------  -----------------  -----------------
       1        0.000004638615    -0.000014148852    -0.000001297842
       2       -0.000046459594     0.000033395949     0.000010008554
       3        0.002095897465     0.003177361226    -0.002501650672
       4        0.000030260608    -0.000023777061    -0.000001525355
       5       -0.001874315962    -0.002847477184     0.002903342463
       6       -0.001430439918    -0.002145303503     0.001597757465
       7       -0.000001526148    -0.000013299118     0.000001643438
       8        0.000001221470    -0.000008009014    -0.000016869239
       9        0.001228767542     0.001834771960    -0.001985647949
      10       -0.000002397149     0.000008468066    -0.000010103041
      11        0.000002383104     0.000009622434     0.000003341936
      12        0.000000980266    -0.000003115133     0.000001932305
      13       -0.000002144686    -0.000001273364     0.000004453153
      14       -0.000003911102    -0.000007336136     0.000002694640
      15        0.000003631776     0.000003745773    -0.000001319514
      16       -0.000000848462     0.000000026977    -0.000005254680
      17       -0.000014544041    -0.000007890256    -0.000004265254
      18        0.000000902611     0.000000740236     0.000001578326
      19        0.000007945458     0.000002439510     0.000000839117
      20       -0.000000041857     0.000001057492     0.000000342148

  **** Optimization is complete! (in 8 steps) ****
    Final optimized geometry and variables:
    Molecular point group: c1

    Geometry (in Angstrom), charge = 0, multiplicity = 1:

    O            1.078084940513     1.100301519205    -0.241369368647
    C            0.980846311928    -0.081420107116    -0.326870872454
    C           -0.309284499664    -0.866164006524    -0.359224277326
    O            2.029488880941    -0.891529264839    -0.393404303138
    C           -1.580040958078    -0.004071577643    -0.349512407787
    H           -0.274830367587    -1.532317613941    -1.214760648955
    H           -0.281876776488    -1.528880243327     0.502432662049
    C           -2.277132548904     0.038299652715     1.010949948095
    H           -2.265915348953    -0.367015536100    -1.109833688183
    H           -1.318454566400     1.005706112258    -0.643540632599
    C           -3.521227643097     0.924316080816     1.009912245896
    H           -2.551362428378    -0.971237886249     1.310974475675
    H           -1.574444766052     0.402230846900     1.757177428644
    H           -4.254515998110     0.569728143223     0.290787186595
    H           -3.995127848224     0.936752072721     1.986427916065
    H           -3.270863083770     1.948440228239     0.749557580861
    C            3.310722020053    -0.289584887789    -0.356269657620
    H            3.437021031411     0.386835068531    -1.189276953461
    H            4.019486394946    -1.100296400533    -0.422052019047
    H            3.448419192681     0.254226332083     0.567209120246

  Mulliken Charges: (a.u.)
   Center  Symbol    Alpha    Beta     Spin     Total
       1     O     4.28550  4.28550  0.00000 -0.57100
       2     C     2.61047  2.61047  0.00000  0.77906
       3     C     3.21118  3.21118  0.00000 -0.42237
       4     O     4.30564  4.30564  0.00000 -0.61127
       5     C     3.15967  3.15967  0.00000 -0.31934
       6     H     0.39684  0.39684  0.00000  0.20632
       7     H     0.39857  0.39857  0.00000  0.20286
       8     C     3.15462  3.15462  0.00000 -0.30925
       9     H     0.41943  0.41943  0.00000  0.16115
      10     H     0.39796  0.39796  0.00000  0.20409
      11     C     3.24082  3.24082  0.00000 -0.48164
      12     H     0.42409  0.42409  0.00000  0.15182
      13     H     0.41788  0.41788  0.00000  0.16424
      14     H     0.42215  0.42215  0.00000  0.15570
      15     H     0.41878  0.41878  0.00000  0.16244
      16     H     0.41787  0.41787  0.00000  0.16425
      17     C     3.09216  3.09216  0.00000 -0.18432
      18     H     0.40887  0.40887  0.00000  0.18227
      19     H     0.40839  0.40839  0.00000  0.18321
      20     H     0.40911  0.40911  0.00000  0.18178

   Total alpha = 32.00000, Total beta = 32.00000, Total charge = -0.00000
