                              Psi4 1.0.54 Driver

  ==> Input File <==

--------------------------------------------------------------------------
set {
	reference rhf
	basis cc-pvtz
}

set_num_threads( 4 )
memory 2 gb

molecule MOL {
0 1

H	 -3.162190	 0.493205	 -0.000107
C	 -2.363908	 -0.234727	 0.000005
O	 -1.158738	 0.454634	 -0.000087
H	 -2.464314	 -0.863616	 -0.882153
H	 -2.464327	 -0.863359	 0.882345
C	 -1.287716	 1.841528	 0.014293
C	 0.090697	 2.471105	 0.012597
H	 -1.843402	 2.156191	 0.897944
H	 -1.853460	 2.173449	 -0.856571
C	 0.035047	 3.994594	 0.027886
H	 0.637089	 2.108567	 0.876280
H	 0.627080	 2.125728	 -0.864306
H	 -0.477076	 4.362692	 0.910678
H	 1.032098	 4.417570	 0.026472
H	 -0.486881	 4.379976	 -0.841677

	symmetry c1
}
set optking {
	frozen_dihedral = ("
		6 3 2 4
	")
}

ee,wfn = optimize('scf', return_wfn=True)
oeprop( wfn, 'DIPOLE', 'QUADRUPOLE', 'MULLIKEN_CHARGES')
f=open( 'psi4out.xyz', 'w' )
f.write( "15  " )
f.write( str(ee) + "\n" )
f.write( MOL.save_string_xyz() )
f.close()
--------------------------------------------------------------------------

    Molecular point group: c1
  Charge       = 0
  Multiplicity = 1
  Basis Set: CC-PVTZ
  Basis Set:
  @DF-RHF Final Energy:  -232.22347685362064
    Total Energy =                       -232.2234768536205820
    Molecular point group: c1
  Basis Set: CC-PVTZ
  Basis Set:
  Basis Set: CC-PVTZ
  Basis Set:
  @DF-RHF Final Energy:  -232.22427615159424
    Total Energy =                       -232.2242761515940970
  Basis Set: CC-PVTZ
  Basis Set:
  Basis Set: CC-PVTZ
  Basis Set:
  @DF-RHF Final Energy:  -232.22456698133058
    Total Energy =                       -232.2245669813304971
  Basis Set: CC-PVTZ
  Basis Set:
  Charge       = 0
  Multiplicity = 1
  Basis Set: CC-PVTZ
  Basis Set:

    Orbital Energies (a.u.)
    -----------------------

    Doubly Occupied:

       1A    -20.543848     2A    -11.264903     3A    -11.261252
       4A    -11.212198     5A    -11.210438     6A     -1.376780
       7A     -1.058014     8A     -0.956118     9A     -0.877378
      10A     -0.809171    11A     -0.673052    12A     -0.653810
      13A     -0.631589    14A     -0.608368    15A     -0.563502
      16A     -0.545827    17A     -0.502893    18A     -0.489405
      19A     -0.479256    20A     -0.461946    21A     -0.410868

  @DF-RHF Final Energy:  -232.22456976375332

   => Energetics <=

    Nuclear Repulsion Energy =            189.6616051676351731
    One-Electron Energy =                -690.5911173173976749
    Two-Electron Energy =                 268.7049423860091792
    DFT Exchange-Correlation Energy =       0.0000000000000000
    Empirical Dispersion Energy =           0.0000000000000000
    PCM Polarization Energy =               0.0000000000000000
    EFP Energy =                            0.0000000000000000
    Total Energy =                       -232.2245697637533226
    Molecular point group: c1
  Basis Set: CC-PVTZ
  Basis Set:

  -Total Gradient:
     Atom            X                  Y                   Z
    ------   -----------------  -----------------  -----------------
       1       -0.000040316892    -0.000021046021    -0.000004606715
       2        0.000134092336     0.000251099360     0.000054749055
       3       -0.000185395674    -0.000152995776    -0.000105416562
       4        0.000067342270    -0.000046663288     0.000023333786
       5       -0.000030402744    -0.000066004887     0.000000178893
       6        0.000037224154     0.000065063179     0.000024191447
       7       -0.000001185569    -0.000011155485     0.000001367301
       8        0.000003137491    -0.000034939878    -0.000010465575
       9        0.000003098394    -0.000028012311     0.000012850553
      10        0.000017926467     0.000026062467     0.000001718710
      11       -0.000001254477     0.000001578594    -0.000004593602
      12       -0.000006095946     0.000000077216     0.000005997283
      13        0.000000939169     0.000001299397    -0.000001419941
      14       -0.000000414546     0.000015991137     0.000000383660
      15        0.000001305565    -0.000000353700     0.000001731707

  **** Optimization is complete! (in 4 steps) ****
    Final optimized geometry and variables:
    Molecular point group: c1

    Geometry (in Angstrom), charge = 0, multiplicity = 1:

    H           -2.263193860273    -1.302568026386     0.007236397267
    C           -1.390732704943    -1.947726795013    -0.005256897674
    O           -0.201864482392    -1.219559394908    -0.005696907139
    H           -1.441279855562    -2.570302503019    -0.891466540922
    H           -1.429687885174    -2.588217960153     0.868663586633
    C           -0.330019765776     0.168750152723     0.001771298039
    C            1.051113185052     0.792160071012     0.000538544237
    H           -0.884318138675     0.491408650564     0.882715309193
    H           -0.889978889574     0.500532055175    -0.872194116033
    C            1.001915156823     2.316114006768     0.008751291675
    H            1.593931876449     0.431091147012     0.867162008944
    H            1.588224139322     0.440285080756    -0.873387547423
    H            0.489326081559     2.690499803244     0.888689657152
    H            2.000750181425     2.735095944241     0.007706745680
    H            0.483610301920     2.699751584157    -0.863821497030

  Mulliken Charges: (a.u.)
   Center  Symbol    Alpha    Beta     Spin     Total
       1     H     0.47323  0.47323  0.00000  0.05355
       2     C     3.02871  3.02871  0.00000 -0.05742
       3     O     4.17671  4.17671  0.00000 -0.35342
       4     H     0.45805  0.45805  0.00000  0.08391
       5     H     0.45791  0.45791  0.00000  0.08419
       6     C     2.95531  2.95531  0.00000  0.08938
       7     C     3.08224  3.08224  0.00000 -0.16447
       8     H     0.47573  0.47573  0.00000  0.04853
       9     H     0.47575  0.47575  0.00000  0.04850
      10     C     3.15594  3.15594  0.00000 -0.31187
      11     H     0.45120  0.45120  0.00000  0.09760
      12     H     0.45119  0.45119  0.00000  0.09761
      13     H     0.45587  0.45587  0.00000  0.08826
      14     H     0.44630  0.44630  0.00000  0.10741
      15     H     0.45587  0.45587  0.00000  0.08826

   Total alpha = 21.00000, Total beta = 21.00000, Total charge = -0.00000

*** Psi4 exiting successfully. Buy a developer a beer!
