  ==> Input File <==

--------------------------------------------------------------------------
set {
	reference rhf
	basis cc-pvtz
}

set_num_threads( 4 )
memory 2 gb

molecule MOL {
0 1

H	 3.721907	 -0.933076	 -0.066039
O	 2.824271	 -1.154299	 0.131461
C	 2.076458	 -0.067370	 -0.038225
C	 0.626018	 -0.337582	 0.258241
O	 2.538288	 0.965419	 -0.381593
C	 -0.267326	 0.883135	 0.076490
H	 0.325620	 -1.161483	 -0.378003
H	 0.574537	 -0.713685	 1.275261
C	 -1.726822	 0.642622	 0.463839
H	 -0.210803	 1.217591	 -0.953497
H	 0.129920	 1.693110	 0.675679
C	 -2.480891	 -0.340606	 -0.429852
H	 -2.243098	 1.597649	 0.438609
H	 -1.776542	 0.301208	 1.495542
C	 -3.837509	 0.192821	 -0.878761
H	 -1.875033	 -0.564566	 -1.303816
H	 -2.628186	 -1.282131	 0.089563
H	 -4.350184	 -0.521696	 -1.512253
H	 -3.728967	 1.114837	 -1.439835
H	 -4.477785	 0.398862	 -0.027440

	symmetry c1
}
set optking {
	frozen_dihedral = ("
		16 12 9 6
	")
}

ee = optimize('scf')
oeprop('DIPOLE', 'QUADRUPOLE', 'MULLIKEN_CHARGES')
f=open( 'psi4out.xyz', 'w' )
f.write( "20  " )
f.write( str(ee) + "\n" )
f.write( MOL.save_string_xyz() )
f.close()
--------------------------------------------------------------------------

    Molecular point group: c1
  Charge       = 0
  Multiplicity = 1
  Basis Set: CC-PVTZ
  Basis Set:
  @DF-RHF Final Energy:  -384.09028844348666
    Total Energy =                       -384.0902884434868838
    Molecular point group: c1
  Basis Set: CC-PVTZ
  Basis Set:
  Basis Set: CC-PVTZ
  Basis Set:
  @DF-RHF Final Energy:  -384.09061544153337
    Total Energy =                       -384.0906154415336005
  Basis Set: CC-PVTZ
  Basis Set:
  Basis Set: CC-PVTZ
  Basis Set:
  @DF-RHF Final Energy:  -384.09067019426550
    Total Energy =                       -384.0906701942655559
  Basis Set: CC-PVTZ
  Basis Set:
  Basis Set: CC-PVTZ
  Basis Set:
  @DF-RHF Final Energy:  -384.09054068929004
    Total Energy =                       -384.0905406892900373
  Basis Set: CC-PVTZ
  Basis Set:
  Basis Set: CC-PVTZ
  Basis Set:
  @DF-RHF Final Energy:  -384.09067440961201
    Total Energy =                       -384.0906744096114380
  Basis Set: CC-PVTZ
  Basis Set:
  Basis Set: CC-PVTZ
  Basis Set:
  @DF-RHF Final Energy:  -384.09067174903805
    Total Energy =                       -384.0906717490385063
  Basis Set: CC-PVTZ
  Basis Set:
  Basis Set: CC-PVTZ
  Basis Set:
  @DF-RHF Final Energy:  -384.09067574884762
    Total Energy =                       -384.0906757488476160
  Basis Set: CC-PVTZ
  Basis Set:
  Charge       = 0
  Multiplicity = 1
  Basis Set: CC-PVTZ
  Basis Set:

    Orbital Energies (a.u.)
    -----------------------

    Doubly Occupied:

       1A    -20.603821     2A    -20.540427     3A    -11.373320
       4A    -11.238491     5A    -11.221298     6A    -11.218737
       7A    -11.217971     8A    -11.210880     9A     -1.477383
      10A     -1.368892    11A     -1.096680    12A     -1.040715
      13A     -0.962301    14A     -0.870699    15A     -0.818882
      16A     -0.777089    17A     -0.703609    18A     -0.692207
      19A     -0.668516    20A     -0.633664    21A     -0.603881
      22A     -0.596912    23A     -0.575078    24A     -0.566231
      25A     -0.531104    26A     -0.514876    27A     -0.501262
      28A     -0.484343    29A     -0.470656    30A     -0.463323
      31A     -0.458120    32A     -0.445897

  @DF-RHF Final Energy:  -384.09067579439778

   => Energetics <=

    Nuclear Repulsion Energy =            376.9621378729685262
    One-Electron Energy =               -1270.2110992623629500
    Two-Electron Energy =                 509.1582855949967552
    DFT Exchange-Correlation Energy =       0.0000000000000000
    Empirical Dispersion Energy =           0.0000000000000000
    PCM Polarization Energy =               0.0000000000000000
    EFP Energy =                            0.0000000000000000
    Total Energy =                       -384.0906757943977254
    Molecular point group: c1
  Basis Set: CC-PVTZ
  Basis Set:

  -Total Gradient:
     Atom            X                  Y                   Z
    ------   -----------------  -----------------  -----------------
       1       -0.000001116434     0.000001426325     0.000001935302
       2       -0.000001167015    -0.000005244821    -0.000004571005
       3        0.000000880814     0.000002025364    -0.000001620859
       4       -0.000000302439    -0.000007956209    -0.000024018083
       5       -0.000001270528     0.000001890504     0.000007798487
       6       -0.000650477742     0.001805134993    -0.001362521871
       7        0.000000016462     0.000000274451     0.000008757341
       8        0.000002286245     0.000005600334     0.000007730227
       9        0.001245503888    -0.003147927450     0.002301112187
      10       -0.000002900492     0.000000171275     0.000000502952
      11       -0.000000113705    -0.000001343634    -0.000001135689
      12       -0.001938423405     0.003828741484    -0.002467695174
      13       -0.000004846262    -0.000000255713    -0.000001135634
      14        0.000000579633    -0.000001899371    -0.000003443975
      15        0.000003001700    -0.000000563997     0.000005075670
      16        0.001348161882    -0.002475617285     0.001531622397
      17       -0.000001520386    -0.000003235469     0.000001110191
      18        0.000000337326    -0.000001711831     0.000003017823
      19        0.000001036195    -0.000003157670    -0.000002301059
      20        0.000000334268     0.000003648716    -0.000000219228

  **** Optimization is complete! (in 8 steps) ****
    Final optimized geometry and variables:
    Molecular point group: c1

    Geometry (in Angstrom), charge = 0, multiplicity = 1:

    H            3.685104140223    -1.051340601361     0.000694711259
    O            2.792733945683    -1.252345322589     0.239448372911
    C            2.052156312109    -0.163236378202     0.053087013723
    C            0.610383610169    -0.400996437826     0.411856328799
    O            2.512803908738     0.849026449543    -0.348422303481
    C           -0.274596269124     0.825233341131     0.227618056338
    H            0.270444168679    -1.239040071503    -0.186323171407
    H            0.590488931675    -0.745787454504     1.440873580721
    C           -1.736908002806     0.571559350867     0.594425121987
    H           -0.210432023554     1.164534431622    -0.799925428822
    H            0.116424944932     1.631131943208     0.836950638850
    C           -2.476371365072    -0.406591468603    -0.340716557558
    H           -2.246463727806     1.529325438392     0.573355090698
    H           -1.801650323178     0.225167981876     1.621571220027
    C           -3.847599241107     0.094277340361    -0.780341360378
    H           -1.866191486853    -0.615390405908    -1.214108394269
    H           -2.596950315345    -1.365050858565     0.154730603362
    H           -4.346327490681    -0.629604588842    -1.414638961013
    H           -3.763771364892     1.022298001924    -1.335816337536
    H           -4.486746683972     0.280242388562     0.076448358135

  Mulliken Charges: (a.u.)
   Center  Symbol    Alpha    Beta     Spin     Total
       1     H     0.38238  0.38238  0.00000  0.23524
       2     O     4.16038  4.16038  0.00000 -0.32077
       3     C     2.80394  2.80394  0.00000  0.39213
       4     C     3.11037  3.11037  0.00000 -0.22074
       5     O     4.19118  4.19118  0.00000 -0.38236
       6     C     3.09301  3.09301  0.00000 -0.18602
       7     H     0.43635  0.43635  0.00000  0.12730
       8     H     0.43756  0.43756  0.00000  0.12489
       9     C     3.10332  3.10332  0.00000 -0.20664
      10     H     0.44500  0.44500  0.00000  0.11001
      11     H     0.44083  0.44083  0.00000  0.11834
      12     C     3.09153  3.09153  0.00000 -0.18306
      13     H     0.44612  0.44612  0.00000  0.10776
      14     H     0.45023  0.45023  0.00000  0.09955
      15     C     3.14729  3.14729  0.00000 -0.29458
      16     H     0.45349  0.45349  0.00000  0.09301
      17     H     0.44996  0.44996  0.00000  0.10008
      18     H     0.44909  0.44909  0.00000  0.10183
      19     H     0.45433  0.45433  0.00000  0.09133
      20     H     0.45365  0.45365  0.00000  0.09270

   Total alpha = 32.00000, Total beta = 32.00000, Total charge = -0.00000
