  ==> Input File <==

--------------------------------------------------------------------------
set {
	reference rhf
	basis 6-31G*
}

set_num_threads( 4 )
memory 2 gb

molecule MOL {
0 1

H	 0.611523	 -0.949436	 2.557243
O	 0.487372	 -0.711404	 1.649709
C	 0.247769	 0.669944	 1.551549
C	 0.031547	 1.023609	 0.088541
H	 1.097817	 1.231939	 1.934259
H	 -0.618957	 0.950063	 2.146041
C	 -1.134819	 0.293262	 -0.585751
H	 0.948021	 0.797885	 -0.449431
H	 -0.117894	 2.099786	 0.019781
C	 -1.917817	 -0.639439	 0.339494
H	 -0.758119	 -0.268455	 -1.433105
H	 -1.813832	 1.041889	 -0.986690
H	 -2.777680	 -1.057197	 -0.174994
H	 -1.310268	 -1.471279	 0.680599
H	 -2.283753	 -0.111424	 1.216626

	symmetry c1
}
set optking {
	frozen_dihedral = ("
		8 4 7 11
	")
}

ee = optimize('scf')
oeprop('DIPOLE', 'QUADRUPOLE', 'MULLIKEN_CHARGES')
f=open( 'psi4out.xyz', 'w' )
f.write( "15  " )
f.write( str(ee) + "\n" )
f.write( MOL.save_string_xyz() )
f.close()
--------------------------------------------------------------------------

    Molecular point group: c1
  Charge       = 0
  Multiplicity = 1
  Basis Set: 6-31G*
  Basis Set:
  @DF-RHF Final Energy:  -232.13034073654561
    Total Energy =                       -232.1303407365455769
    Molecular point group: c1
  Basis Set: 6-31G*
  Basis Set:
  Basis Set: 6-31G*
  Basis Set:
  @DF-RHF Final Energy:  -232.13408967759023
    Total Energy =                       -232.1340896775906799
  Basis Set: 6-31G*
  Basis Set:
  Basis Set: 6-31G*
  Basis Set:
  @DF-RHF Final Energy:  -232.13520810042166
    Total Energy =                       -232.1352081004218348
  Basis Set: 6-31G*
  Basis Set:
  Basis Set: 6-31G*
  Basis Set:
  @DF-RHF Final Energy:  -232.13552982056089
    Total Energy =                       -232.1355298205607482
  Basis Set: 6-31G*
  Basis Set:
  Basis Set: 6-31G*
  Basis Set:
  @DF-RHF Final Energy:  -232.13562234604598
    Total Energy =                       -232.1356223460462047
  Basis Set: 6-31G*
  Basis Set:
  Basis Set: 6-31G*
  Basis Set:
  @DF-RHF Final Energy:  -232.13563692129588
    Total Energy =                       -232.1356369212959976
  Basis Set: 6-31G*
  Basis Set:
  Charge       = 0
  Multiplicity = 1
  Basis Set: 6-31G*
  Basis Set:

    Orbital Energies (a.u.)
    -----------------------

    Doubly Occupied:

       1A    -20.553652     2A    -11.268002     3A    -11.212946
       4A    -11.211458     5A    -11.199574     6A     -1.359955
       7A     -1.058396     8A     -0.970085     9A     -0.869219
      10A     -0.770685    11A     -0.705104    12A     -0.647882
      13A     -0.608377    14A     -0.568417    15A     -0.557672
      16A     -0.530979    17A     -0.513230    18A     -0.475265
      19A     -0.458891    20A     -0.451374    21A     -0.427671

  @DF-RHF Final Energy:  -232.13563768606087

   => Energetics <=

    Nuclear Repulsion Energy =            192.8200577009293397
    One-Electron Energy =                -697.0737195412532401
    Two-Electron Energy =                 272.1180241542629688
    DFT Exchange-Correlation Energy =       0.0000000000000000
    Empirical Dispersion Energy =           0.0000000000000000
    PCM Polarization Energy =               0.0000000000000000
    EFP Energy =                            0.0000000000000000
    Total Energy =                       -232.1356376860609316
    Molecular point group: c1
  Basis Set: 6-31G*
  Basis Set:

  -Total Gradient:
     Atom            X                  Y                   Z
    ------   -----------------  -----------------  -----------------
       1       -0.000005129675     0.000005845239    -0.000000240218
       2       -0.000020091812    -0.000017717396    -0.000052877128
       3       -0.000016691786     0.000004986615     0.000050320013
       4       -0.000368700057     0.002623589659    -0.002009744805
       5       -0.000018658599     0.000033034778    -0.000040018430
       6       -0.000007023893    -0.000002405411     0.000013636703
       7        0.000370025425    -0.002680147947     0.002010977627
       8        0.000314145022    -0.001814885003     0.001370092540
       9       -0.000003154799    -0.000026534889     0.000018172969
      10        0.000066832431     0.000000791170     0.000058333707
      11       -0.000268840882     0.001838014559    -0.001360504303
      12       -0.000014322452     0.000002490943    -0.000005231131
      13       -0.000004798542    -0.000007191674    -0.000013199321
      14       -0.000025941839     0.000030395608    -0.000027798204
      15        0.000002351460     0.000009733748    -0.000011920021

  **** Optimization is complete! (in 7 steps) ****
    Final optimized geometry and variables:
    Molecular point group: c1

    Geometry (in Angstrom), charge = 0, multiplicity = 1:

    H            1.301601017490    -0.985920263053     1.920124715546
    O            1.165594435536    -0.760619229396     1.010709431938
    C            0.690837379884     0.560048916203     0.916770776042
    C            0.435819725777     0.887348441178    -0.547234850657
    H            1.436433385359     1.252730253059     1.303087653653
    H           -0.209401696898     0.688469126689     1.512544102617
    C           -0.763353873159     0.182170325172    -1.239794119087
    H            1.353235275515     0.636814669557    -1.069677512115
    H            0.315488563595     1.964413869848    -0.622198626422
    C           -1.645621422009    -0.721593322945    -0.375329066236
    H           -0.390268585843    -0.392175834896    -2.081573347528
    H           -1.398731690762     0.946262588602    -1.680404933074
    H           -2.428758489936    -1.160685803011    -0.986254785004
    H           -1.076350450156    -1.523930737204     0.074808265942
    H           -2.133733870917    -0.165493880335     0.419846442451

  Mulliken Charges: (a.u.)
   Center  Symbol    Alpha    Beta     Spin     Total
       1     H     0.28096  0.28096  0.00000  0.43807
       2     O     4.36941  4.36941  0.00000 -0.73883
       3     C     3.00091  3.00091  0.00000 -0.00182
       4     C     3.16287  3.16287  0.00000 -0.32573
       5     H     0.42864  0.42864  0.00000  0.14273
       6     H     0.43004  0.43004  0.00000  0.13993
       7     C     3.15354  3.15354  0.00000 -0.30709
       8     H     0.41089  0.41089  0.00000  0.17822
       9     H     0.42163  0.42163  0.00000  0.15674
      10     C     3.24667  3.24667  0.00000 -0.49333
      11     H     0.41777  0.41777  0.00000  0.16445
      12     H     0.42331  0.42331  0.00000  0.15339
      13     H     0.42187  0.42187  0.00000  0.15626
      14     H     0.40482  0.40482  0.00000  0.19036
      15     H     0.42667  0.42667  0.00000  0.14666

   Total alpha = 21.00000, Total beta = 21.00000, Total charge =  0.00000
