  ==> Input File <==

--------------------------------------------------------------------------
set {
	reference rhf
	basis 6-31G*
}

set_num_threads( 1 )
memory 2 gb

molecule MOL {
0 1

O	 1.859379	 1.273495	 -0.220496
C	 1.705091	 0.115954	 0.001797
C	 0.381791	 -0.609817	 0.001258
O	 2.705751	 -0.709260	 0.282577
C	 -0.823008	 0.326187	 0.001381
H	 0.371250	 -1.265087	 -0.865474
H	 0.370908	 -1.265746	 0.867490
C	 -2.149452	 -0.435131	 -0.000098
H	 -0.770201	 0.977095	 -0.865636
H	 -0.771220	 0.975655	 0.869608
C	 -3.368779	 0.488503	 -0.000883
H	 -2.193746	 -1.087250	 -0.871175
H	 -2.195311	 -1.087803	 0.870418
C	 -4.693822	 -0.272754	 -0.001129
H	 -3.325798	 1.139422	 -0.871284
H	 -3.326423	 1.139959	 0.869145
H	 -4.781274	 -0.907928	 -0.878124
H	 -5.538651	 0.408946	 -0.001420
H	 -4.781694	 -0.907783	 0.875984
C	 4.007720	 -0.153488	 0.313370
H	 4.264515	 0.266432	 -0.648530
H	 4.671212	 -0.969284	 0.554475
H	 4.073851	 0.618199	 1.066783

	symmetry c1
}
set optking {
	frozen_dihedral = ("
		15 11 8 12,
		9 5 8 12,
		9 5 3 6,
		1 2 4 20
	")
}

ee = energy('scf')
oeprop('DIPOLE', 'QUADRUPOLE', 'MULLIKEN_CHARGES')
f=open( 'psi4out.xyz', 'w' )
f.write( "23  " )
f.write( str(ee) + "\n" )
f.write( MOL.save_string_xyz() )
f.close()
--------------------------------------------------------------------------

    Molecular point group: c1

    Geometry (in Angstrom), charge = 0, multiplicity = 1:

       Center              X                  Y                   Z               Mass
    ------------   -----------------  -----------------  -----------------  -----------------
           O          1.861748329696     1.269207599784    -0.264779072479    15.994914619560
           C          1.707460329696     0.111666599784    -0.042486072479    12.000000000000
           C          0.384160329696    -0.614104400216    -0.043025072479    12.000000000000
           O          2.708120329696    -0.713547400216     0.238293927521    15.994914619560
           C         -0.820638670304     0.321899599784    -0.042902072479    12.000000000000
           H          0.373619329696    -1.269374400216    -0.909757072479     1.007825032070
           H          0.373277329696    -1.270033400216     0.823206927521     1.007825032070
           C         -2.147082670304    -0.439418400216    -0.044381072479    12.000000000000
           H         -0.767831670304     0.972807599784    -0.909919072479     1.007825032070
           H         -0.768850670304     0.971367599784     0.825324927521     1.007825032070
           C         -3.366409670304     0.484215599784    -0.045166072479    12.000000000000
           H         -2.191376670304    -1.091537400216    -0.915458072479     1.007825032070
           H         -2.192941670304    -1.092090400216     0.826134927521     1.007825032070
           C         -4.691452670304    -0.277041400216    -0.045412072479    12.000000000000
           H         -3.323428670304     1.135134599784    -0.915567072479     1.007825032070
           H         -3.324053670304     1.135671599784     0.824861927521     1.007825032070
           H         -4.778904670304    -0.912215400216    -0.922407072479     1.007825032070
           H         -5.536281670304     0.404658599784    -0.045703072479     1.007825032070
           H         -4.779324670304    -0.912070400216     0.831700927521     1.007825032070
           C          4.010089329696    -0.157775400216     0.269086927521    12.000000000000
           H          4.266884329696     0.262144599784    -0.692813072479     1.007825032070
           H          4.673581329696    -0.973571400216     0.510191927521     1.007825032070
           H          4.076220329696     0.613911599784     1.022499927521     1.007825032070

  Charge       = 0
  Multiplicity = 1
  Basis Set: 6-31G*
  Basis Set:

    Orbital Energies (a.u.)
    -----------------------

    Doubly Occupied:

       1A    -20.603845     2A    -20.545222     3A    -11.372234
       4A    -11.280821     5A    -11.235367     6A    -11.219715
       7A    -11.218071     8A    -11.216615     9A    -11.209753
      10A     -1.469352    11A     -1.362703    12A     -1.093384
      13A     -1.043733    14A     -0.987081    15A     -0.932173
      16A     -0.843724    17A     -0.795235    18A     -0.767602
      19A     -0.696664    20A     -0.683677    21A     -0.671485
      22A     -0.651877    23A     -0.609056    24A     -0.599424
      25A     -0.572948    26A     -0.560888    27A     -0.554580
      28A     -0.524139    29A     -0.521350    30A     -0.507858
      31A     -0.484297    32A     -0.470191    33A     -0.466235
      34A     -0.461568    35A     -0.455707    36A     -0.435035

  @DF-RHF Final Energy:  -422.97613251649443

   => Energetics <=

    Nuclear Repulsion Energy =            452.1332528882003317
    One-Electron Energy =               -1471.9715144638948914
    Two-Electron Energy =                 596.8621290592002424
    DFT Exchange-Correlation Energy =       0.0000000000000000
    Empirical Dispersion Energy =           0.0000000000000000
    PCM Polarization Energy =               0.0000000000000000
    EFP Energy =                            0.0000000000000000
    Total Energy =                       -422.9761325164943173

  Mulliken Charges: (a.u.)
   Center  Symbol    Alpha    Beta     Spin     Total
       1     O     4.28610  4.28610  0.00000 -0.57219
       2     C     2.60453  2.60453  0.00000  0.79095
       3     C     3.20868  3.20868  0.00000 -0.41736
       4     O     4.30724  4.30724  0.00000 -0.61447
       5     C     3.15320  3.15320  0.00000 -0.30640
       6     H     0.39988  0.39988  0.00000  0.20024
       7     H     0.40121  0.40121  0.00000  0.19759
       8     C     3.15326  3.15326  0.00000 -0.30651
       9     H     0.40899  0.40899  0.00000  0.18201
      10     H     0.41417  0.41417  0.00000  0.17165
      11     C     3.15160  3.15160  0.00000 -0.30320
      12     H     0.42383  0.42383  0.00000  0.15235
      13     H     0.42395  0.42395  0.00000  0.15211
      14     C     3.23960  3.23960  0.00000 -0.47920
      15     H     0.42109  0.42109  0.00000  0.15783
      16     H     0.42157  0.42157  0.00000  0.15687
      17     H     0.42174  0.42174  0.00000  0.15652
      18     H     0.41845  0.41845  0.00000  0.16309
      19     H     0.42184  0.42184  0.00000  0.15633
      20     C     3.09259  3.09259  0.00000 -0.18519
      21     H     0.40909  0.40909  0.00000  0.18182
      22     H     0.40842  0.40842  0.00000  0.18316
      23     H     0.40899  0.40899  0.00000  0.18202

   Total alpha = 36.00000, Total beta = 36.00000, Total charge = -0.00000
