  ==> Input File <==

--------------------------------------------------------------------------
set {
	reference rhf
	basis 6-31G*
}

set_num_threads( 4 )
memory 2 gb

molecule MOL {
0 1

H	 -1.269557	 1.446147	 0.463210
C	 -0.675946	 0.537116	 0.570807
N	 0.538815	 0.649616	 0.000000
O	 -1.094497	 -0.427929	 1.138884
C	 1.521968	 -0.411503	 0.000000
H	 0.764137	 1.510700	 -0.442772
H	 2.150599	 -0.357004	 -0.881901
H	 0.999455	 -1.354525	 0.000000
H	 2.150599	 -0.357004	 0.881901

	symmetry c1
}
set optking {
	frozen_dihedral = ("
		6 3 5 7
	")
}

ee = optimize('scf')
oeprop('DIPOLE', 'QUADRUPOLE', 'MULLIKEN_CHARGES')
f=open( 'psi4out.xyz', 'w' )
f.write( "9  " )
f.write( str(ee) + "\n" )
f.write( MOL.save_string_xyz() )
f.close()
--------------------------------------------------------------------------

    Molecular point group: c1
  Charge       = 0
  Multiplicity = 1
  Basis Set: 6-31G*
  Basis Set:
  @DF-RHF Final Energy:  -207.96075867536518
    Total Energy =                       -207.9607586753650992
    Molecular point group: c1
  Basis Set: 6-31G*
  Basis Set:
  Basis Set: 6-31G*
  Basis Set:
  @DF-RHF Final Energy:  -207.96094743837074
    Total Energy =                       -207.9609474383709085
  Basis Set: 6-31G*
  Basis Set:
  Basis Set: 6-31G*
  Basis Set:
  @DF-RHF Final Energy:  -207.96094845373699
    Total Energy =                       -207.9609484537371031
  Basis Set: 6-31G*
  Basis Set:
  Basis Set: 6-31G*
  Basis Set:
  @DF-RHF Final Energy:  -207.96103312923839
    Total Energy =                       -207.9610331292383023
  Basis Set: 6-31G*
  Basis Set:
  @DF-RHF Final Energy:  -207.96104658474198
    Total Energy =                       -207.9610465847420642
  @DF-RHF Final Energy:  -207.96105473010385
    Total Energy =                       -207.9610547301038537
  Basis Set: 6-31G*
  Basis Set:
  @DF-RHF Final Energy:  -207.96106086720647
    Total Energy =                       -207.9610608672064984
  Basis Set: 6-31G*
  Basis Set:
  Basis Set: 6-31G*
  Basis Set:
  @DF-RHF Final Energy:  -207.96106523819435
    Total Energy =                       -207.9610652381942941
  Basis Set: 6-31G*
  Basis Set:
  Basis Set: 6-31G*
  Basis Set:
  @DF-RHF Final Energy:  -207.96106784068277
    Total Energy =                       -207.9610678406828015
  Basis Set: 6-31G*
  Basis Set:
  Charge       = 0
  Multiplicity = 1
  Basis Set: 6-31G*
  Basis Set:

    Orbital Energies (a.u.)
    -----------------------

    Doubly Occupied:

       1A    -20.526141     2A    -15.590550     3A    -11.343282
       4A    -11.260915     5A     -1.389436     6A     -1.236176
       7A     -0.967967     8A     -0.807676     9A     -0.746475
      10A     -0.641334    11A     -0.626704    12A     -0.592700
      13A     -0.556823    14A     -0.533996    15A     -0.424031
      16A     -0.391179

  @DF-RHF Final Energy:  -207.96106820931914

   => Energetics <=

    Nuclear Repulsion Energy =            122.6278749129663055
    One-Electron Energy =                -525.9071183488663337
    Two-Electron Energy =                 195.3181752265807916
    DFT Exchange-Correlation Energy =       0.0000000000000000
    Empirical Dispersion Energy =           0.0000000000000000
    PCM Polarization Energy =               0.0000000000000000
    EFP Energy =                            0.0000000000000000
    Total Energy =                       -207.9610682093192224
    Molecular point group: c1
  Basis Set: 6-31G*
  Basis Set:

  -Total Gradient:
     Atom            X                  Y                   Z
    ------   -----------------  -----------------  -----------------
       1       -0.000000330418     0.000001621331     0.000002741945
       2       -0.000010870800    -0.000013576318    -0.000033397112
       3        0.000030644129     0.000026619393     0.000060977686
       4       -0.000001439327    -0.000001751698    -0.000000592505
       5       -0.000014451260    -0.000007523340    -0.000019150579
       6       -0.000006830145    -0.000005228755    -0.000012292129
       7       -0.000004430904    -0.000005364512    -0.000004558789
       8        0.000000060408    -0.000001326371     0.000011003057
       9        0.000007648320     0.000006530271    -0.000004731573

  **** Optimization is complete! (in 10 steps) ****
    Final optimized geometry and variables:
    Molecular point group: c1

    Geometry (in Angstrom), charge = 0, multiplicity = 1:

    H           -1.365581844134     1.363382856660     0.042697065431
    C           -0.757546289954     0.463940269739     0.151731329395
    N            0.423627612458     0.553619130644    -0.488129971999
    O           -1.135034936483    -0.487597414771     0.769143052866
    C            1.414621246987    -0.499465858879    -0.429241332504
    H            0.670247401424     1.425517476171    -0.896148570831
    H            2.090876509976    -0.396143578937    -1.267587416071
    H            0.921306212276    -1.457876884310    -0.490998411620
    H            1.987270460432    -0.465536069094     0.491691803210

  Mulliken Charges: (a.u.)
   Center  Symbol    Alpha    Beta     Spin     Total
       1     H     0.42703  0.42703  0.00000  0.14593
       2     C     2.74680  2.74680  0.00000  0.50640
       3     N     3.87437  3.87437  0.00000 -0.74873
       4     O     4.28316  4.28316  0.00000 -0.56632
       5     C     3.13908  3.13908  0.00000 -0.27817
       6     H     0.30875  0.30875  0.00000  0.38250
       7     H     0.41503  0.41503  0.00000  0.16993
       8     H     0.39455  0.39455  0.00000  0.21091
       9     H     0.41122  0.41122  0.00000  0.17755

   Total alpha = 16.00000, Total beta = 16.00000, Total charge = -0.00000
