  ==> Input File <==

--------------------------------------------------------------------------
set {
	reference rhf
	basis cc-pvtz
}

set_num_threads( 4 )
memory 2 gb

molecule MOL {
0 1

H	 -2.303282	 -0.450495	 -1.624868
O	 -2.294770	 -0.257990	 -0.705211
C	 -1.161719	 0.497011	 -0.379157
C	 0.094859	 -0.350628	 -0.396803
H	 -1.039467	 1.342614	 -1.048588
H	 -1.318429	 0.887281	 0.616239
O	 1.172093	 0.457955	 -0.054438
H	 0.239661	 -0.780851	 -1.389192
H	 -0.013444	 -1.175792	 0.303875
C	 2.395478	 -0.199028	 -0.000366
H	 2.505946	 -0.901710	 -0.823354
H	 3.174616	 0.545641	 -0.071768
H	 2.513730	 -0.742241	 0.934223

	symmetry c1
}
set optking {
	frozen_dihedral = ("
		4 7 10 13
	")
}

ee = optimize('scf')
oeprop('DIPOLE', 'QUADRUPOLE', 'MULLIKEN_CHARGES')
f=open( 'psi4out.xyz', 'w' )
f.write( "13  " )
f.write( str(ee) + "\n" )
f.write( MOL.save_string_xyz() )
f.close()
--------------------------------------------------------------------------

    Molecular point group: c1
  Charge       = 0
  Multiplicity = 1
  Basis Set: CC-PVTZ
  Basis Set:
  @DF-RHF Final Energy:  -268.06143307313590
    Total Energy =                       -268.0614330731356176
    Molecular point group: c1
  Basis Set: CC-PVTZ
  Basis Set:
  Basis Set: CC-PVTZ
  Basis Set:
  @DF-RHF Final Energy:  -268.06147150250706
    Total Energy =                       -268.0614715025072883
  Basis Set: CC-PVTZ
  Basis Set:
  Charge       = 0
  Multiplicity = 1
  Basis Set: CC-PVTZ
  Basis Set:

    Orbital Energies (a.u.)
    -----------------------

    Doubly Occupied:

       1A    -20.555274     2A    -20.552809     3A    -11.269382
       4A    -11.267636     5A    -11.267358     6A     -1.390989
       7A     -1.369096     8A     -1.019727     9A     -0.914071
      10A     -0.842682    11A     -0.711636    12A     -0.676148
      13A     -0.662915    14A     -0.638111    15A     -0.598763
      16A     -0.570064    17A     -0.548448    18A     -0.490711
      19A     -0.483746    20A     -0.441597    21A     -0.423495

  @DF-RHF Final Energy:  -268.06147522489152

   => Energetics <=

    Nuclear Repulsion Energy =            190.4156051030620063
    One-Electron Energy =                -743.5648414783797762
    Two-Electron Energy =                 285.0877611504264451
    DFT Exchange-Correlation Energy =       0.0000000000000000
    Empirical Dispersion Energy =           0.0000000000000000
    PCM Polarization Energy =               0.0000000000000000
    EFP Energy =                            0.0000000000000000
    Total Energy =                       -268.0614752248912964
    Molecular point group: c1
  Basis Set: CC-PVTZ
  Basis Set:

  -Total Gradient:
     Atom            X                  Y                   Z
    ------   -----------------  -----------------  -----------------
       1        0.000016780143     0.000009352824     0.000004777641
       2        0.000049920767    -0.000013638504     0.000046431089
       3        0.000019975181     0.000034934401    -0.000010976205
       4        0.000265064255     0.000331906555    -0.001959743639
       5        0.000010727427     0.000006233500     0.000005494391
       6       -0.000035633139     0.000004594700     0.000002332778
       7       -0.000126491994    -0.000019223235     0.002893480780
       8       -0.000017536267    -0.000006807701     0.000008768754
       9        0.000001291169     0.000009234866     0.000018767544
      10       -0.001154893535    -0.002299626867    -0.001975813372
      11       -0.000017794633     0.000020224176    -0.000027897706
      12       -0.000024120089    -0.000011593894     0.000002293193
      13        0.001012710718     0.001934409177     0.000992084752

  **** Optimization is complete! (in 3 steps) ****
    Final optimized geometry and variables:
    Molecular point group: c1

    Geometry (in Angstrom), charge = 0, multiplicity = 1:

    H           -2.330814514063    -0.460762292605    -1.298214275398
    O           -2.320701461656    -0.269834790224    -0.378240838907
    C           -1.184801171820     0.481009041485    -0.052533783165
    C            0.068879781427    -0.370673684766    -0.073901197612
    H           -1.060311711879     1.327265580024    -0.720796298277
    H           -1.339130084442     0.870305344365     0.943607996552
    O            1.149556331393     0.437152623093     0.260695824990
    H            0.209127690624    -0.802351852528    -1.065777631066
    H           -0.040988971693    -1.194411435016     0.628541626277
    C            2.375869405370    -0.216449134952     0.323798371578
    H            2.501489442236    -0.915841925841    -0.498179354162
    H            3.153227950747     0.532110502628     0.261671303275
    H            2.492338130137    -0.748290769809     1.264699221295

  Mulliken Charges: (a.u.)
   Center  Symbol    Alpha    Beta     Spin     Total
       1     H     0.39408  0.39408  0.00000  0.21184
       2     O     4.20212  4.20212  0.00000 -0.40424
       3     C     2.97383  2.97383  0.00000  0.05234
       4     C     2.96510  2.96510  0.00000  0.06979
       5     H     0.46711  0.46711  0.00000  0.06578
       6     H     0.45256  0.45256  0.00000  0.09488
       7     O     4.17658  4.17658  0.00000 -0.35316
       8     H     0.48081  0.48081  0.00000  0.03839
       9     H     0.47062  0.47062  0.00000  0.05876
      10     C     3.03074  3.03074  0.00000 -0.06148
      11     H     0.47282  0.47282  0.00000  0.05435
      12     H     0.44806  0.44806  0.00000  0.10389
      13     H     0.46557  0.46557  0.00000  0.06886

   Total alpha = 21.00000, Total beta = 21.00000, Total charge = -0.00000
