                              Psi4 1.0.54 Driver

  ==> Input File <==

--------------------------------------------------------------------------
set {
	reference rhf
	basis cc-pvtz
}

set_num_threads( 4 )
memory 2 gb

molecule MOL {
0 1

O	 0.837178	 1.135566	 0.571674
C	 0.576499	 0.134701	 -0.003900
C	 -0.765656	 -0.550508	 -0.002152
O	 1.455389	 -0.532143	 -0.733861
C	 -1.945526	 0.411052	 0.000603
H	 -0.794329	 -1.203792	 -0.868145
H	 -0.791555	 -1.205429	 0.862701
C	 -3.282915	 -0.321280	 0.002596
H	 -1.880300	 1.059126	 -0.864925
H	 -1.877207	 1.057892	 0.866807
H	 -3.388495	 -0.952755	 -0.873419
H	 -4.107811	 0.380864	 0.004116
H	 -3.385717	 -0.953283	 0.878571
C	 2.762984	 -0.002196	 -0.819664
H	 2.746145	 0.984735	 -1.257545
H	 3.317181	 -0.679395	 -1.448914
H	 3.216546	 0.053706	 0.158702

	symmetry c1
}
set optking {
	frozen_dihedral = ("
		1 2 3 6
	")
}

ee,wfn = optimize('scf', return_wfn=True)
oeprop( wfn, 'DIPOLE', 'QUADRUPOLE', 'MULLIKEN_CHARGES')
f=open( 'psi4out.xyz', 'w' )
f.write( "17  " )
f.write( str(ee) + "\n" )
f.write( MOL.save_string_xyz() )
f.close()
--------------------------------------------------------------------------

    Molecular point group: c1
  Charge       = 0
  Multiplicity = 1
  Basis Set: CC-PVTZ
  Basis Set:
  @DF-RHF Final Energy:  -345.03425096143570
    Total Energy =                       -345.0342509614357596
    Molecular point group: c1
  Basis Set: CC-PVTZ
  Basis Set:
  Basis Set: CC-PVTZ
  Basis Set:
  @DF-RHF Final Energy:  -344.41256654386115
    Total Energy =                       -344.4125665438610895
  Basis Set: CC-PVTZ
  Basis Set:
  Basis Set: CC-PVTZ
  Basis Set:
  @DF-RHF Final Energy:  -344.62880527145455
    Total Energy =                       -344.6288052714545529
  Basis Set: CC-PVTZ
  Basis Set:
  Basis Set: CC-PVTZ
  Basis Set:
  @DF-RHF Final Energy:  -344.93656925998732
    Total Energy =                       -344.9365692599873796
  Basis Set: CC-PVTZ
  Basis Set:
  @DF-RHF Final Energy:  -345.02325869006245
    Total Energy =                       -345.0232586900623346
  @DF-RHF Final Energy:  -345.03143802751549
    Total Energy =                       -345.0314380275160602
  @DF-RHF Final Energy:  -345.03418275061409
    Total Energy =                       -345.0341827506140362
  @DF-RHF Final Energy:  -345.03355022747581
    Total Energy =                       -345.0335502274760984
  Basis Set: CC-PVTZ
  Basis Set:
  @DF-RHF Final Energy:  -345.03458862241445
    Total Energy =                       -345.0345886224143896
  Basis Set: CC-PVTZ
  Basis Set:
  Basis Set: CC-PVTZ
  Basis Set:
  @DF-RHF Final Energy:  -345.03460905503334
    Total Energy =                       -345.0346090550335703
  Basis Set: CC-PVTZ
  Basis Set:
  Basis Set: CC-PVTZ
  Basis Set:
  @DF-RHF Final Energy:  -345.03461279767043
    Total Energy =                       -345.0346127976699790
  Basis Set: CC-PVTZ
  Basis Set:
  Charge       = 0
  Multiplicity = 1
  Basis Set: CC-PVTZ
  Basis Set:

    Orbital Energies (a.u.)
    -----------------------

    Doubly Occupied:

       1A    -20.598315     2A    -20.532785     3A    -11.364904
       4A    -11.278842     5A    -11.233750     6A    -11.222599
       7A    -11.213541     8A     -1.473002     9A     -1.365590
      10A     -1.082015    11A     -1.002265    12A     -0.941247
      13A     -0.828441    14A     -0.771448    15A     -0.701944
      16A     -0.685511    17A     -0.676064    18A     -0.637795
      19A     -0.596367    20A     -0.580219    21A     -0.565295
      22A     -0.531848    23A     -0.524696    24A     -0.501806
      25A     -0.486855    26A     -0.479555    27A     -0.460502
      28A     -0.439619

  @DF-RHF Final Energy:  -345.03461317790408

   => Energetics <=

    Nuclear Repulsion Energy =            313.0309264463157319
    One-Electron Energy =               -1090.5774433721771857
    Two-Electron Energy =                 432.5119037479572626
    DFT Exchange-Correlation Energy =       0.0000000000000000
    Empirical Dispersion Energy =           0.0000000000000000
    PCM Polarization Energy =               0.0000000000000000
    EFP Energy =                            0.0000000000000000
    Total Energy =                       -345.0346131779041343
    Molecular point group: c1
  Basis Set: CC-PVTZ
  Basis Set:

  -Total Gradient:
     Atom            X                  Y                   Z
    ------   -----------------  -----------------  -----------------
       1        0.000164907590    -0.001068272685     0.000226644448
       2       -0.000239807694     0.001283593272    -0.000355534610
       3       -0.000285125843     0.000785631907     0.000200534301
       4        0.000057831338     0.000001252987    -0.000023822976
       5        0.000010296459    -0.000000463963    -0.000017780240
       6        0.000323996513    -0.001006406522    -0.000037599726
       7        0.000002375197     0.000002090401    -0.000002674734
       8       -0.000010744709     0.000001588531     0.000018422778
       9       -0.000006851701    -0.000004897436     0.000008134072
      10       -0.000008931403     0.000005489874     0.000006118527
      11        0.000006145395     0.000000458665     0.000000397053
      12        0.000006287649    -0.000005206620    -0.000005067106
      13        0.000003635251     0.000007758568    -0.000003020583
      14       -0.000004468295    -0.000003927846    -0.000023394884
      15        0.000004037774    -0.000016365766     0.000000208399
      16       -0.000017567472     0.000002546085     0.000021592427
      17       -0.000006016041     0.000015130548    -0.000013157150

  **** Optimization is complete! (in 12 steps) ****
    Final optimized geometry and variables:
    Molecular point group: c1

    Geometry (in Angstrom), charge = 0, multiplicity = 1:

    O            0.878212431424     0.343790540278     1.212774645141
    C            0.590454276763    -0.045291705907     0.131927035509
    C           -0.797615001210    -0.454542231655    -0.292371277245
    O            1.474827311240    -0.209066143575    -0.836758273358
    C           -1.896602607728     0.374999710748     0.363203478725
    H           -0.860281633160    -0.425533063928    -1.371820868408
    H           -0.900550730204    -1.498277587398    -0.006238931477
    C           -3.289983787218    -0.104583008896    -0.027045578331
    H           -1.776673449525     1.415580815012     0.079328287343
    H           -1.775745716874     0.335184013647     1.437607560011
    H           -3.441077060817    -0.050892673252    -1.100075740450
    H           -4.053483546606     0.502184999017     0.444644421187
    H           -3.450216011549    -1.133411287828     0.277923531565
    C            2.825144304245     0.083177512367    -0.537187053584
    H            2.935749322806     1.117640395555    -0.248232522381
    H            3.379209961989    -0.112784362813    -1.440707351988
    H            3.182534265415    -0.546613858183     0.263920713128

  Mulliken Charges: (a.u.)
   Center  Symbol    Alpha    Beta     Spin     Total
       1     O     4.20059  4.20059  0.00000 -0.40118
       2     C     2.81305  2.81305  0.00000  0.37391
       3     C     3.08710  3.08710  0.00000 -0.17421
       4     O     4.14408  4.14408  0.00000 -0.28816
       5     C     3.08262  3.08262  0.00000 -0.16523
       6     H     0.43843  0.43843  0.00000  0.12315
       7     H     0.44596  0.44596  0.00000  0.10807
       8     C     3.15113  3.15113  0.00000 -0.30226
       9     H     0.45171  0.45171  0.00000  0.09658
      10     H     0.44025  0.44025  0.00000  0.11950
      11     H     0.45573  0.45573  0.00000  0.08854
      12     H     0.44581  0.44581  0.00000  0.10837
      13     H     0.45470  0.45470  0.00000  0.09059
      14     C     3.03523  3.03523  0.00000 -0.07046
      15     H     0.45418  0.45418  0.00000  0.09164
      16     H     0.44503  0.44503  0.00000  0.10994
      17     H     0.45439  0.45439  0.00000  0.09123

   Total alpha = 28.00000, Total beta = 28.00000, Total charge = -0.00000

*** Psi4 exiting successfully. Buy a developer a beer!
