  ==> Input File <==

--------------------------------------------------------------------------
set {
	reference rhf
	basis 6-31G*
}

set_num_threads( 1 )
memory 2 gb

molecule MOL {
0 1

H	 -3.684340	 1.286374	 -0.261175
C	 -2.975571	 0.676671	 0.264726
C	 -2.076860	 -0.007332	 -0.404944
H	 -3.022688	 0.643496	 1.336915
O	 -1.180634	 -0.819263	 0.215062
H	 -2.008340	 0.017887	 -1.478194
C	 0.051604	 -1.018856	 -0.387932
C	 1.043764	 0.054862	 -0.001873
H	 -0.017620	 -1.041351	 -1.469781
H	 0.437898	 -1.966374	 -0.042284
F	 2.212596	 -0.199467	 -0.571921
F	 0.652529	 1.252447	 -0.405055
F	 1.230877	 0.110694	 1.300533

	symmetry c1
}
set optking {
	frozen_dihedral = ("
		11 8 7 9,
		3 5 7 9,
		6 3 2 1
	")
}

ee = energy('scf')
oeprop('DIPOLE', 'QUADRUPOLE', 'MULLIKEN_CHARGES')
f=open( 'psi4out.xyz', 'w' )
f.write( "13  " )
f.write( str(ee) + "\n" )
f.write( MOL.save_string_xyz() )
f.close()
--------------------------------------------------------------------------

    Molecular point group: c1

    Geometry (in Angstrom), charge = 0, multiplicity = 1:

       Center              X                  Y                   Z               Mass
    ------------   -----------------  -----------------  -----------------  -----------------
           H         -3.708847027087     1.251463184671    -0.271467757538     1.007825032070
           C         -3.000078027087     0.641760184671     0.254433242462    12.000000000000
           C         -2.101367027087    -0.042242815329    -0.415236757538    12.000000000000
           H         -3.047195027087     0.608585184671     1.326622242462     1.007825032070
           O         -1.205141027087    -0.854173815329     0.204769242462    15.994914619560
           H         -2.032847027087    -0.017023815329    -1.488486757538     1.007825032070
           C          0.027096972913    -1.053766815329    -0.398224757538    12.000000000000
           C          1.019256972913     0.019951184671    -0.012165757538    12.000000000000
           H         -0.042127027087    -1.076261815329    -1.480073757538     1.007825032070
           H          0.413390972913    -2.001284815329    -0.052576757538     1.007825032070
           F          2.188088972913    -0.234377815329    -0.582213757538    18.998403224000
           F          0.628021972913     1.217536184671    -0.415347757538    18.998403224000
           F          1.206369972913     0.075783184671     1.290240242462    18.998403224000

  Charge       = 0
  Multiplicity = 1
  Basis Set: 6-31G*
  Basis Set:

    Orbital Energies (a.u.)
    -----------------------

    Doubly Occupied:

       1A    -26.343387     2A    -26.341059     3A    -26.339542
       4A    -20.606700     5A    -11.501792     6A    -11.317918
       7A    -11.298405     8A    -11.217558     9A     -1.740146
      10A     -1.638295    11A     -1.636581    12A     -1.437029
      13A     -1.083158    14A     -1.016338    15A     -0.924143
      16A     -0.835498    17A     -0.829362    18A     -0.818429
      19A     -0.792839    20A     -0.717837    21A     -0.710680
      22A     -0.692963    23A     -0.675337    24A     -0.661130
      25A     -0.653317    26A     -0.641565    27A     -0.638653
      28A     -0.582249    29A     -0.564256    30A     -0.525422
      31A     -0.504490    32A     -0.354893

  @DF-RHF Final Energy:  -527.53553314246972

   => Energetics <=

    Nuclear Repulsion Energy =            414.8148051771491964
    One-Electron Energy =               -1553.4186158611464634
    Two-Electron Energy =                 611.0682775415275501
    DFT Exchange-Correlation Energy =       0.0000000000000000
    Empirical Dispersion Energy =           0.0000000000000000
    PCM Polarization Energy =               0.0000000000000000
    EFP Energy =                            0.0000000000000000
    Total Energy =                       -527.5355331424698306

  Mulliken Charges: (a.u.)
   Center  Symbol    Alpha    Beta     Spin     Total
       1     H     0.40719  0.40719  0.00000  0.18562
       2     C     3.22944  3.22944  0.00000 -0.45887
       3     C     2.89982  2.89982  0.00000  0.20036
       4     H     0.40102  0.40102  0.00000  0.19795
       5     O     4.30186  4.30186  0.00000 -0.60371
       6     H     0.40876  0.40876  0.00000  0.18249
       7     C     3.06132  3.06132  0.00000 -0.12265
       8     C     2.45576  2.45576  0.00000  1.08848
       9     H     0.40679  0.40679  0.00000  0.18641
      10     H     0.39139  0.39139  0.00000  0.21722
      11     F     4.68298  4.68298  0.00000 -0.36597
      12     F     4.67888  4.67888  0.00000 -0.35776
      13     F     4.67479  4.67479  0.00000 -0.34958

   Total alpha = 32.00000, Total beta = 32.00000, Total charge = -0.00000
