  ==> Input File <==

--------------------------------------------------------------------------
set {
	reference rhf
	basis 6-31G*
}

set_num_threads( 4 )
memory 2 gb

molecule MOL {
0 1

O	 0.391030	 1.298905	 0.000133
C	 0.503002	 0.111612	 0.000005
C	 -0.702327	 -0.811998	 -0.000075
C	 1.863306	 -0.554493	 0.000030
C	 -1.945432	 -0.193513	 -0.628023
H	 -0.421673	 -1.727192	 -0.518172
H	 -0.895628	 -1.108821	 1.029146
H	 -1.763599	 0.080208	 -1.660124
H	 -2.771945	 -0.895919	 -0.600481
H	 -2.241758	 0.704060	 -0.099088
H	 1.974395	 -1.189404	 -0.874166
H	 2.638695	 0.198920	 -0.000196
H	 1.974487	 -1.188655	 0.874727

	symmetry c1
}
set optking {
	frozen_dihedral = ("
		6 3 2 1
	")
}

ee = optimize('scf')
oeprop('DIPOLE', 'QUADRUPOLE', 'MULLIKEN_CHARGES')
f=open( 'psi4out.xyz', 'w' )
f.write( "13  " )
f.write( str(ee) + "\n" )
f.write( MOL.save_string_xyz() )
f.close()
--------------------------------------------------------------------------

    Molecular point group: c1
  Charge       = 0
  Multiplicity = 1
  Basis Set: 6-31G*
  Basis Set:
  @DF-RHF Final Energy:  -230.99677769282727
    Total Energy =                       -230.9967776928269814
    Molecular point group: c1
  Basis Set: 6-31G*
  Basis Set:
  Basis Set: 6-31G*
  Basis Set:
  @DF-RHF Final Energy:  -230.99546964741413
    Total Energy =                       -230.9954696474140974
  Basis Set: 6-31G*
  Basis Set:
  Basis Set: 6-31G*
  Basis Set:
  @DF-RHF Final Energy:  -230.99703034879994
    Total Energy =                       -230.9970303488000809
  Basis Set: 6-31G*
  Basis Set:
  Basis Set: 6-31G*
  Basis Set:
  @DF-RHF Final Energy:  -230.99716992409887
    Total Energy =                       -230.9971699240988983
  Basis Set: 6-31G*
  Basis Set:
  Basis Set: 6-31G*
  Basis Set:
  @DF-RHF Final Energy:  -230.99718590257763
    Total Energy =                       -230.9971859025778258
  Basis Set: 6-31G*
  Basis Set:
  Basis Set: 6-31G*
  Basis Set:
  @DF-RHF Final Energy:  -230.99719387991325
    Total Energy =                       -230.9971938799134819
  Basis Set: 6-31G*
  Basis Set:
  Charge       = 0
  Multiplicity = 1
  Basis Set: 6-31G*
  Basis Set:

    Orbital Energies (a.u.)
    -----------------------

    Doubly Occupied:

       1A    -20.550327     2A    -11.326988     3A    -11.234848
       4A    -11.229402     5A    -11.215796     6A     -1.396139
       7A     -1.061613     8A     -1.000556     9A     -0.878822
      10A     -0.730264    11A     -0.658286    12A     -0.640546
      13A     -0.618998    14A     -0.584875    15A     -0.570968
      16A     -0.523347    17A     -0.517271    18A     -0.506124
      19A     -0.482437    20A     -0.402056

  @DF-RHF Final Energy:  -230.99719404152162

   => Energetics <=

    Nuclear Repulsion Energy =            176.8724532455292149
    One-Electron Energy =                -663.4799709622628825
    Two-Electron Energy =                 255.6103236752118733
    DFT Exchange-Correlation Energy =       0.0000000000000000
    Empirical Dispersion Energy =           0.0000000000000000
    PCM Polarization Energy =               0.0000000000000000
    EFP Energy =                            0.0000000000000000
    Total Energy =                       -230.9971940415218228
    Molecular point group: c1
  Basis Set: 6-31G*
  Basis Set:

  -Total Gradient:
     Atom            X                  Y                   Z
    ------   -----------------  -----------------  -----------------
       1       -0.000017459001     0.000028998480     0.001500133310
       2        0.000124716040    -0.000165687002    -0.001810634666
       3       -0.000559631238     0.000680518356    -0.000995571146
       4       -0.000008687660     0.000004762253     0.000003727106
       5        0.000006280701     0.000004902276    -0.000001805424
       6        0.000455541432    -0.000545889341     0.001304997554
       7       -0.000000921641     0.000002195582    -0.000001490691
       8       -0.000000186907    -0.000000258891    -0.000000520790
       9        0.000005670454    -0.000001064009     0.000003793921
      10       -0.000003870574     0.000007308080     0.000000418621
      11       -0.000000698637    -0.000004170842    -0.000003519764
      12       -0.000000952980    -0.000007349388    -0.000001047686
      13        0.000000200010    -0.000004265557     0.000001519656

  **** Optimization is complete! (in 7 steps) ****
    Final optimized geometry and variables:
    Molecular point group: c1

    Geometry (in Angstrom), charge = 0, multiplicity = 1:

    O            0.370697207430     1.320602927467     0.070754267747
    C            0.489073737911     0.134281578486     0.107015511878
    C           -0.716717817735    -0.789475568735     0.134265475663
    C            1.849676279620    -0.525058923064     0.167928648880
    C           -1.975198792365    -0.168851329926    -0.462653992740
    H           -0.465302722103    -1.729594240238    -0.349130070392
    H           -0.882796212649    -1.038819155294     1.182262210044
    H           -1.835904951344     0.059785940146    -1.513728733710
    H           -2.813617287248    -0.851505915625    -0.373903302457
    H           -2.225546990572     0.753245780242     0.045031228239
    H            2.041489385282    -1.052235761599    -0.762849299468
    H            2.615444660164     0.223035191810     0.318561177290
    H            1.888094542756    -1.259285535588     0.967188011005

  Mulliken Charges: (a.u.)
   Center  Symbol    Alpha    Beta     Spin     Total
       1     O     4.26170  4.26170  0.00000 -0.52340
       2     C     2.73542  2.73542  0.00000  0.52916
       3     C     3.20761  3.20761  0.00000 -0.41522
       4     C     3.28808  3.28808  0.00000 -0.57617
       5     C     3.23770  3.23770  0.00000 -0.47539
       6     H     0.41314  0.41314  0.00000  0.17372
       7     H     0.40489  0.40489  0.00000  0.19022
       8     H     0.41566  0.41566  0.00000  0.16869
       9     H     0.41879  0.41879  0.00000  0.16243
      10     H     0.40396  0.40396  0.00000  0.19208
      11     H     0.40652  0.40652  0.00000  0.18697
      12     H     0.39665  0.39665  0.00000  0.20671
      13     H     0.40990  0.40990  0.00000  0.18020

   Total alpha = 20.00000, Total beta = 20.00000, Total charge =  0.00000
