                              Psi4 1.0.54 Driver

  ==> Input File <==

--------------------------------------------------------------------------
set {
	reference rhf
	basis cc-pvtz
}

set_num_threads( 4 )
memory 2 gb

molecule MOL {
0 1

H	 2.556301	 -0.903777	 0.749101
N	 2.433987	 -0.362316	 -0.080024
C	 1.263552	 0.494993	 0.021953
H	 2.340742	 -1.003821	 -0.839704
C	 -0.016533	 -0.325589	 -0.026925
H	 1.280915	 1.180773	 -0.818522
H	 1.263064	 1.106893	 0.925038
C	 -1.280353	 0.525521	 0.047747
H	 -0.016686	 -0.912532	 -0.939714
H	 -0.014099	 -1.037598	 0.796369
C	 -2.560681	 -0.301323	 -0.007747
H	 -1.279957	 1.241025	 -0.770189
H	 -1.270445	 1.110526	 0.963468
H	 -2.617064	 -0.872870	 -0.928010
H	 -3.439525	 0.331102	 0.043462
H	 -2.609427	 -1.002736	 0.818585

	symmetry c1
}
set optking {
	frozen_dihedral = ("
		1 2 3 6
	")
}

ee,wfn = optimize('scf', return_wfn=True)
oeprop( wfn, 'DIPOLE', 'QUADRUPOLE', 'MULLIKEN_CHARGES')
f=open( 'psi4out.xyz', 'w' )
f.write( "16  " )
f.write( str(ee) + "\n" )
f.write( MOL.save_string_xyz() )
f.close()
--------------------------------------------------------------------------

    Molecular point group: c1
  Charge       = 0
  Multiplicity = 1
  Basis Set: CC-PVTZ
  Basis Set:
  @DF-RHF Final Energy:  -212.39804236321010
    Total Energy =                       -212.3980423632101520
    Molecular point group: c1
  Basis Set: CC-PVTZ
  Basis Set:
  Basis Set: CC-PVTZ
  Basis Set:
  @DF-RHF Final Energy:  -212.39795581729732
    Total Energy =                       -212.3979558172973725
  Basis Set: CC-PVTZ
  Basis Set:
  Basis Set: CC-PVTZ
  Basis Set:
  @DF-RHF Final Energy:  -212.40008931828589
    Total Energy =                       -212.4000893182859500
  Basis Set: CC-PVTZ
  Basis Set:
  Basis Set: CC-PVTZ
  Basis Set:
  @DF-RHF Final Energy:  -212.40014083609745
    Total Energy =                       -212.4001408360974210
  Basis Set: CC-PVTZ
  Basis Set:
  Basis Set: CC-PVTZ
  Basis Set:
  @DF-RHF Final Energy:  -212.40014392389045
    Total Energy =                       -212.4001439238904823
  Basis Set: CC-PVTZ
  Basis Set:
  Charge       = 0
  Multiplicity = 1
  Basis Set: CC-PVTZ
  Basis Set:

    Orbital Energies (a.u.)
    -----------------------

    Doubly Occupied:

       1A    -15.526108     2A    -11.238082     3A    -11.215430
       4A    -11.211016     5A    -11.208444     6A     -1.178381
       7A     -1.062752     8A     -0.960127     9A     -0.848358
      10A     -0.796773    11A     -0.679503    12A     -0.626687
      13A     -0.598461    14A     -0.588781    15A     -0.553683
      16A     -0.527455    17A     -0.499571    18A     -0.489889
      19A     -0.471465    20A     -0.465834    21A     -0.378296

  @DF-RHF Final Energy:  -212.40014429117818

   => Energetics <=

    Nuclear Repulsion Energy =            186.3679348851570978
    One-Electron Energy =                -655.2859689594581596
    Two-Electron Energy =                 256.5178897831231097
    DFT Exchange-Correlation Energy =       0.0000000000000000
    Empirical Dispersion Energy =           0.0000000000000000
    PCM Polarization Energy =               0.0000000000000000
    EFP Energy =                            0.0000000000000000
    Total Energy =                       -212.4001442911779804
    Molecular point group: c1
  Basis Set: CC-PVTZ
  Basis Set:

  -Total Gradient:
     Atom            X                  Y                   Z
    ------   -----------------  -----------------  -----------------
       1        0.000667288435     0.000726765907     0.000387932477
       2       -0.000722683209    -0.000763807032    -0.000359328472
       3       -0.000576161996    -0.000543439026    -0.000539586916
       4       -0.000009965369     0.000002992030    -0.000003764506
       5        0.000073358693    -0.000021732281     0.000014617457
       6        0.000579543458     0.000602598534     0.000477056392
       7        0.000014259012     0.000000820993     0.000019590674
       8        0.000003469086     0.000004816276    -0.000006083120
       9       -0.000004305937    -0.000007408852     0.000004902092
      10       -0.000007334524    -0.000025447518     0.000011067254
      11        0.000005268204     0.000004429581    -0.000002360554
      12       -0.000004517305     0.000020689998    -0.000007283173
      13       -0.000000457056     0.000003652355     0.000010670936
      14       -0.000004616975    -0.000014995841    -0.000014285606
      15       -0.000013503224     0.000010551537     0.000000054226
      16        0.000000358708    -0.000000486661     0.000006800838

  **** Optimization is complete! (in 6 steps) ****
    Final optimized geometry and variables:
    Molecular point group: c1

    Geometry (in Angstrom), charge = 0, multiplicity = 1:

    H            2.524437563207    -1.192594011078     0.607140770916
    N            2.417668937339    -0.653232248390    -0.225709237300
    C            1.319260646079     0.289022967280    -0.104433701115
    H            2.270106749372    -1.289468471851    -0.980661289335
    C           -0.073494925101    -0.327145464170    -0.003325503240
    H            1.359334164893     0.963533303046    -0.953806484289
    H            1.507368601858     0.901976781285     0.771086954059
    C           -1.184804642868     0.711075190010     0.120925537041
    H           -0.252591279381    -0.945122961197    -0.881008777846
    H           -0.104404807311    -0.997037679820     0.853485614836
    C           -2.576001054182     0.093471414014     0.216375047810
    H           -1.147179244968     1.381388219547    -0.733526428100
    H           -1.004339495536     1.326977581340     0.997871561565
    H           -2.801142653138    -0.500992042313    -0.662852534200
    H           -3.340102783182     0.857371623491     0.303222596818
    H           -2.657275736341    -0.555475219437     1.082021324038

  Mulliken Charges: (a.u.)
   Center  Symbol    Alpha    Beta     Spin     Total
       1     H     0.43164  0.43164  0.00000  0.13673
       2     N     3.69026  3.69026  0.00000 -0.38052
       3     C     3.02971  3.02971  0.00000 -0.05943
       4     H     0.43170  0.43170  0.00000  0.13660
       5     C     3.08483  3.08483  0.00000 -0.16965
       6     H     0.45303  0.45303  0.00000  0.09394
       7     H     0.45378  0.45378  0.00000  0.09245
       8     C     3.08950  3.08950  0.00000 -0.17899
       9     H     0.46001  0.46001  0.00000  0.07997
      10     H     0.45994  0.45994  0.00000  0.08011
      11     C     3.14850  3.14850  0.00000 -0.29700
      12     H     0.45440  0.45440  0.00000  0.09121
      13     H     0.45445  0.45445  0.00000  0.09109
      14     H     0.45494  0.45494  0.00000  0.09011
      15     H     0.44833  0.44833  0.00000  0.10335
      16     H     0.45499  0.45499  0.00000  0.09003

   Total alpha = 21.00000, Total beta = 21.00000, Total charge =  0.00000

*** Psi4 exiting successfully. Buy a developer a beer!
