  ==> Input File <==

--------------------------------------------------------------------------
set {
	reference rhf
	basis 6-31G*
}

set_num_threads( 1 )
memory 2 gb

molecule MOL {
0 1

H	 -2.946125	 1.693039	 1.139187
O	 -2.217733	 1.637110	 1.742653
C	 -1.022312	 1.729388	 1.024032
C	 -0.793441	 0.596080	 0.058728
H	 -0.227186	 1.746432	 1.760704
H	 -0.966896	 2.674477	 0.484809
C	 -1.530462	 -0.493172	 -0.025500
H	 0.053657	 0.721604	 -0.597893
H	 -1.092586	 -1.461565	 -0.186463
H	 -2.602122	 -0.450675	 0.050101

	symmetry c1
}
set optking {
	frozen_dihedral = ("
		5 3 2 1,
		5 3 4 7
	")
}

ee = energy('scf')
oeprop('DIPOLE', 'QUADRUPOLE', 'MULLIKEN_CHARGES')
f=open( 'psi4out.xyz', 'w' )
f.write( "10  " )
f.write( str(ee) + "\n" )
f.write( MOL.save_string_xyz() )
f.close()
--------------------------------------------------------------------------

    Molecular point group: c1

    Geometry (in Angstrom), charge = 0, multiplicity = 1:

       Center              X                  Y                   Z               Mass
    ------------   -----------------  -----------------  -----------------  -----------------
           H         -1.508039286390     0.777582132457     0.394347203696     1.007825032070
           O         -0.779647286390     0.721653132457     0.997813203696    15.994914619560
           C          0.415773713610     0.813931132457     0.279192203696    12.000000000000
           C          0.644644713610    -0.319376867543    -0.686111796304    12.000000000000
           H          1.210899713610     0.830975132457     1.015864203696     1.007825032070
           H          0.471189713610     1.759020132457    -0.260030796304     1.007825032070
           C         -0.092376286390    -1.408628867543    -0.770339796304    12.000000000000
           H          1.491742713610    -0.193852867543    -1.342732796304     1.007825032070
           H          0.345499713610    -2.377021867543    -0.931302796304     1.007825032070
           H         -1.164036286390    -1.366131867543    -0.694738796304     1.007825032070

  Charge       = 0
  Multiplicity = 1
  Basis Set: 6-31G*
  Basis Set:

    Orbital Energies (a.u.)
    -----------------------

    Doubly Occupied:

       1A    -20.559330     2A    -11.279191     3A    -11.232010
       4A    -11.220791     5A     -1.368140     6A     -1.058571
       7A     -0.928856     8A     -0.768850     9A     -0.688817
      10A     -0.655547    11A     -0.613287    12A     -0.569737
      13A     -0.557982    14A     -0.493437    15A     -0.451169
      16A     -0.331648

  @DF-RHF Final Energy:  -191.87844828483014

   => Energetics <=

    Nuclear Repulsion Energy =            119.3022285579216941
    One-Electron Energy =                -496.8066517968138101
    Two-Electron Energy =                 185.6259749540619168
    DFT Exchange-Correlation Energy =       0.0000000000000000
    Empirical Dispersion Energy =           0.0000000000000000
    PCM Polarization Energy =               0.0000000000000000
    EFP Energy =                            0.0000000000000000
    Total Energy =                       -191.8784482848301991

  Mulliken Charges: (a.u.)
   Center  Symbol    Alpha    Beta     Spin     Total
       1     H     0.28038  0.28038  0.00000  0.43924
       2     O     4.36569  4.36569  0.00000 -0.73138
       3     C     2.99795  2.99795  0.00000  0.00411
       4     C     3.09693  3.09693  0.00000 -0.19386
       5     H     0.40461  0.40461  0.00000  0.19078
       6     H     0.42994  0.42994  0.00000  0.14012
       7     C     3.19203  3.19203  0.00000 -0.38407
       8     H     0.40897  0.40897  0.00000  0.18205
       9     H     0.40722  0.40722  0.00000  0.18557
      10     H     0.41628  0.41628  0.00000  0.16744

   Total alpha = 16.00000, Total beta = 16.00000, Total charge = -0.00000
