  ==> Input File <==

--------------------------------------------------------------------------
set {
	reference rhf
	basis 6-31G*
}

set_num_threads( 1 )
memory 2 gb

molecule MOL {
0 1

H	 2.846088	 1.882313	 -2.471439
N	 2.081580	 1.235000	 -2.478975
C	 1.360556	 1.273284	 -1.214782
H	 2.474072	 0.325382	 -2.631863
C	 0.140813	 0.359226	 -1.264585
H	 1.035510	 2.296309	 -1.051615
H	 1.982144	 1.001896	 -0.357824
C	 -0.679275	 0.379305	 0.025956
H	 -0.477017	 0.657360	 -2.106747
H	 0.468067	 -0.660068	 -1.467758
C	 -1.903357	 -0.536963	 -0.023547
H	 -1.004134	 1.398232	 0.231148
H	 -0.047889	 0.086879	 0.863623
C	 -3.225172	 0.228290	 0.028445
H	 -1.867824	 -1.134999	 -0.931459
H	 -1.860449	 -1.239604	 0.805977
H	 -3.313397	 0.915643	 -0.808262
H	 -4.073500	 -0.448134	 -0.008893
H	 -3.306061	 0.809945	 0.942516

	symmetry c1
}
set optking {
	frozen_dihedral = ("
		6 3 5 9,
		12 8 5 9,
		1 2 3 6
	")
}

ee = energy('scf')
oeprop('DIPOLE', 'QUADRUPOLE', 'MULLIKEN_CHARGES')
f=open( 'psi4out.xyz', 'w' )
f.write( "19  " )
f.write( str(ee) + "\n" )
f.write( MOL.save_string_xyz() )
f.close()
--------------------------------------------------------------------------

    Molecular point group: c1

    Geometry (in Angstrom), charge = 0, multiplicity = 1:

       Center              X                  Y                   Z               Mass
    ------------   -----------------  -----------------  -----------------  -----------------
           H          3.187389472380     1.380977216498    -1.631549691732     1.007825032070
           N          2.422881472380     0.733664216498    -1.639085691732    14.003074004780
           C          1.701857472380     0.771948216498    -0.374892691732    12.000000000000
           H          2.815373472380    -0.175953783502    -1.791973691732     1.007825032070
           C          0.482114472380    -0.142109783502    -0.424695691732    12.000000000000
           H          1.376811472380     1.794973216498    -0.211725691732     1.007825032070
           H          2.323445472380     0.500560216498     0.482065308268     1.007825032070
           C         -0.337973527620    -0.122030783502     0.865845308268    12.000000000000
           H         -0.135715527620     0.156024216498    -1.266857691732     1.007825032070
           H          0.809368472380    -1.161403783502    -0.627868691732     1.007825032070
           C         -1.562055527620    -1.038298783502     0.816342308268    12.000000000000
           H         -0.662832527620     0.896896216498     1.071037308268     1.007825032070
           H          0.293412472380    -0.414456783502     1.703512308268     1.007825032070
           C         -2.883870527620    -0.273045783502     0.868334308268    12.000000000000
           H         -1.526522527620    -1.636334783502    -0.091569691732     1.007825032070
           H         -1.519147527620    -1.740939783502     1.645866308268     1.007825032070
           H         -2.972095527620     0.414307216498     0.031627308268     1.007825032070
           H         -3.732198527620    -0.949469783502     0.830996308268     1.007825032070
           H         -2.964759527620     0.308609216498     1.782405308268     1.007825032070

  Charge       = 0
  Multiplicity = 1
  Basis Set: 6-31G*
  Basis Set:

    Orbital Energies (a.u.)
    -----------------------

    Doubly Occupied:

       1A    -15.532347     2A    -11.239234     3A    -11.212202
       4A    -11.211048     5A    -11.209781     6A    -11.207062
       7A     -1.176450     8A     -1.073080     9A     -0.996844
      10A     -0.900602    11A     -0.815731    12A     -0.786818
      13A     -0.664564    14A     -0.635771    15A     -0.614104
      16A     -0.590938    17A     -0.580474    18A     -0.536122
      19A     -0.527900    20A     -0.500830    21A     -0.487923
      22A     -0.464304    23A     -0.452472    24A     -0.447583
      25A     -0.380815

  @DF-RHF Final Energy:  -251.34590534916029

   => Energetics <=

    Nuclear Repulsion Energy =            247.0490171654793983
    One-Electron Energy =                -828.2998449263938028
    Two-Electron Energy =                 329.9049224117543986
    DFT Exchange-Correlation Energy =       0.0000000000000000
    Empirical Dispersion Energy =           0.0000000000000000
    PCM Polarization Energy =               0.0000000000000000
    EFP Energy =                            0.0000000000000000
    Total Energy =                       -251.3459053491599775

  Mulliken Charges: (a.u.)
   Center  Symbol    Alpha    Beta     Spin     Total
       1     H     0.33254  0.33254  0.00000  0.33493
       2     N     3.92192  3.92192  0.00000 -0.84383
       3     C     3.06072  3.06072  0.00000 -0.12144
       4     H     0.33543  0.33543  0.00000  0.32914
       5     C     3.15383  3.15383  0.00000 -0.30765
       6     H     0.42083  0.42083  0.00000  0.15834
       7     H     0.43476  0.43476  0.00000  0.13047
       8     C     3.15870  3.15870  0.00000 -0.31739
       9     H     0.41306  0.41306  0.00000  0.17389
      10     H     0.42707  0.42707  0.00000  0.14586
      11     C     3.15382  3.15382  0.00000 -0.30763
      12     H     0.42066  0.42066  0.00000  0.15868
      13     H     0.42223  0.42223  0.00000  0.15555
      14     C     3.24047  3.24047  0.00000 -0.48095
      15     H     0.41938  0.41938  0.00000  0.16123
      16     H     0.42111  0.42111  0.00000  0.15778
      17     H     0.42100  0.42100  0.00000  0.15800
      18     H     0.42070  0.42070  0.00000  0.15861
      19     H     0.42179  0.42179  0.00000  0.15641

   Total alpha = 25.00000, Total beta = 25.00000, Total charge =  0.00000
