  ==> Input File <==

--------------------------------------------------------------------------
set {
	reference rhf
	basis cc-pvtz
}

set_num_threads( 4 )
memory 2 gb

molecule MOL {
0 1

H	 -2.151415	 -0.200778	 -2.026779
O	 -2.220469	 -0.151384	 -1.090995
C	 -1.127764	 0.545268	 -0.561076
C	 0.137045	 -0.289124	 -0.603985
H	 -0.962382	 1.483470	 -1.081224
H	 -1.370240	 0.778423	 0.465825
O	 1.172093	 0.457955	 -0.054438
H	 0.367931	 -0.562228	 -1.635005
H	 -0.017251	 -1.211908	 -0.048794
C	 2.395478	 -0.199028	 -0.000366
H	 2.505946	 -0.901710	 -0.823354
H	 3.174616	 0.545641	 -0.071768
H	 2.513730	 -0.742241	 0.934223

	symmetry c1
}
set optking {
	frozen_dihedral = ("
		4 7 10 13
	")
}

ee = optimize('scf')
oeprop('DIPOLE', 'QUADRUPOLE', 'MULLIKEN_CHARGES')
f=open( 'psi4out.xyz', 'w' )
f.write( "13  " )
f.write( str(ee) + "\n" )
f.write( MOL.save_string_xyz() )
f.close()
--------------------------------------------------------------------------

    Molecular point group: c1
  Charge       = 0
  Multiplicity = 1
  Basis Set: CC-PVTZ
  Basis Set:
  @DF-RHF Final Energy:  -268.06048218901327
    Total Energy =                       -268.0604821890133280
    Molecular point group: c1
  Basis Set: CC-PVTZ
  Basis Set:
  Basis Set: CC-PVTZ
  Basis Set:
  @DF-RHF Final Energy:  -268.06057078279923
    Total Energy =                       -268.0605707827994024
  Basis Set: CC-PVTZ
  Basis Set:
  Basis Set: CC-PVTZ
  Basis Set:
  @DF-RHF Final Energy:  -268.06058370700816
    Total Energy =                       -268.0605837070082202
  Basis Set: CC-PVTZ
  Basis Set:
  Charge       = 0
  Multiplicity = 1
  Basis Set: CC-PVTZ
  Basis Set:

    Orbital Energies (a.u.)
    -----------------------

    Doubly Occupied:

       1A    -20.554412     2A    -20.552721     3A    -11.269494
       4A    -11.267512     5A    -11.267221     6A     -1.389866
       7A     -1.368840     8A     -1.019631     9A     -0.914141
      10A     -0.842583    11A     -0.711348    12A     -0.675296
      13A     -0.662522    14A     -0.637649    15A     -0.598842
      16A     -0.569732    17A     -0.549364    18A     -0.490822
      19A     -0.483690    20A     -0.441464    21A     -0.421931

  @DF-RHF Final Energy:  -268.06058391238480

   => Energetics <=

    Nuclear Repulsion Energy =            190.3238184035789970
    One-Electron Energy =                -743.3906480913758514
    Two-Electron Energy =                 285.0062457754119123
    DFT Exchange-Correlation Energy =       0.0000000000000000
    Empirical Dispersion Energy =           0.0000000000000000
    PCM Polarization Energy =               0.0000000000000000
    EFP Energy =                            0.0000000000000000
    Total Energy =                       -268.0605839123849137
    Molecular point group: c1
  Basis Set: CC-PVTZ
  Basis Set:

  -Total Gradient:
     Atom            X                  Y                   Z
    ------   -----------------  -----------------  -----------------
       1       -0.000012742865    -0.000005844191    -0.000004455783
       2       -0.000039904177    -0.000001091668    -0.000032538026
       3        0.000004676264    -0.000019996457     0.000002985734
       4        0.000510513198     0.000797284215    -0.002047334100
       5       -0.000004706822     0.000003884675     0.000003912766
       6        0.000018595702     0.000001412452    -0.000002662993
       7       -0.000352129558    -0.000512834599     0.003304409469
       8        0.000007152175     0.000011870866     0.000010808722
       9       -0.000001147760     0.000005180403    -0.000007773814
      10       -0.001289209336    -0.002610143487    -0.002389419990
      11       -0.000007075378     0.000003076460    -0.000003764990
      12        0.000012930766     0.000001904842     0.000001726515
      13        0.001153047790     0.002325296491     0.001164106491

  **** Optimization is complete! (in 4 steps) ****
    Final optimized geometry and variables:
    Molecular point group: c1

    Geometry (in Angstrom), charge = 0, multiplicity = 1:

    H           -2.212964794396    -0.252637680241    -1.542177210530
    O           -2.280425950302    -0.205218581463    -0.606171294329
    C           -1.182673783630     0.483620232963    -0.076131825938
    C            0.077067788907    -0.358081225797    -0.122707210431
    H           -1.011793443742     1.421762682581    -0.594691334459
    H           -1.422466463877     0.716524015363     0.951432354889
    O            1.118194915819     0.387855408765     0.418397764261
    H            0.302293303223    -0.633623357589    -1.153651836928
    H           -0.082656715576    -1.278783615469     0.434612246004
    C            2.348771837643    -0.260878842106     0.482315832339
    H            2.481161042444    -0.958670926253    -0.338895903109
    H            3.126191947621     0.488934778878     0.424284507971
    H            2.463522334769    -0.790616654130     1.423879716815

  Mulliken Charges: (a.u.)
   Center  Symbol    Alpha    Beta     Spin     Total
       1     H     0.39410  0.39410  0.00000  0.21179
       2     O     4.20214  4.20214  0.00000 -0.40429
       3     C     2.97431  2.97431  0.00000  0.05137
       4     C     2.96501  2.96501  0.00000  0.06998
       5     H     0.46718  0.46718  0.00000  0.06565
       6     H     0.45258  0.45258  0.00000  0.09484
       7     O     4.17780  4.17780  0.00000 -0.35561
       8     H     0.48087  0.48087  0.00000  0.03826
       9     H     0.47050  0.47050  0.00000  0.05900
      10     C     3.02968  3.02968  0.00000 -0.05935
      11     H     0.47251  0.47251  0.00000  0.05499
      12     H     0.45005  0.45005  0.00000  0.09990
      13     H     0.46327  0.46327  0.00000  0.07346

   Total alpha = 21.00000, Total beta = 21.00000, Total charge = -0.00000
