  ==> Input File <==

--------------------------------------------------------------------------
set {
	reference rhf
	basis 6-31G*
}

set_num_threads( 1 )
memory 2 gb

molecule MOL {
0 1

H	 2.417805	 -0.883119	 -0.939946
N	 2.434251	 -0.367735	 -0.081097
C	 1.267428	 0.496480	 0.024474
H	 3.275556	 0.177324	 -0.086700
C	 -0.016086	 -0.325158	 -0.029487
H	 1.288818	 1.183521	 -0.816092
H	 1.267576	 1.109062	 0.929528
C	 -1.282277	 0.529072	 0.046735
H	 -0.012495	 -0.908639	 -0.945788
H	 -0.015903	 -1.041248	 0.791956
C	 -2.563920	 -0.301775	 -0.006060
H	 -1.284084	 1.244622	 -0.773004
H	 -1.271387	 1.115393	 0.963286
H	 -2.621848	 -0.873522	 -0.927727
H	 -3.445135	 0.329952	 0.047812
H	 -2.609542	 -1.004582	 0.821105

	symmetry c1
}
set optking {
	frozen_dihedral = ("
		6 3 5 9,
		12 8 5 9
	")
}

ee = energy('scf')
oeprop('DIPOLE', 'QUADRUPOLE', 'MULLIKEN_CHARGES')
f=open( 'psi4out.xyz', 'w' )
f.write( "16  " )
f.write( str(ee) + "\n" )
f.write( MOL.save_string_xyz() )
f.close()
--------------------------------------------------------------------------

    Molecular point group: c1

    Geometry (in Angstrom), charge = 0, multiplicity = 1:

       Center              X                  Y                   Z               Mass
    ------------   -----------------  -----------------  -----------------  -----------------
           H          2.418974263130    -0.884299519602    -0.917363247672     1.007825032070
           N          2.435420263130    -0.368915519602    -0.058514247672    14.003074004780
           C          1.268597263130     0.495299480398     0.047056752328    12.000000000000
           H          3.276725263130     0.176143480398    -0.064117247672     1.007825032070
           C         -0.014916736870    -0.326338519602    -0.006904247672    12.000000000000
           H          1.289987263130     1.182340480398    -0.793509247672     1.007825032070
           H          1.268745263130     1.107881480398     0.952110752328     1.007825032070
           C         -1.281107736870     0.527891480398     0.069317752328    12.000000000000
           H         -0.011325736870    -0.909819519602    -0.923205247672     1.007825032070
           H         -0.014733736870    -1.042428519602     0.814538752328     1.007825032070
           C         -2.562750736870    -0.302955519602     0.016522752328    12.000000000000
           H         -1.282914736870     1.243441480398    -0.750421247672     1.007825032070
           H         -1.270217736870     1.114212480398     0.985868752328     1.007825032070
           H         -2.620678736870    -0.874702519602    -0.905144247672     1.007825032070
           H         -3.443965736870     0.328771480398     0.070394752328     1.007825032070
           H         -2.608372736870    -1.005762519602     0.843687752328     1.007825032070

  Charge       = 0
  Multiplicity = 1
  Basis Set: 6-31G*
  Basis Set:

    Orbital Energies (a.u.)
    -----------------------

    Doubly Occupied:

       1A    -15.530862     2A    -11.240336     3A    -11.215933
       4A    -11.211087     5A    -11.208556     6A     -1.176584
       7A     -1.060170     8A     -0.958978     9A     -0.843905
      10A     -0.793194    11A     -0.662023    12A     -0.637398
      13A     -0.603145    14A     -0.578550    15A     -0.567924
      16A     -0.525490    17A     -0.504515    18A     -0.471374
      19A     -0.466777    20A     -0.459932    21A     -0.376801

  @DF-RHF Final Energy:  -212.31467198654724

   => Energetics <=

    Nuclear Repulsion Energy =            186.3137974631114275
    One-Electron Energy =                -655.0699226697553286
    Two-Electron Energy =                 256.4414532200964913
    DFT Exchange-Correlation Energy =       0.0000000000000000
    Empirical Dispersion Energy =           0.0000000000000000
    PCM Polarization Energy =               0.0000000000000000
    EFP Energy =                            0.0000000000000000
    Total Energy =                       -212.3146719865474097

  Mulliken Charges: (a.u.)
   Center  Symbol    Alpha    Beta     Spin     Total
       1     H     0.33450  0.33450  0.00000  0.33099
       2     N     3.92245  3.92245  0.00000 -0.84490
       3     C     3.05937  3.05937  0.00000 -0.11874
       4     H     0.33329  0.33329  0.00000  0.33342
       5     C     3.15156  3.15156  0.00000 -0.30311
       6     H     0.43496  0.43496  0.00000  0.13008
       7     H     0.42015  0.42015  0.00000  0.15970
       8     C     3.15550  3.15550  0.00000 -0.31100
       9     H     0.42746  0.42746  0.00000  0.14508
      10     H     0.41433  0.41433  0.00000  0.17133
      11     C     3.23879  3.23879  0.00000 -0.47759
      12     H     0.42353  0.42353  0.00000  0.15295
      13     H     0.42230  0.42230  0.00000  0.15539
      14     H     0.42180  0.42180  0.00000  0.15640
      15     H     0.41944  0.41944  0.00000  0.16112
      16     H     0.42057  0.42057  0.00000  0.15886

   Total alpha = 21.00000, Total beta = 21.00000, Total charge =  0.00000
