  ==> Input File <==

--------------------------------------------------------------------------
set {
	reference rhf
	basis cc-pvtz
}

set_num_threads( 4 )
memory 2 gb

molecule MOL {
0 1

O	 -2.071633	 -1.227563	 -0.223463
C	 -1.652164	 -0.152425	 0.058082
C	 -0.327811	 0.006324	 0.778296
C	 -2.402515	 1.108629	 -0.298924
C	 0.843231	 -0.001575	 -0.211665
H	 -0.319484	 0.928173	 1.350354
H	 -0.227804	 -0.823091	 1.466705
C	 2.197693	 0.138030	 0.476937
H	 0.722944	 0.805202	 -0.930230
H	 0.813976	 -0.926978	 -0.776588
C	 2.446923	 1.542222	 1.016651
H	 2.263934	 -0.578880	 1.290679
H	 2.983293	 -0.123627	 -0.225850
H	 1.696245	 1.819629	 1.749155
H	 2.418283	 2.277813	 0.220124
H	 3.416722	 1.610405	 1.495442
H	 -3.240910	 0.874416	 -0.936711
H	 -1.747554	 1.818823	 -0.790984
H	 -2.760419	 1.579708	 0.610998

	symmetry c1
}
set optking {
	frozen_dihedral = ("
		11 8 5 9
	")
}

ee = optimize('scf')
oeprop('DIPOLE', 'QUADRUPOLE', 'MULLIKEN_CHARGES')
f=open( 'psi4out.xyz', 'w' )
f.write( "19  " )
f.write( str(ee) + "\n" )
f.write( MOL.save_string_xyz() )
f.close()
--------------------------------------------------------------------------

    Molecular point group: c1
  Charge       = 0
  Multiplicity = 1
  Basis Set: CC-PVTZ
  Basis Set:
  @DF-RHF Final Energy:  -309.17525236957613
    Total Energy =                       -309.1752523695763557
    Molecular point group: c1
  Basis Set: CC-PVTZ
  Basis Set:
  Basis Set: CC-PVTZ
  Basis Set:
  @DF-RHF Final Energy:  -309.17550767793261
    Total Energy =                       -309.1755076779327851
  Basis Set: CC-PVTZ
  Basis Set:
  Basis Set: CC-PVTZ
  Basis Set:
  @DF-RHF Final Energy:  -309.17553564826079
    Total Energy =                       -309.1755356482607908
  Basis Set: CC-PVTZ
  Basis Set:
  Basis Set: CC-PVTZ
  Basis Set:
  @DF-RHF Final Energy:  -309.17554913578704
    Total Energy =                       -309.1755491357872074
  Basis Set: CC-PVTZ
  Basis Set:
  Basis Set: CC-PVTZ
  Basis Set:
  @DF-RHF Final Energy:  -309.17550107174770
    Total Energy =                       -309.1755010717481582
  Basis Set: CC-PVTZ
  Basis Set:
  Basis Set: CC-PVTZ
  Basis Set:
  @DF-RHF Final Energy:  -309.17559476500975
    Total Energy =                       -309.1755947650100325
  Basis Set: CC-PVTZ
  Basis Set:
  Charge       = 0
  Multiplicity = 1
  Basis Set: CC-PVTZ
  Basis Set:

    Orbital Energies (a.u.)
    -----------------------

    Doubly Occupied:

       1A    -20.536823     2A    -11.319343     3A    -11.229154
       4A    -11.227447     5A    -11.226910     6A    -11.223468
       7A    -11.215186     8A     -1.396962     9A     -1.092752
      10A     -1.029224    11A     -0.983244    12A     -0.899727
      13A     -0.800889    14A     -0.736469    15A     -0.660608
      16A     -0.652236    17A     -0.620755    18A     -0.608257
      19A     -0.600188    20A     -0.570256    21A     -0.553546
      22A     -0.539768    23A     -0.522815    24A     -0.500117
      25A     -0.482127    26A     -0.474845    27A     -0.466578
      28A     -0.399522

  @DF-RHF Final Energy:  -309.17559545893710

   => Energetics <=

    Nuclear Repulsion Energy =            304.8729237843922419
    One-Electron Energy =               -1022.9586102328524930
    Two-Electron Energy =                 408.9100909895231553
    DFT Exchange-Correlation Energy =       0.0000000000000000
    Empirical Dispersion Energy =           0.0000000000000000
    PCM Polarization Energy =               0.0000000000000000
    EFP Energy =                            0.0000000000000000
    Total Energy =                       -309.1755954589370958
    Molecular point group: c1
  Basis Set: CC-PVTZ
  Basis Set:

  -Total Gradient:
     Atom            X                  Y                   Z
    ------   -----------------  -----------------  -----------------
       1        0.000018797381     0.000006689663    -0.000013315964
       2       -0.000030250266    -0.000000310217     0.000037308224
       3        0.000016811626     0.000057031718    -0.000022316162
       4       -0.000003816924    -0.000006362212     0.000004896514
       5        0.000730289796    -0.000789146166    -0.001327084586
       6       -0.000027425817    -0.000008265638     0.000009251446
       7        0.000009501946    -0.000000801255    -0.000023237926
       8       -0.000576544328    -0.000157631317     0.001258682452
       9       -0.000479747224     0.000650718275     0.000837981934
      10        0.000002442131    -0.000005973182    -0.000006542004
      11        0.000348301366     0.000243827951    -0.000721523301
      12       -0.000003347591    -0.000014406548    -0.000014947386
      13       -0.000033637323     0.000003166928    -0.000005195399
      14        0.000019908549     0.000012241561     0.000005340935
      15        0.000005273800     0.000007888979    -0.000004886810
      16       -0.000011247766     0.000000363292    -0.000001801112
      17        0.000002999076    -0.000000911567    -0.000002104229
      18        0.000005207161     0.000000998234    -0.000005813166
      19        0.000006484405     0.000000881497    -0.000004693461

  **** Optimization is complete! (in 7 steps) ****
    Final optimized geometry and variables:
    Molecular point group: c1

    Geometry (in Angstrom), charge = 0, multiplicity = 1:

    O           -1.931049991665    -1.454961123538    -0.448074530215
    C           -1.524136043650    -0.372878131049    -0.174780035169
    C           -0.209490245710    -0.193239985666     0.558267902809
    C           -2.282123887999     0.876869145171    -0.555040972335
    C            0.968792813768    -0.196570944813    -0.426740497073
    H           -0.226454764815     0.728853977628     1.127091803637
    H           -0.104522163104    -1.020229973730     1.248954961653
    C            2.335455382559    -0.063895321182     0.247840942568
    H            0.844980095914     0.612797441301    -1.141750890105
    H            0.934015135268    -1.122237106496    -0.988620719890
    C            2.636388587797     1.326139266889     0.802186597291
    H            2.417886705910    -0.801583981913     1.040594981665
    H            3.098609280539    -0.316565163722    -0.481214309359
    H            1.942312105123     1.613275119594     1.583553415703
    H            2.583239359116     2.075736653168     0.019427069348
    H            3.633095854210     1.362880649715     1.225918558430
    H           -3.107854833637     0.627738363868    -1.203606560499
    H           -1.627631732558     1.590328013903    -1.042840298359
    H           -2.659805408077     1.351449762899     0.345041330507

  Mulliken Charges: (a.u.)
   Center  Symbol    Alpha    Beta     Spin     Total
       1     O     4.17702  4.17702  0.00000 -0.35404
       2     C     2.85678  2.85678  0.00000  0.28644
       3     C     3.10036  3.10036  0.00000 -0.20072
       4     C     3.15587  3.15587  0.00000 -0.31174
       5     C     3.10552  3.10552  0.00000 -0.21104
       6     H     0.44868  0.44868  0.00000  0.10264
       7     H     0.43925  0.43925  0.00000  0.12149
       8     C     3.09113  3.09113  0.00000 -0.18226
       9     H     0.45203  0.45203  0.00000  0.09595
      10     H     0.43529  0.43529  0.00000  0.12943
      11     C     3.15146  3.15146  0.00000 -0.30292
      12     H     0.45171  0.45171  0.00000  0.09659
      13     H     0.44588  0.44588  0.00000  0.10824
      14     H     0.45494  0.45494  0.00000  0.09012
      15     H     0.45455  0.45455  0.00000  0.09090
      16     H     0.44457  0.44457  0.00000  0.11086
      17     H     0.43570  0.43570  0.00000  0.12861
      18     H     0.45083  0.45083  0.00000  0.09835
      19     H     0.44845  0.44845  0.00000  0.10310

   Total alpha = 28.00000, Total beta = 28.00000, Total charge = -0.00000
