  ==> Input File <==

--------------------------------------------------------------------------
set {
	reference rhf
	basis 6-31G*
}

set_num_threads( 1 )
memory 2 gb

molecule MOL {
0 1

H	 1.316793	 1.740232	 -2.930320
O	 2.162680	 1.367694	 -3.132215
C	 2.781983	 0.930222	 -1.949364
C	 2.153437	 -0.334071	 -1.373846
H	 3.814568	 0.738387	 -2.211363
H	 2.780112	 1.723257	 -1.202456
C	 0.700640	 -0.158125	 -0.925190
H	 2.211546	 -1.119704	 -2.122693
H	 2.756749	 -0.657491	 -0.527217
C	 0.115918	 -1.429151	 -0.302766
H	 0.096971	 0.138964	 -1.778236
H	 0.641274	 0.654241	 -0.200705
C	 -1.309753	 -1.282496	 0.241564
H	 0.139598	 -2.231409	 -1.038067
H	 0.764393	 -1.745669	 0.511481
C	 -2.037799	 -0.007733	 -0.193645
H	 -1.890610	 -2.142323	 -0.085726
H	 -1.285946	 -1.330893	 1.329189
C	 -3.489788	 0.042957	 0.286558
H	 -2.017067	 0.064384	 -1.280144
H	 -1.513726	 0.868678	 0.179924
C	 -4.216917	 1.317354	 -0.141063
H	 -4.025645	 -0.823308	 -0.095450
H	 -3.513059	 -0.038752	 1.371301
H	 -4.239342	 1.411634	 -1.223113
H	 -5.243387	 1.322503	 0.212445
H	 -3.726170	 2.201406	 0.256408

	symmetry c1
}
set optking {
	frozen_dihedral = ("
		14 10 7 4,
		10 7 4 8,
		8 4 3 2,
		10 13 16 20,
		20 16 19 22,
		4 3 2 1
	")
}

ee = energy('scf')
oeprop('DIPOLE', 'QUADRUPOLE', 'MULLIKEN_CHARGES')
f=open( 'psi4out.xyz', 'w' )
f.write( "27  " )
f.write( str(ee) + "\n" )
f.write( MOL.save_string_xyz() )
f.close()
--------------------------------------------------------------------------

    Molecular point group: c1

    Geometry (in Angstrom), charge = 0, multiplicity = 1:

       Center              X                  Y                   Z               Mass
    ------------   -----------------  -----------------  -----------------  -----------------
           H          1.640067810117     1.651064910653    -2.059598107926     1.007825032070
           O          2.485954810117     1.278526910653    -2.261493107926    15.994914619560
           C          3.105257810117     0.841054910653    -1.078642107926    12.000000000000
           C          2.476711810117    -0.423238089347    -0.503124107926    12.000000000000
           H          4.137842810117     0.649219910653    -1.340641107926     1.007825032070
           H          3.103386810117     1.634089910653    -0.331734107926     1.007825032070
           C          1.023914810117    -0.247292089347    -0.054468107926    12.000000000000
           H          2.534820810117    -1.208871089347    -1.251971107926     1.007825032070
           H          3.080023810117    -0.746658089347     0.343504892074     1.007825032070
           C          0.439192810117    -1.518318089347     0.567955892074    12.000000000000
           H          0.420245810117     0.049796910653    -0.907514107926     1.007825032070
           H          0.964548810117     0.565073910653     0.670016892074     1.007825032070
           C         -0.986478189883    -1.371663089347     1.112285892074    12.000000000000
           H          0.462872810117    -2.320576089347    -0.167345107926     1.007825032070
           H          1.087667810117    -1.834836089347     1.382202892074     1.007825032070
           C         -1.714524189883    -0.096900089347     0.677076892074    12.000000000000
           H         -1.567335189883    -2.231490089347     0.784995892074     1.007825032070
           H         -0.962671189883    -1.420060089347     2.199910892074     1.007825032070
           C         -3.166513189883    -0.046210089347     1.157279892074    12.000000000000
           H         -1.693792189883    -0.024783089347    -0.409422107926     1.007825032070
           H         -1.190451189883     0.779510910653     1.050645892074     1.007825032070
           C         -3.893642189883     1.228186910653     0.729658892074    12.000000000000
           H         -3.702370189883    -0.912475089347     0.775271892074     1.007825032070
           H         -3.189784189883    -0.127919089347     2.242022892074     1.007825032070
           H         -3.916067189883     1.322466910653    -0.352391107926     1.007825032070
           H         -4.920112189883     1.233335910653     1.083166892074     1.007825032070
           H         -3.402895189883     2.112238910653     1.127129892074     1.007825032070

  Charge       = 0
  Multiplicity = 1
  Basis Set: 6-31G*
  Basis Set:

    Orbital Energies (a.u.)
    -----------------------

    Doubly Occupied:

       1A    -20.551991     2A    -11.266625     3A    -11.218935
       4A    -11.216023     5A    -11.215967     6A    -11.214894
       7A    -11.214287     8A    -11.214278     9A    -11.209964
      10A     -1.358719    11A     -1.096992    12A     -1.059990
      13A     -1.011378    14A     -0.946241    15A     -0.892191
      16A     -0.819581    17A     -0.809887    18A     -0.765531
      19A     -0.693358    20A     -0.661362    21A     -0.631148
      22A     -0.614210    23A     -0.603972    24A     -0.585034
      25A     -0.575825    26A     -0.553219    27A     -0.541509
      28A     -0.532883    29A     -0.506994    30A     -0.497555
      31A     -0.489279    32A     -0.476171    33A     -0.464876
      34A     -0.454642    35A     -0.444858    36A     -0.442754
      37A     -0.422977

  @DF-RHF Final Energy:  -388.27239539111389

   => Energetics <=

    Nuclear Repulsion Energy =            465.0510753232844650
    One-Electron Energy =               -1448.0946317716040994
    Two-Electron Energy =                 594.7711610572056316
    DFT Exchange-Correlation Energy =       0.0000000000000000
    Empirical Dispersion Energy =           0.0000000000000000
    PCM Polarization Energy =               0.0000000000000000
    EFP Energy =                            0.0000000000000000
    Total Energy =                       -388.2723953911139461

  Mulliken Charges: (a.u.)
   Center  Symbol    Alpha    Beta     Spin     Total
       1     H     0.27988  0.27988  0.00000  0.44024
       2     O     4.37106  4.37106  0.00000 -0.74212
       3     C     2.99729  2.99729  0.00000  0.00542
       4     C     3.15942  3.15942  0.00000 -0.31883
       5     H     0.41450  0.41450  0.00000  0.17099
       6     H     0.43229  0.43229  0.00000  0.13542
       7     C     3.16670  3.16670  0.00000 -0.33340
       8     H     0.41545  0.41545  0.00000  0.16909
       9     H     0.42471  0.42471  0.00000  0.15057
      10     C     3.15375  3.15375  0.00000 -0.30749
      11     H     0.42265  0.42265  0.00000  0.15470
      12     H     0.42381  0.42381  0.00000  0.15237
      13     C     3.15521  3.15521  0.00000 -0.31042
      14     H     0.41938  0.41938  0.00000  0.16124
      15     H     0.42072  0.42072  0.00000  0.15857
      16     C     3.15630  3.15630  0.00000 -0.31259
      17     H     0.42038  0.42038  0.00000  0.15925
      18     H     0.42124  0.42124  0.00000  0.15752
      19     C     3.14977  3.14977  0.00000 -0.29954
      20     H     0.42349  0.42349  0.00000  0.15302
      21     H     0.42302  0.42302  0.00000  0.15397
      22     C     3.23925  3.23925  0.00000 -0.47850
      23     H     0.42289  0.42289  0.00000  0.15422
      24     H     0.42322  0.42322  0.00000  0.15357
      25     H     0.42215  0.42215  0.00000  0.15569
      26     H     0.41889  0.41889  0.00000  0.16223
      27     H     0.42259  0.42259  0.00000  0.15483

   Total alpha = 37.00000, Total beta = 37.00000, Total charge =  0.00000
