  ==> Input File <==

--------------------------------------------------------------------------
set {
	reference rhf
	basis cc-pvtz
}

set_num_threads( 4 )
memory 2 gb

molecule MOL {
0 1

H	 2.408240	 -2.036728	 1.067621
O	 2.736398	 -1.194210	 0.808394
C	 1.741989	 -0.376744	 0.419187
C	 2.088472	 0.902816	 0.009559
C	 0.420012	 -0.767550	 0.416746
H	 3.122284	 1.186181	 0.019223
C	 1.113217	 1.783086	 -0.399529
H	 0.124390	 -1.748037	 0.727472
C	 -0.532034	 0.141680	 0.000000
H	 1.390354	 2.769899	 -0.714398
C	 -0.221469	 1.413723	 -0.410776
N	 -1.937041	 -0.281114	 0.000000
H	 -0.989165	 2.086189	 -0.725667
O	 -2.159542	 -1.446261	 0.000000
O	 -2.764978	 0.565773	 0.000000

	symmetry c1
}
set optking {
	frozen_dihedral = ("
		11 9 12 14
	")
}

ee = optimize('scf')
oeprop('DIPOLE', 'QUADRUPOLE', 'MULLIKEN_CHARGES')
f=open( 'psi4out.xyz', 'w' )
f.write( "15  " )
f.write( str(ee) + "\n" )
f.write( MOL.save_string_xyz() )
f.close()
--------------------------------------------------------------------------

    Molecular point group: c1
  Charge       = 0
  Multiplicity = 1
  Basis Set: CC-PVTZ
  Basis Set:
  @DF-RHF Final Energy:  -509.21842759746471
    Total Energy =                       -509.2184275974643697
    Molecular point group: c1
  Basis Set: CC-PVTZ
  Basis Set:
  Basis Set: CC-PVTZ
  Basis Set:
  @DF-RHF Final Energy:  -509.21201584454093
    Total Energy =                       -509.2120158445409288
  Basis Set: CC-PVTZ
  Basis Set:
  Basis Set: CC-PVTZ
  Basis Set:
  @DF-RHF Final Energy:  -509.21834504607318
    Total Energy =                       -509.2183450460728409
  Basis Set: CC-PVTZ
  Basis Set:
  Basis Set: CC-PVTZ
  Basis Set:
  @DF-RHF Final Energy:  -509.21850048689782
    Total Energy =                       -509.2185004868974829
  Basis Set: CC-PVTZ
  Basis Set:
  Basis Set: CC-PVTZ
  Basis Set:
  @DF-RHF Final Energy:  -509.21850125000390
    Total Energy =                       -509.2185012500033281
  Basis Set: CC-PVTZ
  Basis Set:
  Charge       = 0
  Multiplicity = 1
  Basis Set: CC-PVTZ
  Basis Set:

    Orbital Energies (a.u.)
    -----------------------

    Doubly Occupied:

       1A    -20.608718     2A    -20.595588     3A    -20.595065
       4A    -15.850433     5A    -11.328102     6A    -11.309410
       7A    -11.263457     8A    -11.263083     9A    -11.258680
      10A    -11.256066    11A     -1.644421    12A     -1.441366
      13A     -1.427029    14A     -1.202909    15A     -1.095837
      16A     -1.048304    17A     -0.966927    18A     -0.882176
      19A     -0.832093    20A     -0.795058    21A     -0.758412
      22A     -0.742380    23A     -0.728222    24A     -0.710233
      25A     -0.676696    26A     -0.636124    27A     -0.621955
      28A     -0.598370    29A     -0.561389    30A     -0.547185
      31A     -0.522530    32A     -0.494866    33A     -0.493280
      34A     -0.459796    35A     -0.379711    36A     -0.346312

  @DF-RHF Final Energy:  -509.21850298208051

   => Energetics <=

    Nuclear Repulsion Energy =            504.7230000601251731
    One-Electron Energy =               -1695.9986384856767927
    Two-Electron Energy =                 682.0571354434716795
    DFT Exchange-Correlation Energy =       0.0000000000000000
    Empirical Dispersion Energy =           0.0000000000000000
    PCM Polarization Energy =               0.0000000000000000
    EFP Energy =                            0.0000000000000000
    Total Energy =                       -509.2185029820800537
    Molecular point group: c1
  Basis Set: CC-PVTZ
  Basis Set:

  -Total Gradient:
     Atom            X                  Y                   Z
    ------   -----------------  -----------------  -----------------
       1       -0.000001494786     0.000004249944     0.000011930332
       2        0.000007229921    -0.000011698352    -0.000017109451
       3       -0.000007812162     0.000010709233     0.000005276265
       4        0.000003890330    -0.000004292496    -0.000000459486
       5       -0.000001919069     0.000003152499     0.000007259541
       6       -0.000000812396    -0.000000137809    -0.000001169754
       7       -0.000002844939     0.000007729052     0.000015425678
       8        0.000000799540    -0.000001681518    -0.000003061195
       9       -0.000255806681     0.000788700211     0.001541680107
      10       -0.000000440097    -0.000000285536    -0.000002159142
      11        0.000186578646    -0.000555385648    -0.001571258058
      12        0.000044292242    -0.000226221176     0.001914030649
      13        0.000002977783     0.000000739663     0.000002055778
      14        0.000030685671    -0.000022688601    -0.001901005696
      15       -0.000005324006     0.000007110533    -0.000001435571

  **** Optimization is complete! (in 6 steps) ****
    Final optimized geometry and variables:
    Molecular point group: c1

    Geometry (in Angstrom), charge = 0, multiplicity = 1:

    H            2.413341772564    -2.054954178386     0.966851695734
    O            2.740185504760    -1.210303422058     0.713064033193
    C            1.745712475563    -0.393611477528     0.323154033299
    C            2.092104019222     0.884609732650    -0.091158981542
    C            0.423615051194    -0.784865830701     0.320025054573
    H            3.126391650204     1.166217616311    -0.087053141840
    C            1.116817186986     1.764850704400    -0.500246587323
    H            0.128561257035    -1.769705752077     0.618615085493
    C           -0.528353386136     0.129243623835    -0.083925455129
    H            1.395030999027     2.748352975992    -0.824431325821
    C           -0.219199693082     1.399570135107    -0.499148743758
    N           -1.930422341295    -0.297573454026    -0.097926726582
    H           -0.988692936328     2.073975954088    -0.806678569214
    O           -2.147375603326    -1.463825922128    -0.093265646146
    O           -2.759665349068     0.547738584270    -0.127103167754

  Mulliken Charges: (a.u.)
   Center  Symbol    Alpha    Beta     Spin     Total
       1     H     0.38418  0.38418  0.00000  0.23163
       2     O     4.16841  4.16841  0.00000 -0.33682
       3     C     2.84435  2.84435  0.00000  0.31130
       4     C     3.09794  3.09794  0.00000 -0.19588
       5     C     3.13550  3.13550  0.00000 -0.27100
       6     H     0.41323  0.41323  0.00000  0.17355
       7     C     3.05642  3.05642  0.00000 -0.11284
       8     H     0.40966  0.40966  0.00000  0.18068
       9     C     2.96939  2.96939  0.00000  0.06122
      10     H     0.41599  0.41599  0.00000  0.16803
      11     C     3.09853  3.09853  0.00000 -0.19707
      12     N     3.25586  3.25586  0.00000  0.48827
      13     H     0.40138  0.40138  0.00000  0.19724
      14     O     4.17622  4.17622  0.00000 -0.35243
      15     O     4.17294  4.17294  0.00000 -0.34588

   Total alpha = 36.00000, Total beta = 36.00000, Total charge =  0.00000
