  ==> Input File <==

--------------------------------------------------------------------------
set {
	reference rhf
	basis 6-31G*
}

set_num_threads( 4 )
memory 2 gb

molecule MOL {
0 1

H	 -0.751228	 -1.299806	 -0.756605
N	 -0.626943	 -0.667432	 -0.000092
C	 -1.625401	 -0.646719	 1.044595
C	 0.469286	 0.129090	 0.000148
H	 -2.599482	 -0.383834	 0.645769
H	 -1.334826	 0.091931	 1.773765
H	 -1.698246	 -1.613165	 1.532148
C	 1.788933	 -0.616240	 -0.000037
O	 0.411098	 1.327768	 -0.000049
H	 1.872803	 -1.245775	 -0.880381
H	 2.595421	 0.101576	 0.003713
H	 1.870096	 -1.252171	 0.875943

	symmetry c1
}
set optking {
	frozen_dihedral = ("
		3 2 4 9
	")
}

ee = optimize('scf')
oeprop('DIPOLE', 'QUADRUPOLE', 'MULLIKEN_CHARGES')
f=open( 'psi4out.xyz', 'w' )
f.write( "12  " )
f.write( str(ee) + "\n" )
f.write( MOL.save_string_xyz() )
f.close()
--------------------------------------------------------------------------

    Molecular point group: c1
  Charge       = 0
  Multiplicity = 1
  Basis Set: 6-31G*
  Basis Set:
  @DF-RHF Final Energy:  -246.97476964770598
    Total Energy =                       -246.9747696477062391
    Molecular point group: c1
  Basis Set: 6-31G*
  Basis Set:
  Basis Set: 6-31G*
  Basis Set:
  @DF-RHF Final Energy:  -246.97985025773002
    Total Energy =                       -246.9798502577300496
  Basis Set: 6-31G*
  Basis Set:
  Basis Set: 6-31G*
  Basis Set:
  @DF-RHF Final Energy:  -246.98456713992988
    Total Energy =                       -246.9845671399300500
  Basis Set: 6-31G*
  Basis Set:
  Basis Set: 6-31G*
  Basis Set:
  @DF-RHF Final Energy:  -246.98998193105308
    Total Energy =                       -246.9899819310530233
  Basis Set: 6-31G*
  Basis Set:
  @DF-RHF Final Energy:  -246.99094765565192
    Total Energy =                       -246.9909476556517802
  @DF-RHF Final Energy:  -246.99144532184573
    Total Energy =                       -246.9914453218458448
  Basis Set: 6-31G*
  Basis Set:
  @DF-RHF Final Energy:  -246.99165161250423
    Total Energy =                       -246.9916516125040289
  Basis Set: 6-31G*
  Basis Set:
  Basis Set: 6-31G*
  Basis Set:
  @DF-RHF Final Energy:  -246.99175323157473
    Total Energy =                       -246.9917532315745348
  Basis Set: 6-31G*
  Basis Set:
  Basis Set: 6-31G*
  Basis Set:
  @DF-RHF Final Energy:  -246.99176573233234
    Total Energy =                       -246.9917657323322828
  Basis Set: 6-31G*
  Basis Set:
  Charge       = 0
  Multiplicity = 1
  Basis Set: 6-31G*
  Basis Set:

    Orbital Energies (a.u.)
    -----------------------

    Doubly Occupied:

       1A    -20.534889     2A    -15.574734     3A    -11.348084
       4A    -11.259420     5A    -11.235115     6A     -1.397622
       7A     -1.226371     8A     -1.015835     9A     -0.930860
      10A     -0.772852    11A     -0.691057    12A     -0.650186
      13A     -0.632269    14A     -0.594287    15A     -0.585766
      16A     -0.559435    17A     -0.547240    18A     -0.505536
      19A     -0.424662    20A     -0.393063

  @DF-RHF Final Energy:  -246.99176672566685

   => Energetics <=

    Nuclear Repulsion Energy =            180.7721769813573189
    One-Electron Energy =                -693.7693172127909520
    Two-Electron Energy =                 266.0053735057666700
    DFT Exchange-Correlation Energy =       0.0000000000000000
    Empirical Dispersion Energy =           0.0000000000000000
    PCM Polarization Energy =               0.0000000000000000
    EFP Energy =                            0.0000000000000000
    Total Energy =                       -246.9917667256669347
    Molecular point group: c1
  Basis Set: 6-31G*
  Basis Set:

  -Total Gradient:
     Atom            X                  Y                   Z
    ------   -----------------  -----------------  -----------------
       1       -0.000006654731    -0.000011730228     0.000068099724
       2       -0.005610701632     0.015323839626    -0.010733580909
       3        0.004119314255    -0.009188756252     0.003172357034
       4        0.000382605188    -0.009922077898     0.020613219591
       5       -0.000017155229    -0.000004487206    -0.000013304659
       6       -0.000001335083     0.000004366922    -0.000006046143
       7        0.000017219442     0.000008272773    -0.000004431375
       8        0.000016914868     0.000070529293    -0.000074103371
       9        0.001115357616     0.003755631487    -0.013008255934
      10        0.000004139004    -0.000022292172    -0.000002922266
      11       -0.000018490674     0.000000697995    -0.000002674409
      12       -0.000001213025    -0.000013994340    -0.000008357284

  **** Optimization is complete! (in 10 steps) ****
    Final optimized geometry and variables:
    Molecular point group: c1

    Geometry (in Angstrom), charge = 0, multiplicity = 1:

    H           -0.622607735370    -1.336201039065    -0.780826718186
    N           -0.776699148919    -0.423071183050    -0.404603895029
    C           -1.767688710955    -0.490041626305     0.664877213708
    C            0.428248492594     0.211639766869    -0.118681484699
    H           -2.694774319226    -0.877080412016     0.262564596498
    H           -1.947966403367     0.505527122991     1.042343319465
    H           -1.450657048448    -1.126138515754     1.488393440271
    C            1.676036901268    -0.595227832919    -0.409054161928
    O            0.476377911878     1.355228958788     0.215563968588
    H            1.648442929561    -0.984608567621    -1.422582827476
    H            2.546567316088     0.032545515788    -0.290154484009
    H            1.744463089636    -1.442052860124     0.267893153834

  Mulliken Charges: (a.u.)
   Center  Symbol    Alpha    Beta     Spin     Total
       1     H     0.32268  0.32268  0.00000  0.35463
       2     N     3.86543  3.86543  0.00000 -0.73087
       3     C     3.15727  3.15727  0.00000 -0.31454
       4     C     2.64788  2.64788  0.00000  0.70425
       5     H     0.40962  0.40962  0.00000  0.18077
       6     H     0.39349  0.39349  0.00000  0.21303
       7     H     0.42291  0.42291  0.00000  0.15419
       8     C     3.29892  3.29892  0.00000 -0.59784
       9     O     4.27525  4.27525  0.00000 -0.55051
      10     H     0.40590  0.40590  0.00000  0.18819
      11     H     0.39202  0.39202  0.00000  0.21595
      12     H     0.40862  0.40862  0.00000  0.18275

   Total alpha = 20.00000, Total beta = 20.00000, Total charge = -0.00000
