  ==> Input File <==

--------------------------------------------------------------------------
set {
	reference rhf
	basis 6-31G*
}

set_num_threads( 4 )
memory 2 gb

molecule MOL {
0 1

O	 3.225979	 0.970355	 -0.599647
C	 2.701189	 0.057885	 -0.047330
C	 1.245376	 -0.013843	 0.345420
O	 3.347903	 -1.046386	 0.304773
C	 0.455112	 1.231400	 -0.050772
H	 0.838542	 -0.913825	 -0.103701
H	 1.208210	 -0.175333	 1.419774
C	 -0.998893	 1.219485	 0.433193
H	 0.482531	 1.345121	 -1.130325
H	 0.957290	 2.103070	 0.354729
C	 -1.883438	 0.145884	 -0.207175
H	 -1.431207	 2.195402	 0.224832
H	 -1.019646	 1.105716	 1.516076
C	 -3.347647	 0.245583	 0.225435
H	 -1.822183	 0.231698	 -1.291012
H	 -1.510341	 -0.844814	 0.042401
C	 -4.239992	 -0.825570	 -0.404234
H	 -3.732888	 1.230466	 -0.033079
H	 -3.408585	 0.170602	 1.310038
C	 -3.649171	 -2.231309	 -0.301623
H	 -5.216001	 -0.808739	 0.076146
H	 -4.411253	 -0.582180	 -1.450758
H	 -4.304209	 -2.967924	 -0.756519
H	 -3.498346	 -2.518423	 0.735205
H	 -2.687134	 -2.289849	 -0.802954
C	 4.728119	 -1.109107	 -0.004993
H	 4.882018	 -1.033965	 -1.071845
H	 5.068212	 -2.067527	 0.355250
H	 5.265056	 -0.311663	 0.488280

	symmetry c1
}
set optking {
	frozen_dihedral = ("
		21 17 14 11
	")
}

ee = optimize('scf')
oeprop('DIPOLE', 'QUADRUPOLE', 'MULLIKEN_CHARGES')
f=open( 'psi4out.xyz', 'w' )
f.write( "29  " )
f.write( str(ee) + "\n" )
f.write( MOL.save_string_xyz() )
f.close()
--------------------------------------------------------------------------

    Molecular point group: c1
  Charge       = 0
  Multiplicity = 1
  Basis Set: 6-31G*
  Basis Set:
  @DF-RHF Final Energy:  -501.03976424471682
    Total Energy =                       -501.0397642447172757
    Molecular point group: c1
  Basis Set: 6-31G*
  Basis Set:
  Basis Set: 6-31G*
  Basis Set:
  @DF-RHF Final Energy:  -501.04040926623861
    Total Energy =                       -501.0404092662388393
  Basis Set: 6-31G*
  Basis Set:
  Basis Set: 6-31G*
  Basis Set:
  @DF-RHF Final Energy:  -501.04134113139651
    Total Energy =                       -501.0413411313963934
  Basis Set: 6-31G*
  Basis Set:
  Basis Set: 6-31G*
  Basis Set:
  @DF-RHF Final Energy:  -501.04140004704652
    Total Energy =                       -501.0414000470461815
  Basis Set: 6-31G*
  Basis Set:
  Basis Set: 6-31G*
  Basis Set:
  @DF-RHF Final Energy:  -501.04140721613123
    Total Energy =                       -501.0414072161313470
  Basis Set: 6-31G*
  Basis Set:
  Basis Set: 6-31G*
  Basis Set:
  @DF-RHF Final Energy:  -501.04135656938865
    Total Energy =                       -501.0413565693887676
  Basis Set: 6-31G*
  Basis Set:
  Basis Set: 6-31G*
  Basis Set:
  @DF-RHF Final Energy:  -501.04140941953119
    Total Energy =                       -501.0414094195309644
  Basis Set: 6-31G*
  Basis Set:
  Charge       = 0
  Multiplicity = 1
  Basis Set: 6-31G*
  Basis Set:

    Orbital Energies (a.u.)
    -----------------------

    Doubly Occupied:

       1A    -20.603375     2A    -20.545201     3A    -11.372017
       4A    -11.280660     5A    -11.234776     6A    -11.219007
       7A    -11.217540     8A    -11.216385     9A    -11.215472
      10A    -11.214727    11A    -11.209182    12A     -1.469071
      13A     -1.362518    14A     -1.097988    15A     -1.066109
      16A     -1.017896    17A     -0.975515    18A     -0.928087
      19A     -0.872051    20A     -0.803609    21A     -0.776604
      22A     -0.763754    23A     -0.700849    24A     -0.682282
      25A     -0.672089    26A     -0.644273    27A     -0.631712
      28A     -0.604910    29A     -0.594826    30A     -0.593138
      31A     -0.557260    32A     -0.553180    33A     -0.538305
      34A     -0.523928    35A     -0.520672    36A     -0.509794
      37A     -0.497120    38A     -0.477920    39A     -0.472916
      40A     -0.457564    41A     -0.456543    42A     -0.452340
      43A     -0.442334    44A     -0.435780

  @DF-RHF Final Energy:  -501.04141007733574

   => Energetics <=

    Nuclear Repulsion Energy =            618.0075751086783384
    One-Electron Energy =               -1907.1354098945987516
    Two-Electron Energy =                 788.0864247085845591
    DFT Exchange-Correlation Energy =       0.0000000000000000
    Empirical Dispersion Energy =           0.0000000000000000
    PCM Polarization Energy =               0.0000000000000000
    EFP Energy =                            0.0000000000000000
    Total Energy =                       -501.0414100773358541
    Molecular point group: c1
  Basis Set: 6-31G*
  Basis Set:

  -Total Gradient:
     Atom            X                  Y                   Z
    ------   -----------------  -----------------  -----------------
       1       -0.000013470907    -0.000013283683    -0.000033789703
       2        0.000028233601     0.000044860342     0.000086715033
       3       -0.000026793060    -0.000015257715    -0.000030056105
       4       -0.000006182878    -0.000016834365    -0.000022948430
       5       -0.000008607712    -0.000014310827     0.000000567240
       6       -0.000031391088    -0.000018958150     0.000000028576
       7        0.000008833561     0.000004346662    -0.000009644362
       8       -0.000034130801     0.000032291446    -0.000002209743
       9        0.000001808498     0.000012450098     0.000002301256
      10       -0.000007081900    -0.000007847760     0.000012435337
      11        0.000555270531    -0.001819829156     0.001904155327
      12       -0.000003782679     0.000010685932    -0.000000785066
      13        0.000001899037     0.000015955261     0.000002581744
      14       -0.000493119101     0.001892488340    -0.002217013142
      15        0.000017338862     0.000014787109    -0.000008808942
      16        0.000010867496    -0.000026267228    -0.000005071641
      17       -0.001190015219     0.002437353017    -0.001966246215
      18       -0.000016418057    -0.000042850381    -0.000036952496
      19       -0.000034708331     0.000029705149     0.000028948459
      20        0.000082200593     0.000001601670     0.000021257056
      21        0.001188208151    -0.002543824327     0.002269990750
      22       -0.000020267606     0.000022815992     0.000002605057
      23       -0.000011358822     0.000034945982     0.000004311318
      24       -0.000001211696    -0.000009117935     0.000009314351
      25        0.000004041339    -0.000024680117    -0.000010543657
      26        0.000000705914    -0.000000532165    -0.000000525700
      27        0.000000998929    -0.000000286340    -0.000000112923
      28       -0.000000645665    -0.000000267371    -0.000000473830
      29       -0.000001221008    -0.000000139477    -0.000000029550

  **** Optimization is complete! (in 8 steps) ****
    Final optimized geometry and variables:
    Molecular point group: c1

    Geometry (in Angstrom), charge = 0, multiplicity = 1:

    O            3.042288661043     1.115714546778    -0.601798696875
    C            2.530284673873     0.219091472274    -0.012756509335
    C            1.076461501018     0.144823268371     0.386906441905
    O            3.191372421422    -0.862876399966     0.379593324989
    C            0.269692233418     1.363651770912    -0.055595143300
    H            0.680071510472    -0.777375819938    -0.024923650630
    H            1.044175762494     0.025551012450     1.466914423484
    C           -1.183005960749     1.353470570614     0.432408367627
    H            0.293459078569     1.435647351556    -1.138815523100
    H            0.762043708176     2.256483666061     0.314358486847
    C           -2.056787621405     0.246917366017    -0.166154161145
    H           -1.626292645587     2.316532354130     0.190610496920
    H           -1.199696823389     1.278484011417     1.518894787602
    C           -3.512618577834     0.338250697425     0.300005537810
    H           -2.016180971374     0.310011123388    -1.253327126580
    H           -1.654318860191    -0.725158939294     0.100194972582
    C           -4.476578565996    -0.660272216439    -0.355983219380
    H           -3.884393407944     1.344986723594     0.123514710654
    H           -3.537955936667     0.192500475241     1.379124003299
    C           -4.002904905679    -2.116229565450    -0.339629084334
    H           -5.421561187327    -0.616757978420     0.179610960957
    H           -4.676869314062    -0.359174708916    -1.381407439614
    H           -4.782347463680    -2.773999261441    -0.711676716956
    H           -3.755516066584    -2.437474959410     0.668970566950
    H           -3.126422619172    -2.268045652569    -0.960373495861
    C            4.571413939571    -0.920847727593     0.068103388319
    H            4.721508556323    -0.885089180166    -1.001338711311
    H            4.924096767529    -1.860474906172     0.463964915899
    H            5.099916040083    -0.098539576489     0.528570926281

  Mulliken Charges: (a.u.)
   Center  Symbol    Alpha    Beta     Spin     Total
       1     O     4.28595  4.28595  0.00000 -0.57190
       2     C     2.60479  2.60479  0.00000  0.79042
       3     C     3.20978  3.20978  0.00000 -0.41955
       4     O     4.30746  4.30746  0.00000 -0.61492
       5     C     3.15355  3.15355  0.00000 -0.30710
       6     H     0.39903  0.39903  0.00000  0.20194
       7     H     0.40123  0.40123  0.00000  0.19755
       8     C     3.15646  3.15646  0.00000 -0.31291
       9     H     0.41313  0.41313  0.00000  0.17375
      10     H     0.40879  0.40879  0.00000  0.18242
      11     C     3.15780  3.15780  0.00000 -0.31561
      12     H     0.41828  0.41828  0.00000  0.16344
      13     H     0.42401  0.42401  0.00000  0.15198
      14     C     3.15209  3.15209  0.00000 -0.30417
      15     H     0.42342  0.42342  0.00000  0.15316
      16     H     0.42028  0.42028  0.00000  0.15945
      17     C     3.15118  3.15118  0.00000 -0.30237
      18     H     0.42136  0.42136  0.00000  0.15727
      19     H     0.42449  0.42449  0.00000  0.15102
      20     C     3.24288  3.24288  0.00000 -0.48576
      21     H     0.42099  0.42099  0.00000  0.15802
      22     H     0.42228  0.42228  0.00000  0.15544
      23     H     0.41888  0.41888  0.00000  0.16224
      24     H     0.42269  0.42269  0.00000  0.15461
      25     H     0.42010  0.42010  0.00000  0.15980
      26     C     3.09241  3.09241  0.00000 -0.18482
      27     H     0.40908  0.40908  0.00000  0.18183
      28     H     0.40850  0.40850  0.00000  0.18299
      29     H     0.40913  0.40913  0.00000  0.18175

   Total alpha = 44.00000, Total beta = 44.00000, Total charge = -0.00000
