                              Psi4 1.0.54 Driver

  ==> Input File <==

--------------------------------------------------------------------------
set {
	reference rhf
	basis cc-pvtz
}

set_num_threads( 4 )
memory 2 gb

molecule MOL {
0 1

H	 -2.498963	 -0.741158	 -0.729149
O	 -2.346257	 -0.289210	 0.080372
C	 -1.183935	 0.486039	 -0.009831
C	 0.062853	 -0.375310	 0.027457
H	 -1.178881	 1.094526	 -0.908634
H	 -1.184406	 1.155156	 0.838676
O	 1.172093	 0.457955	 -0.054438
H	 0.052476	 -1.081302	 -0.804627
H	 0.076323	 -0.955658	 0.947560
C	 2.284203	 -0.115626	 -0.658953
H	 2.072026	 -0.408741	 -1.684789
H	 3.074812	 0.620308	 -0.663855
H	 2.624576	 -0.992798	 -0.113759

	symmetry c1
}
set optking {
	frozen_dihedral = ("
		10 7 4 8
	")
}

ee,wfn = optimize('scf', return_wfn=True)
oeprop( wfn, 'DIPOLE', 'QUADRUPOLE', 'MULLIKEN_CHARGES')
f=open( 'psi4out.xyz', 'w' )
f.write( "13  " )
f.write( str(ee) + "\n" )
f.write( MOL.save_string_xyz() )
f.close()
--------------------------------------------------------------------------

    Molecular point group: c1
  Charge       = 0
  Multiplicity = 1
  Basis Set: CC-PVTZ
  Basis Set:
  @DF-RHF Final Energy:  -268.06038723656059
    Total Energy =                       -268.0603872365603024
    Molecular point group: c1
  Basis Set: CC-PVTZ
  Basis Set:
  Basis Set: CC-PVTZ
  Basis Set:
  @DF-RHF Final Energy:  -268.06048128096836
    Total Energy =                       -268.0604812809683608
  Basis Set: CC-PVTZ
  Basis Set:
  Basis Set: CC-PVTZ
  Basis Set:
  @DF-RHF Final Energy:  -268.06054483645647
    Total Energy =                       -268.0605448364565859
  Basis Set: CC-PVTZ
  Basis Set:
  Charge       = 0
  Multiplicity = 1
  Basis Set: CC-PVTZ
  Basis Set:

    Orbital Energies (a.u.)
    -----------------------

    Doubly Occupied:

       1A    -20.554720     2A    -20.553072     3A    -11.269137
       4A    -11.268575     5A    -11.267573     6A     -1.390038
       7A     -1.369206     8A     -1.019526     9A     -0.915373
      10A     -0.842965    11A     -0.712136    12A     -0.672206
      13A     -0.663740    14A     -0.642903    15A     -0.592600
      16A     -0.570478    17A     -0.553476    18A     -0.491293
      19A     -0.478295    20A     -0.451248    21A     -0.417324

  @DF-RHF Final Energy:  -268.06054589076814

   => Energetics <=

    Nuclear Repulsion Energy =            190.4664634401546834
    One-Electron Energy =                -743.6622547393906189
    Two-Electron Energy =                 285.1352454084677674
    DFT Exchange-Correlation Energy =       0.0000000000000000
    Empirical Dispersion Energy =           0.0000000000000000
    PCM Polarization Energy =               0.0000000000000000
    EFP Energy =                            0.0000000000000000
    Total Energy =                       -268.0605458907681395
    Molecular point group: c1
  Basis Set: CC-PVTZ
  Basis Set:

  -Total Gradient:
     Atom            X                  Y                   Z
    ------   -----------------  -----------------  -----------------
       1       -0.000017767932     0.000006035712     0.000024287177
       2       -0.000101778351    -0.000061562704    -0.000035480533
       3        0.000066100676     0.000013059798     0.000003449253
       4       -0.001984791296     0.002695894590    -0.002749194915
       5       -0.000001400744    -0.000003755920     0.000019920255
       6        0.000016876445    -0.000039446626    -0.000037014122
       7        0.001196410965    -0.001586061617     0.003262863263
       8        0.001310957581    -0.001768670774     0.001568420154
       9       -0.000017531329    -0.000003378409    -0.000031333038
      10       -0.000433872007     0.000727425296    -0.002049200254
      11       -0.000017378339     0.000010661232     0.000039908390
      12        0.000016573957    -0.000024170841    -0.000005712999
      13       -0.000032399617     0.000033970261    -0.000010912630

  **** Optimization is complete! (in 4 steps) ****
    Final optimized geometry and variables:
    Molecular point group: c1

    Geometry (in Angstrom), charge = 0, multiplicity = 1:

    H           -2.513960357173    -0.714275461683    -0.582395289648
    O           -2.342975638071    -0.229315460455     0.204024202182
    C           -1.156003330726     0.501843835369     0.074436388126
    C            0.063780352787    -0.395619375557     0.140614658611
    H           -1.139061736218     1.074726712698    -0.847646094399
    H           -1.126530656210     1.203691529786     0.895530515687
    O            1.206564717031     0.399588482698     0.096611169676
    H            0.058829516164    -1.111037513944    -0.681199297781
    H            0.036605088138    -0.974893791901     1.060597664244
    C            2.333801816800    -0.200736594239    -0.451932266738
    H            2.163860670049    -0.493460430413    -1.485140759139
    H            3.138182096502     0.519630449445    -0.421688359766
    H            2.634474837100    -1.081398127928     0.111144208641

  Mulliken Charges: (a.u.)
   Center  Symbol    Alpha    Beta     Spin     Total
       1     H     0.39494  0.39494  0.00000  0.21012
       2     O     4.20117  4.20117  0.00000 -0.40234
       3     C     2.97281  2.97281  0.00000  0.05438
       4     C     2.96707  2.96707  0.00000  0.06586
       5     H     0.46843  0.46843  0.00000  0.06314
       6     H     0.45239  0.45239  0.00000  0.09523
       7     O     4.17790  4.17790  0.00000 -0.35579
       8     H     0.48320  0.48320  0.00000  0.03360
       9     H     0.46297  0.46297  0.00000  0.07406
      10     C     3.03087  3.03087  0.00000 -0.06174
      11     H     0.47141  0.47141  0.00000  0.05719
      12     H     0.44712  0.44712  0.00000  0.10575
      13     H     0.46973  0.46973  0.00000  0.06055

   Total alpha = 21.00000, Total beta = 21.00000, Total charge = -0.00000

*** Psi4 exiting successfully. Buy a developer a beer!
