  ==> Input File <==

--------------------------------------------------------------------------
set {
	reference rhf
	basis 6-31G*
}

set_num_threads( 4 )
memory 2 gb

molecule MOL {
0 1

H	 2.845955	 -0.323208	 0.022310
C	 1.900140	 0.071967	 -0.330070
C	 0.778463	 -0.508087	 0.517968
H	 1.782469	 -0.206877	 -1.370777
H	 1.922247	 1.149867	 -0.254252
N	 -0.540928	 0.005139	 0.058438
H	 0.716718	 -1.581298	 0.454712
H	 0.859711	 -0.198647	 1.550086
O	 -1.404762	 -0.790529	 -0.141501
O	 -0.642758	 1.186526	 -0.077416

	symmetry c1
}
set optking {
	frozen_dihedral = ("
		9 6 3 2
	")
}

ee = optimize('scf')
oeprop('DIPOLE', 'QUADRUPOLE', 'MULLIKEN_CHARGES')
f=open( 'psi4out.xyz', 'w' )
f.write( "10  " )
f.write( str(ee) + "\n" )
f.write( MOL.save_string_xyz() )
f.close()
--------------------------------------------------------------------------

    Molecular point group: c1
  Charge       = 0
  Multiplicity = 1
  Basis Set: 6-31G*
  Basis Set:
  @DF-RHF Final Energy:  -282.70043501989056
    Total Energy =                       -282.7004350198905058
    Molecular point group: c1
  Basis Set: 6-31G*
  Basis Set:
  Basis Set: 6-31G*
  Basis Set:
  @DF-RHF Final Energy:  -282.69475915092835
    Total Energy =                       -282.6947591509282347
  Basis Set: 6-31G*
  Basis Set:
  Basis Set: 6-31G*
  Basis Set:
  @DF-RHF Final Energy:  -282.70031618414669
    Total Energy =                       -282.7003161841468000
  Basis Set: 6-31G*
  Basis Set:
  Basis Set: 6-31G*
  Basis Set:
  @DF-RHF Final Energy:  -282.70049807633927
    Total Energy =                       -282.7004980763393860
  Basis Set: 6-31G*
  Basis Set:
  Basis Set: 6-31G*
  Basis Set:
  @DF-RHF Final Energy:  -282.70049934328551
    Total Energy =                       -282.7004993432855144
  Basis Set: 6-31G*
  Basis Set:
  Charge       = 0
  Multiplicity = 1
  Basis Set: 6-31G*
  Basis Set:

    Orbital Energies (a.u.)
    -----------------------

    Doubly Occupied:

       1A    -20.604450     2A    -20.600907     3A    -15.849226
       4A    -11.304265     5A    -11.250026     6A     -1.632835
       7A     -1.418301     8A     -1.126694     9A     -0.967418
      10A     -0.836202    11A     -0.761604    12A     -0.739945
      13A     -0.726245    14A     -0.652002    15A     -0.591012
      16A     -0.563348    17A     -0.543195    18A     -0.486216
      19A     -0.478199    20A     -0.450477

  @DF-RHF Final Energy:  -282.70049968566946

   => Energetics <=

    Nuclear Repulsion Energy =            186.1350589852297048
    One-Electron Energy =                -754.5059844599082908
    Two-Electron Energy =                 285.6704257890091867
    DFT Exchange-Correlation Energy =       0.0000000000000000
    Empirical Dispersion Energy =           0.0000000000000000
    PCM Polarization Energy =               0.0000000000000000
    EFP Energy =                            0.0000000000000000
    Total Energy =                       -282.7004996856694561
    Molecular point group: c1
  Basis Set: 6-31G*
  Basis Set:

  -Total Gradient:
     Atom            X                  Y                   Z
    ------   -----------------  -----------------  -----------------
       1       -0.000000588958    -0.000001395476     0.000001424761
       2        0.000019344807     0.000052346345     0.000033173851
       3       -0.000028696324    -0.000059773632    -0.000015236741
       4       -0.000002314552    -0.000000914409     0.000001569793
       5       -0.000005391902    -0.000002025979     0.000004517591
       6        0.000036945851    -0.000036013154    -0.000105944416
       7        0.000000351631     0.000005237167    -0.000004497628
       8        0.000009643727     0.000003573078     0.000000737455
       9       -0.000026231125     0.000025628429     0.000083418596
      10       -0.000003063157     0.000013337630     0.000000836737

  **** Optimization is complete! (in 6 steps) ****
    Final optimized geometry and variables:
    Molecular point group: c1

    Geometry (in Angstrom), charge = 0, multiplicity = 1:

    H            2.850942951377    -0.329972999801     0.024431354191
    C            1.909562116256     0.070950120342    -0.333460110150
    C            0.782373318986    -0.502878544885     0.509037275242
    H            1.796626480965    -0.207307993640    -1.374802290383
    H            1.938129985963     1.148514375419    -0.259603141297
    N           -0.541724874245     0.006084718178     0.055077572895
    H            0.717540220748    -1.576345692344     0.453651778326
    H            0.860309361007    -0.193573314981     1.542333285055
    O           -1.401053206349    -0.795755780613    -0.139737253322
    O           -0.658653990283     1.187485831203    -0.064528472523

  Mulliken Charges: (a.u.)
   Center  Symbol    Alpha    Beta     Spin     Total
       1     H     0.40684  0.40684  0.00000  0.18633
       2     C     3.25599  3.25599  0.00000 -0.51198
       3     C     3.09410  3.09410  0.00000 -0.18820
       4     H     0.40362  0.40362  0.00000  0.19276
       5     H     0.39248  0.39248  0.00000  0.21503
       6     N     3.21839  3.21839  0.00000  0.56322
       7     H     0.38498  0.38498  0.00000  0.23004
       8     H     0.38633  0.38633  0.00000  0.22735
       9     O     4.22739  4.22739  0.00000 -0.45478
      10     O     4.22988  4.22988  0.00000 -0.45976

   Total alpha = 20.00000, Total beta = 20.00000, Total charge =  0.00000
