                              Psi4 1.0.54 Driver

  ==> Input File <==

--------------------------------------------------------------------------
set {
	reference rhf
	basis cc-pvtz
}

set_num_threads( 4 )
memory 2 gb

molecule MOL {
0 1

O	 3.219313	 0.959291	 -0.614106
C	 2.698710	 0.058177	 -0.050237
C	 1.246364	 -0.005813	 0.348416
O	 3.344101	 -1.038700	 0.312317
C	 0.453207	 1.232821	 -0.049003
H	 0.839270	 -0.907818	 -0.092281
H	 1.216683	 -0.160521	 1.422434
C	 -0.998367	 1.217982	 0.432195
H	 0.481498	 1.345443	 -1.127236
H	 0.951413	 2.105557	 0.354893
C	 -1.882951	 0.151251	 -0.211235
H	 -1.429490	 2.193659	 0.228843
H	 -1.019755	 1.099323	 1.513279
C	 -3.342450	 0.243269	 0.226009
H	 -1.826223	 0.246578	 -1.293162
H	 -1.508033	 -0.839650	 0.027695
C	 -4.270822	 -0.680986	 -0.556712
H	 -3.685365	 1.269480	 0.118119
H	 -3.415352	 0.009205	 1.285615
C	 -5.727272	 -0.582032	 -0.115419
H	 -4.199221	 -0.448163	 -1.615667
H	 -3.931085	 -1.707405	 -0.447629
H	 -6.358435	 -1.250157	 -0.690071
H	 -6.107914	 0.425595	 -0.245450
H	 -5.837434	 -0.842620	 0.932038
C	 4.720529	 -1.114346	 0.001449
H	 4.874321	 -1.055557	 -1.065852
H	 5.057824	 -2.067950	 0.373977
H	 5.264321	 -0.313596	 0.480350

	symmetry c1
}
set optking {
	frozen_dihedral = ("
		17 14 11 15
	")
}

ee,wfn = optimize('scf', return_wfn=True)
oeprop( wfn, 'DIPOLE', 'QUADRUPOLE', 'MULLIKEN_CHARGES')
f=open( 'psi4out.xyz', 'w' )
f.write( "29  " )
f.write( str(ee) + "\n" )
f.write( MOL.save_string_xyz() )
f.close()
--------------------------------------------------------------------------

    Molecular point group: c1
  Charge       = 0
  Multiplicity = 1
  Basis Set: CC-PVTZ
  Basis Set:
  @DF-RHF Final Energy:  -501.22468996473287
    Total Energy =                       -501.2246899647320788
    Molecular point group: c1
  Basis Set: CC-PVTZ
  Basis Set:
  Basis Set: CC-PVTZ
  Basis Set:
  @DF-RHF Final Energy:  -501.22468725012766
    Total Energy =                       -501.2246872501282269
  Basis Set: CC-PVTZ
  Basis Set:
  Basis Set: CC-PVTZ
  Basis Set:
  @DF-RHF Final Energy:  -501.22472141227581
    Total Energy =                       -501.2247214122758123
  Basis Set: CC-PVTZ
  Basis Set:
  Basis Set: CC-PVTZ
  Basis Set:
  @DF-RHF Final Energy:  -501.22465154655720
    Total Energy =                       -501.2246515465582206
  Basis Set: CC-PVTZ
  Basis Set:
  Basis Set: CC-PVTZ
  Basis Set:
  @DF-RHF Final Energy:  -501.22472741303579
    Total Energy =                       -501.2247274130357937
  Basis Set: CC-PVTZ
  Basis Set:
  Basis Set: CC-PVTZ
  Basis Set:
  @DF-RHF Final Energy:  -501.22472848080258
    Total Energy =                       -501.2247284808024688
  Basis Set: CC-PVTZ
  Basis Set:
  Charge       = 0
  Multiplicity = 1
  Basis Set: CC-PVTZ
  Basis Set:

    Orbital Energies (a.u.)
    -----------------------

    Doubly Occupied:

       1A    -20.596007     2A    -20.533845     3A    -11.364266
       4A    -11.278260     5A    -11.232960     6A    -11.217093
       7A    -11.215636     8A    -11.213947     9A    -11.213634
      10A    -11.212270    11A    -11.207098    12A     -1.471910
      13A     -1.365486    14A     -1.099294    15A     -1.068035
      16A     -1.020626    17A     -0.978147    18A     -0.929292
      19A     -0.862166    20A     -0.799850    21A     -0.791067
      22A     -0.765721    23A     -0.703101    24A     -0.685467
      25A     -0.676058    26A     -0.651568    27A     -0.629282
      28A     -0.605539    29A     -0.596602    30A     -0.581930
      31A     -0.567895    32A     -0.549805    33A     -0.533709
      34A     -0.531441    35A     -0.516697    36A     -0.512915
      37A     -0.497295    38A     -0.478107    39A     -0.470335
      40A     -0.463239    41A     -0.460271    42A     -0.457775
      43A     -0.443984    44A     -0.437555

  @DF-RHF Final Energy:  -501.22472913615422

   => Energetics <=

    Nuclear Repulsion Energy =            611.0071905957312310
    One-Electron Energy =               -1893.4894819422488581
    Two-Electron Energy =                 781.2575622103631758
    DFT Exchange-Correlation Energy =       0.0000000000000000
    Empirical Dispersion Energy =           0.0000000000000000
    PCM Polarization Energy =               0.0000000000000000
    EFP Energy =                            0.0000000000000000
    Total Energy =                       -501.2247291361545649
    Molecular point group: c1
  Basis Set: CC-PVTZ
  Basis Set:

  -Total Gradient:
     Atom            X                  Y                   Z
    ------   -----------------  -----------------  -----------------
       1       -0.000005121390    -0.000001773693     0.000012507854
       2        0.000004323918    -0.000026794915    -0.000012782437
       3        0.000013692634     0.000007234282     0.000000724007
       4       -0.000005540800     0.000020137931    -0.000003826429
       5        0.000000502561    -0.000000393981    -0.000007643138
       6        0.000005290788     0.000008508629     0.000002804041
       7       -0.000001294704     0.000000116930    -0.000001235760
       8        0.000007700734    -0.000003679276     0.000009989099
       9        0.000002253154    -0.000000462377     0.000004492826
      10        0.000002666492    -0.000006309136    -0.000002343221
      11        0.000076610650     0.002279845559    -0.000098879233
      12       -0.000000261142    -0.000003802322    -0.000001515792
      13       -0.000002246357     0.000001680590     0.000003092824
      14        0.000247353297    -0.001556398653     0.001024804070
      15       -0.000128209650    -0.001563353031    -0.000172513511
      16       -0.000007709939     0.000006775484    -0.000000518444
      17       -0.000195754851     0.000846218560    -0.000743039126
      18        0.000003840474     0.000001043611    -0.000000315474
      19        0.000000523883     0.000002118650     0.000000529579
      20       -0.000004213394    -0.000004900647    -0.000014554923
      21       -0.000008697565    -0.000000686732     0.000000708430
      22       -0.000003968621    -0.000007470953     0.000000227495
      23       -0.000006287726     0.000000660515     0.000000023542
      24        0.000002961567     0.000001189482     0.000000986002
      25        0.000006999316    -0.000001126422    -0.000005161078
      26        0.000012449974     0.000004771918    -0.000005766114
      27       -0.000008693904     0.000002153664     0.000008578924
      28       -0.000002918320    -0.000005212957     0.000002752589
      29       -0.000006251071    -0.000000090709    -0.000002126604

  **** Optimization is complete! (in 7 steps) ****
    Final optimized geometry and variables:
    Molecular point group: c1

    Geometry (in Angstrom), charge = 0, multiplicity = 1:

    O            3.232551276505     0.928088981191    -0.570595423307
    C            2.704089510270     0.028056215331    -0.012331510812
    C            1.248850869838    -0.030228990758     0.376621765032
    O            3.342090360589    -1.072678502078     0.351520204112
    C            0.464380781349     1.213668631155    -0.021699026886
    H            0.840456738419    -0.928822175514    -0.069752905371
    H            1.211344097834    -0.188389722633     1.449874403390
    C           -0.990774978299     1.204717817451     0.448935758696
    H            0.500994097925     1.330555169871    -1.099228504206
    H            0.964021437055     2.082254018301     0.389307966304
    C           -1.879158113309     0.154183394333    -0.214113581267
    H           -1.412639053243     2.186189007384     0.254872983372
    H           -1.021069276843     1.072674556897     1.528373865058
    C           -3.335314428739     0.224265023174     0.240025732300
    H           -1.832852791494     0.267959940223    -1.294701130876
    H           -1.499630268649    -0.841933953184    -0.004600299582
    C           -4.262295047092    -0.696297825820    -0.548780482134
    H           -3.691940834628     1.247277656303     0.144653843264
    H           -3.395390731665    -0.019728297635     1.297911396166
    C           -5.710943484465    -0.637109710130    -0.075915710852
    H           -4.216123332368    -0.431354696569    -1.601353831117
    H           -3.902347725475    -1.719344200792    -0.476813114810
    H           -6.342457543516    -1.296550652403    -0.660145259916
    H           -6.110632720271     0.367660829555    -0.164757380419
    H           -5.795715888904    -0.934042696249     0.964166378687
    C            4.720124082566    -1.153858534897     0.049218065809
    H            4.880916277062    -1.092974877261    -1.016921483416
    H            5.050716780966    -2.109969982833     0.421361977270
    H            5.264483511578    -0.356831047226     0.533645510953

  Mulliken Charges: (a.u.)
   Center  Symbol    Alpha    Beta     Spin     Total
       1     O     4.19700  4.19700  0.00000 -0.39399
       2     C     2.80478  2.80478  0.00000  0.39045
       3     C     3.10168  3.10168  0.00000 -0.20335
       4     O     4.14722  4.14722  0.00000 -0.29444
       5     C     3.09268  3.09268  0.00000 -0.18537
       6     H     0.43914  0.43914  0.00000  0.12173
       7     H     0.43992  0.43992  0.00000  0.12016
       8     C     3.10374  3.10374  0.00000 -0.20748
       9     H     0.44622  0.44622  0.00000  0.10755
      10     H     0.43956  0.43956  0.00000  0.12089
      11     C     3.09311  3.09311  0.00000 -0.18621
      12     H     0.44518  0.44518  0.00000  0.10965
      13     H     0.45369  0.45369  0.00000  0.09263
      14     C     3.08602  3.08602  0.00000 -0.17205
      15     H     0.45325  0.45325  0.00000  0.09351
      16     H     0.45389  0.45389  0.00000  0.09222
      17     C     3.08321  3.08321  0.00000 -0.16643
      18     H     0.45478  0.45478  0.00000  0.09044
      19     H     0.45438  0.45438  0.00000  0.09123
      20     C     3.15057  3.15057  0.00000 -0.30114
      21     H     0.45426  0.45426  0.00000  0.09149
      22     H     0.45522  0.45522  0.00000  0.08956
      23     H     0.44835  0.44835  0.00000  0.10331
      24     H     0.45498  0.45498  0.00000  0.09004
      25     H     0.45522  0.45522  0.00000  0.08955
      26     C     3.03813  3.03813  0.00000 -0.07625
      27     H     0.45434  0.45434  0.00000  0.09132
      28     H     0.44528  0.44528  0.00000  0.10944
      29     H     0.45422  0.45422  0.00000  0.09155

   Total alpha = 44.00000, Total beta = 44.00000, Total charge =  0.00000

*** Psi4 exiting successfully. Buy a developer a beer!
