  ==> Input File <==

--------------------------------------------------------------------------
set {
	reference rhf
	basis cc-pvtz
}

set_num_threads( 4 )
memory 2 gb

molecule MOL {
0 1

H	 1.128311	 0.207724	 1.465118
C	 1.134565	 0.093781	 0.372499
C	 0.062554	 0.862911	 -0.350953
O	 1.948932	 -0.587720	 -0.146651
C	 -0.098630	 0.420366	 -1.808618
H	 0.287991	 1.919082	 -0.279012
H	 -0.867309	 0.680732	 0.183127
C	 1.107062	 0.755938	 -2.681743
H	 -0.983223	 0.896451	 -2.215326
H	 -0.288611	 -0.648881	 -1.841226
H	 1.292017	 1.824206	 -2.694108
H	 0.944329	 0.433621	 -3.703149
H	 2.009237	 0.272623	 -2.323243

	symmetry c1
}
set optking {
	frozen_dihedral = ("
		6 3 2 4
	")
}

ee = optimize('scf')
oeprop('DIPOLE', 'QUADRUPOLE', 'MULLIKEN_CHARGES')
f=open( 'psi4out.xyz', 'w' )
f.write( "13  " )
f.write( str(ee) + "\n" )
f.write( MOL.save_string_xyz() )
f.close()
--------------------------------------------------------------------------

    Molecular point group: c1
  Charge       = 0
  Multiplicity = 1
  Basis Set: CC-PVTZ
  Basis Set:
  @DF-RHF Final Energy:  -231.06877002151347
    Total Energy =                       -231.0687700215136147
    Molecular point group: c1
  Basis Set: CC-PVTZ
  Basis Set:
  Basis Set: CC-PVTZ
  Basis Set:
  @DF-RHF Final Energy:  -231.07048733324933
    Total Energy =                       -231.0704873332492753
  Basis Set: CC-PVTZ
  Basis Set:
  Basis Set: CC-PVTZ
  Basis Set:
  @DF-RHF Final Energy:  -231.06921863439175
    Total Energy =                       -231.0692186343919161
  Basis Set: CC-PVTZ
  Basis Set:
  Basis Set: CC-PVTZ
  Basis Set:
  @DF-RHF Final Energy:  -231.07079287733211
    Total Energy =                       -231.0707928773321953
  Basis Set: CC-PVTZ
  Basis Set:
  Basis Set: CC-PVTZ
  Basis Set:
  @DF-RHF Final Energy:  -231.07082216691734
    Total Energy =                       -231.0708221669170825
  Basis Set: CC-PVTZ
  Basis Set:
  Basis Set: CC-PVTZ
  Basis Set:
  @DF-RHF Final Energy:  -231.07082475427731
    Total Energy =                       -231.0708247542774245
  Basis Set: CC-PVTZ
  Basis Set:
  Charge       = 0
  Multiplicity = 1
  Basis Set: CC-PVTZ
  Basis Set:

    Orbital Energies (a.u.)
    -----------------------

    Doubly Occupied:

       1A    -20.553730     2A    -11.324048     3A    -11.237303
       4A    -11.224509     5A    -11.206701     6A     -1.409480
       7A     -1.078600     8A     -0.973670     9A     -0.849235
      10A     -0.768224    11A     -0.688078    12A     -0.646313
      13A     -0.618741    14A     -0.584369    15A     -0.569052
      16A     -0.523951    17A     -0.497013    18A     -0.484225
      19A     -0.483248    20A     -0.412973

  @DF-RHF Final Energy:  -231.07082514959387

   => Energetics <=

    Nuclear Repulsion Energy =            176.4700815453681457
    One-Electron Energy =                -662.8148874957041699
    Two-Electron Energy =                 255.2739808007422084
    DFT Exchange-Correlation Energy =       0.0000000000000000
    Empirical Dispersion Energy =           0.0000000000000000
    PCM Polarization Energy =               0.0000000000000000
    EFP Energy =                            0.0000000000000000
    Total Energy =                       -231.0708251495938157
    Molecular point group: c1
  Basis Set: CC-PVTZ
  Basis Set:

  -Total Gradient:
     Atom            X                  Y                   Z
    ------   -----------------  -----------------  -----------------
       1        0.000025086120    -0.000007153451    -0.000001903128
       2       -0.002098536506    -0.002694142607    -0.000045334397
       3       -0.000734219916     0.001215592008     0.002082454442
       4        0.001611613649     0.001797775521    -0.000200667734
       5       -0.000001755412     0.000006802772    -0.000012975908
       6        0.001212307297    -0.000321911117    -0.001824240118
       7       -0.000007381040     0.000006571439     0.000002193450
       8        0.000001005967    -0.000002088388     0.000006623383
       9        0.000013969611     0.000003315342    -0.000011698513
      10       -0.000002738331    -0.000001018812    -0.000003571483
      11       -0.000006234865    -0.000001669614     0.000004101932
      12        0.000004475306    -0.000004516728     0.000014577948
      13       -0.000017591880     0.000002443634    -0.000009559874

  **** Optimization is complete! (in 7 steps) ****
    Final optimized geometry and variables:
    Molecular point group: c1

    Geometry (in Angstrom), charge = 0, multiplicity = 1:

    H            0.230330413125    -0.022063854044     2.426939853531
    C            0.258865150174    -0.223042730725     1.348586527919
    C           -0.735389153063     0.568173514725     0.539649492537
    O            1.046111539351    -0.989643865353     0.912261162712
    C           -0.903471837863     0.125572648757    -0.913040430027
    H           -0.405232566636     1.605422968827     0.581368509333
    H           -1.681290392305     0.533257431706     1.072841916837
    C            0.246431388934     0.540845138828    -1.826601057599
    H           -1.827270062322     0.552078722039    -1.289458522613
    H           -1.022530968752    -0.951368248211    -0.944009402768
    H            0.358739665070     1.620603558678    -1.841365061924
    H            0.059842017010     0.217259419739    -2.843949871565
    H            1.182020350576     0.106840764184    -1.503075046729

  Mulliken Charges: (a.u.)
   Center  Symbol    Alpha    Beta     Spin     Total
       1     H     0.44939  0.44939  0.00000  0.10122
       2     C     2.92028  2.92028  0.00000  0.15944
       3     C     3.09682  3.09682  0.00000 -0.19365
       4     O     4.16717  4.16717  0.00000 -0.33433
       5     C     3.08353  3.08353  0.00000 -0.16705
       6     H     0.44687  0.44687  0.00000  0.10627
       7     H     0.44008  0.44008  0.00000  0.11984
       8     C     3.15053  3.15053  0.00000 -0.30105
       9     H     0.44770  0.44770  0.00000  0.10460
      10     H     0.44829  0.44829  0.00000  0.10343
      11     H     0.45946  0.45946  0.00000  0.08108
      12     H     0.44886  0.44886  0.00000  0.10227
      13     H     0.44103  0.44103  0.00000  0.11793

   Total alpha = 20.00000, Total beta = 20.00000, Total charge = -0.00000
