  ==> Input File <==

--------------------------------------------------------------------------
set {
	reference rhf
	basis 6-31G*
}

set_num_threads( 1 )
memory 2 gb

molecule MOL {
0 1

H	 2.609894	 -2.548674	 2.392036
C	 2.582373	 -1.996192	 1.458357
C	 1.296612	 -1.178964	 1.340379
H	 3.458979	 -1.355161	 1.428896
H	 2.670746	 -2.713957	 0.647648
C	 1.217350	 -0.386724	 0.039429
H	 1.214912	 -0.486496	 2.172367
H	 0.438758	 -1.846077	 1.406998
N	 0.000003	 0.397874	 -0.023260
H	 2.059483	 0.297963	 -0.015159
H	 1.317793	 -1.068809	 -0.811481
C	 -1.217365	 -0.386708	 0.039277
H	 -0.000031	 1.072115	 0.718656
C	 -2.452633	 0.504241	 -0.042481
H	 -1.215291	 -1.074557	 -0.802042
H	 -1.269739	 -1.003477	 0.942735
C	 -3.758029	 -0.289423	 -0.010781
H	 -2.394220	 1.093569	 -0.952170
H	 -2.440793	 1.210787	 0.785871
H	 -3.816659	 -0.981993	 -0.845726
H	 -4.617837	 0.370165	 -0.069296
H	 -3.847478	 -0.867502	 0.904682

	symmetry c1
}
set optking {
	frozen_dihedral = ("
		15 12 14 18
	")
}

ee = energy('scf')
oeprop('DIPOLE', 'QUADRUPOLE', 'MULLIKEN_CHARGES')
f=open( 'psi4out.xyz', 'w' )
f.write( "22  " )
f.write( str(ee) + "\n" )
f.write( MOL.save_string_xyz() )
f.close()
--------------------------------------------------------------------------

    Molecular point group: c1

    Geometry (in Angstrom), charge = 0, multiplicity = 1:

       Center              X                  Y                   Z               Mass
    ------------   -----------------  -----------------  -----------------  -----------------
           H          2.944716251131    -2.061993319040     1.981334575306     1.007825032070
           C          2.917195251131    -1.509511319040     1.047655575306    12.000000000000
           C          1.631434251131    -0.692283319040     0.929677575306    12.000000000000
           H          3.793801251131    -0.868480319040     1.018194575306     1.007825032070
           H          3.005568251131    -2.227276319040     0.236946575306     1.007825032070
           C          1.552172251131     0.099956680960    -0.371272424694    12.000000000000
           H          1.549734251131     0.000184680960     1.761665575306     1.007825032070
           H          0.773580251131    -1.359396319040     0.996296575306     1.007825032070
           N          0.334825251131     0.884554680960    -0.433961424694    14.003074004780
           H          2.394305251131     0.784643680960    -0.425860424694     1.007825032070
           H          1.652615251131    -0.582128319040    -1.222182424694     1.007825032070
           C         -0.882542748869     0.099972680960    -0.371424424694    12.000000000000
           H          0.334791251131     1.558795680960     0.307954575306     1.007825032070
           C         -2.117810748869     0.990921680960    -0.453182424694    12.000000000000
           H         -0.880468748869    -0.587876319040    -1.212743424694     1.007825032070
           H         -0.934916748869    -0.516796319040     0.532033575306     1.007825032070
           C         -3.423206748869     0.197257680960    -0.421482424694    12.000000000000
           H         -2.059397748869     1.580249680960    -1.362871424694     1.007825032070
           H         -2.105970748869     1.697467680960     0.375169575306     1.007825032070
           H         -3.481836748869    -0.495312319040    -1.256427424694     1.007825032070
           H         -4.283014748869     0.856845680960    -0.479997424694     1.007825032070
           H         -3.512655748869    -0.380821319040     0.493980575306     1.007825032070

  Charge       = 0
  Multiplicity = 1
  Basis Set: 6-31G*
  Basis Set:

    Orbital Energies (a.u.)
    -----------------------

    Doubly Occupied:

       1A    -15.532597     2A    -11.239036     3A    -11.236482
       4A    -11.212894     5A    -11.211482     6A    -11.209846
       7A    -11.209389     8A     -1.207355     9A     -1.057032
      10A     -1.026013    11A     -0.928822    12A     -0.872610
      13A     -0.811393    14A     -0.796200    15A     -0.662638
      16A     -0.636846    17A     -0.616916    18A     -0.599652
      19A     -0.580700    20A     -0.557908    21A     -0.544140
      22A     -0.522685    23A     -0.503337    24A     -0.495673
      25A     -0.484721    26A     -0.472410    27A     -0.466749
      28A     -0.459869    29A     -0.351400

  @DF-RHF Final Energy:  -290.37674339970766

   => Energetics <=

    Nuclear Repulsion Energy =            319.7608950928564013
    One-Electron Energy =               -1025.2616502609007512
    Two-Electron Energy =                 415.1240117683374820
    DFT Exchange-Correlation Energy =       0.0000000000000000
    Empirical Dispersion Energy =           0.0000000000000000
    PCM Polarization Energy =               0.0000000000000000
    EFP Energy =                            0.0000000000000000
    Total Energy =                       -290.3767433997069247

  Mulliken Charges: (a.u.)
   Center  Symbol    Alpha    Beta     Spin     Total
       1     H     0.41874  0.41874  0.00000  0.16253
       2     C     3.24239  3.24239  0.00000 -0.48478
       3     C     3.16190  3.16190  0.00000 -0.32381
       4     H     0.42198  0.42198  0.00000  0.15605
       5     H     0.42131  0.42131  0.00000  0.15738
       6     C     3.05745  3.05745  0.00000 -0.11490
       7     H     0.42672  0.42672  0.00000  0.14657
       8     H     0.41835  0.41835  0.00000  0.16330
       9     N     3.84935  3.84935  0.00000 -0.69870
      10     H     0.41841  0.41841  0.00000  0.16318
      11     H     0.42000  0.42000  0.00000  0.16001
      12     C     3.05515  3.05515  0.00000 -0.11031
      13     H     0.33503  0.33503  0.00000  0.32993
      14     C     3.15349  3.15349  0.00000 -0.30698
      15     H     0.42197  0.42197  0.00000  0.15607
      16     H     0.43378  0.43378  0.00000  0.13244
      17     C     3.24321  3.24321  0.00000 -0.48643
      18     H     0.41305  0.41305  0.00000  0.17390
      19     H     0.42712  0.42712  0.00000  0.14576
      20     H     0.42084  0.42084  0.00000  0.15831
      21     H     0.41780  0.41780  0.00000  0.16439
      22     H     0.42196  0.42196  0.00000  0.15608

   Total alpha = 29.00000, Total beta = 29.00000, Total charge = -0.00000
