  ==> Input File <==

--------------------------------------------------------------------------
set {
	reference rhf
	basis 6-31G*
}

set_num_threads( 1 )
memory 2 gb

molecule MOL {
0 1

O	 -2.821601	 1.309235	 -0.001213
C	 -2.668563	 0.129746	 -0.000350
C	 -3.801572	 -0.864014	 -0.000442
O	 -1.481751	 -0.454642	 0.000584
H	 -4.417280	 -0.689587	 -0.874708
H	 -3.443784	 -1.883046	 -0.000565
H	 -4.417179	 -0.689832	 0.873954
C	 -0.334255	 0.388708	 0.000906
C	 0.891947	 -0.504646	 0.000751
H	 -0.365390	 1.025305	 -0.873475
H	 -0.365484	 1.024911	 0.875569
C	 2.191998	 0.301789	 0.000897
H	 0.855148	 -1.151283	 -0.871571
H	 0.855132	 -1.151660	 0.872805
C	 3.441114	 -0.581407	 0.000108
H	 2.215074	 0.954890	 -0.869742
H	 2.215465	 0.953923	 0.872248
C	 4.124951	 -0.643942	 -1.364927
H	 3.170489	 -1.586666	 0.315214
H	 4.145288	 -0.208375	 0.740416
H	 3.455911	 -1.045258	 -2.120801
H	 5.006130	 -1.277019	 -1.333713
H	 4.438334	 0.343309	 -1.692245

	symmetry c1
}
set optking {
	frozen_dihedral = ("
		13 9 8 10,
		2 4 8 10,
		16 12 9 13,
		1 2 4 8
	")
}

ee = energy('scf')
oeprop('DIPOLE', 'QUADRUPOLE', 'MULLIKEN_CHARGES')
f=open( 'psi4out.xyz', 'w' )
f.write( "23  " )
f.write( str(ee) + "\n" )
f.write( MOL.save_string_xyz() )
f.close()
--------------------------------------------------------------------------

    Molecular point group: c1

    Geometry (in Angstrom), charge = 0, multiplicity = 1:

       Center              X                  Y                   Z               Mass
    ------------   -----------------  -----------------  -----------------  -----------------
           O         -2.750639812833     1.409454844787     0.156246141896    15.994914619560
           C         -2.597601812833     0.229965844787     0.157109141896    12.000000000000
           C         -3.730610812833    -0.763794155213     0.157017141896    12.000000000000
           O         -1.410789812833    -0.354422155213     0.158043141896    15.994914619560
           H         -4.346318812833    -0.589367155213    -0.717248858104     1.007825032070
           H         -3.372822812833    -1.782826155213     0.156894141896     1.007825032070
           H         -4.346217812833    -0.589612155213     1.031413141896     1.007825032070
           C         -0.263293812833     0.488927844787     0.158365141896    12.000000000000
           C          0.962908187167    -0.404426155213     0.158210141896    12.000000000000
           H         -0.294428812833     1.125524844787    -0.716015858104     1.007825032070
           H         -0.294522812833     1.125130844787     1.033028141896     1.007825032070
           C          2.262959187167     0.402008844787     0.158356141896    12.000000000000
           H          0.926109187167    -1.051063155213    -0.714111858104     1.007825032070
           H          0.926093187167    -1.051440155213     1.030264141896     1.007825032070
           C          3.512075187167    -0.481187155213     0.157567141896    12.000000000000
           H          2.286035187167     1.055109844787    -0.712282858104     1.007825032070
           H          2.286426187167     1.054142844787     1.029707141896     1.007825032070
           C          4.195912187167    -0.543722155213    -1.207467858104    12.000000000000
           H          3.241450187167    -1.486446155213     0.472673141896     1.007825032070
           H          4.216249187167    -0.108155155213     0.897875141896     1.007825032070
           H          3.526872187167    -0.945038155213    -1.963341858104     1.007825032070
           H          5.077091187167    -1.176799155213    -1.176253858104     1.007825032070
           H          4.509295187167     0.443528844787    -1.534785858104     1.007825032070

  Charge       = 0
  Multiplicity = 1
  Basis Set: 6-31G*
  Basis Set:

    Orbital Energies (a.u.)
    -----------------------

    Doubly Occupied:

       1A    -20.602922     2A    -20.540476     3A    -11.374038
       4A    -11.281131     5A    -11.232385     6A    -11.224595
       7A    -11.222542     8A    -11.220259     9A    -11.213229
      10A     -1.467903    11A     -1.360679    12A     -1.094684
      13A     -1.041813    14A     -1.002631    15A     -0.930626
      16A     -0.846658    17A     -0.799522    18A     -0.773555
      19A     -0.691201    20A     -0.685366    21A     -0.669272
      22A     -0.635079    23A     -0.615702    24A     -0.596208
      25A     -0.579851    26A     -0.571461    27A     -0.548179
      28A     -0.532151    29A     -0.529136    30A     -0.505065
      31A     -0.499677    32A     -0.476310    33A     -0.464599
      34A     -0.462573    35A     -0.451249    36A     -0.435171

  @DF-RHF Final Energy:  -422.97440325283992

   => Energetics <=

    Nuclear Repulsion Energy =            452.2020682738658479
    One-Electron Energy =               -1471.9971146453342499
    Two-Electron Energy =                 596.8206431186273448
    DFT Exchange-Correlation Energy =       0.0000000000000000
    Empirical Dispersion Energy =           0.0000000000000000
    PCM Polarization Energy =               0.0000000000000000
    EFP Energy =                            0.0000000000000000
    Total Energy =                       -422.9744032528410571

  Mulliken Charges: (a.u.)
   Center  Symbol    Alpha    Beta     Spin     Total
       1     O     4.28391  4.28391  0.00000 -0.56783
       2     C     2.61534  2.61534  0.00000  0.76932
       3     C     3.28774  3.28774  0.00000 -0.57548
       4     O     4.31268  4.31268  0.00000 -0.62535
       5     H     0.39750  0.39750  0.00000  0.20500
       6     H     0.39990  0.39990  0.00000  0.20020
       7     H     0.39751  0.39751  0.00000  0.20499
       8     C     2.99611  2.99611  0.00000  0.00778
       9     C     3.16676  3.16676  0.00000 -0.33352
      10     H     0.41064  0.41064  0.00000  0.17873
      11     H     0.41063  0.41063  0.00000  0.17875
      12     C     3.16344  3.16344  0.00000 -0.32688
      13     H     0.41415  0.41415  0.00000  0.17171
      14     H     0.41363  0.41363  0.00000  0.17274
      15     C     3.15452  3.15452  0.00000 -0.30904
      16     H     0.41842  0.41842  0.00000  0.16317
      17     H     0.41822  0.41822  0.00000  0.16355
      18     C     3.24074  3.24074  0.00000 -0.48148
      19     H     0.41916  0.41916  0.00000  0.16168
      20     H     0.41844  0.41844  0.00000  0.16313
      21     H     0.42146  0.42146  0.00000  0.15708
      22     H     0.41882  0.41882  0.00000  0.16236
      23     H     0.42030  0.42030  0.00000  0.15939

   Total alpha = 36.00000, Total beta = 36.00000, Total charge =  0.00000
