  ==> Input File <==

--------------------------------------------------------------------------
set {
	reference rhf
	basis 6-31G*
}

set_num_threads( 4 )
memory 2 gb

molecule MOL {
0 1

O	 -1.879349	 -0.831963	 1.795409
C	 -1.623389	 0.119752	 1.131336
C	 -2.371474	 1.424854	 1.169081
O	 -0.632575	 0.154573	 0.251549
H	 -2.776465	 1.643360	 0.187661
H	 -3.169757	 1.364342	 1.893594
H	 -1.692740	 2.228458	 1.430415
C	 0.160891	 -1.019931	 0.106212
C	 1.589627	 -0.672828	 0.480843
H	 0.089836	 -1.367806	 -0.916050
H	 -0.238459	 -1.792301	 0.749618
C	 2.246377	 0.346236	 -0.452210
H	 2.163194	 -1.597435	 0.473358
H	 1.604769	 -0.303424	 1.502885
C	 3.691736	 0.652107	 -0.061850
H	 2.219579	 -0.032311	 -1.472055
H	 1.666466	 1.263317	 -0.447249
H	 4.134505	 1.377213	 -0.737283
H	 4.305508	 -0.243868	 -0.089969
H	 3.748266	 1.059562	 0.943567

	symmetry c1
}
set optking {
	frozen_dihedral = ("
		2 4 8 10
	")
}

ee = optimize('scf')
oeprop('DIPOLE', 'QUADRUPOLE', 'MULLIKEN_CHARGES')
f=open( 'psi4out.xyz', 'w' )
f.write( "20  " )
f.write( str(ee) + "\n" )
f.write( MOL.save_string_xyz() )
f.close()
--------------------------------------------------------------------------

    Molecular point group: c1
  Charge       = 0
  Multiplicity = 1
  Basis Set: 6-31G*
  Basis Set:
  @DF-RHF Final Energy:  -383.94266374419726
    Total Energy =                       -383.9426637441977164
    Molecular point group: c1
  Basis Set: 6-31G*
  Basis Set:
  Basis Set: 6-31G*
  Basis Set:
  @DF-RHF Final Energy:  -383.94303051752325
    Total Energy =                       -383.9430305175231979
  Basis Set: 6-31G*
  Basis Set:
  Basis Set: 6-31G*
  Basis Set:
  @DF-RHF Final Energy:  -383.94351459664188
    Total Energy =                       -383.9435145966422169
  Basis Set: 6-31G*
  Basis Set:
  Basis Set: 6-31G*
  Basis Set:
  @DF-RHF Final Energy:  -383.94354311038614
    Total Energy =                       -383.9435431103861447
  Basis Set: 6-31G*
  Basis Set:
  Basis Set: 6-31G*
  Basis Set:
  @DF-RHF Final Energy:  -383.94364370979264
    Total Energy =                       -383.9436437097925818
  Basis Set: 6-31G*
  Basis Set:
  Basis Set: 6-31G*
  Basis Set:
  @DF-RHF Final Energy:  -383.94366064299248
    Total Energy =                       -383.9436606429924268
  Basis Set: 6-31G*
  Basis Set:
  Charge       = 0
  Multiplicity = 1
  Basis Set: 6-31G*
  Basis Set:

    Orbital Energies (a.u.)
    -----------------------

    Doubly Occupied:

       1A    -20.600885     2A    -20.543846     3A    -11.376345
       4A    -11.280822     5A    -11.232989     6A    -11.224918
       7A    -11.220175     8A    -11.213141     9A     -1.465482
      10A     -1.362959    11A     -1.085046    12A     -1.028343
      13A     -0.980557    14A     -0.883924    15A     -0.817142
      16A     -0.762247    17A     -0.696140    18A     -0.684184
      19A     -0.660529    20A     -0.631058    21A     -0.597958
      22A     -0.594016    23A     -0.569456    24A     -0.564245
      25A     -0.539773    26A     -0.524964    27A     -0.517924
      28A     -0.489506    29A     -0.474933    30A     -0.465318
      31A     -0.443575    32A     -0.439451

  @DF-RHF Final Energy:  -383.94365968773423

   => Energetics <=

    Nuclear Repulsion Energy =            386.1410192447182226
    One-Electron Energy =               -1288.2256561731928741
    Two-Electron Energy =                 518.1409772407400851
    DFT Exchange-Correlation Energy =       0.0000000000000000
    Empirical Dispersion Energy =           0.0000000000000000
    PCM Polarization Energy =               0.0000000000000000
    EFP Energy =                            0.0000000000000000
    Total Energy =                       -383.9436596877345664
    Molecular point group: c1
  Basis Set: 6-31G*
  Basis Set:

  -Total Gradient:
     Atom            X                  Y                   Z
    ------   -----------------  -----------------  -----------------
       1       -0.000031490540    -0.000034898608    -0.000157499648
       2        0.000062614487     0.000009129757     0.000077541928
       3       -0.000083585152    -0.000024649496    -0.000088585198
       4        0.000092548396     0.000041242897     0.000169138968
       5        0.000000910022     0.000017446219     0.000000220333
       6        0.000006167933    -0.000004010314    -0.000007043388
       7        0.000003599623     0.000003400578     0.000004534694
       8        0.000175688963     0.000242427857     0.000027501298
       9        0.000011461407    -0.000067433389    -0.000058127351
      10       -0.000256264513    -0.000136115547     0.000094737816
      11        0.000007152405    -0.000016918106    -0.000019103044
      12        0.000030345311    -0.000083155418    -0.000028465100
      13        0.000006114205    -0.000021606474    -0.000031133845
      14        0.000017008548    -0.000015869358    -0.000010270407
      15       -0.000026307860     0.000067250141     0.000054973610
      16        0.000024725977    -0.000003505977     0.000000024523
      17       -0.000034796540     0.000012279476    -0.000044697097
      18       -0.000008110258     0.000017203277     0.000017449082
      19       -0.000021352030     0.000003924727    -0.000018208714
      20        0.000023569620    -0.000006142243     0.000017011537

  **** Optimization is complete! (in 7 steps) ****
    Final optimized geometry and variables:
    Molecular point group: c1

    Geometry (in Angstrom), charge = 0, multiplicity = 1:

    O           -2.066670132897    -0.826465781175     1.272284321426
    C           -1.778713119738     0.096025413910     0.581132022144
    C           -2.502749557749     1.415518541884     0.569379837672
    O           -0.775237788486     0.099064726975    -0.287221183562
    H           -2.888567114643     1.611302837476    -0.424378196886
    H           -3.312528956323     1.390963200383     1.283128494174
    H           -1.812951340113     2.214128953449     0.816744761327
    C            0.039253375388    -1.063178346302    -0.435141051970
    C            1.483326781804    -0.731567484596    -0.098352251706
    H           -0.058434162021    -1.371943607323    -1.468575381189
    H           -0.341094341487    -1.845926468525     0.200102848017
    C            2.106428100281     0.330060286151    -1.006147767567
    H            2.056808030266    -1.654140633428    -0.167121309018
    H            1.534602150097    -0.410203659270     0.939103041772
    C            3.555490652356     0.642939337250    -0.635344145006
    H            2.062851815008    -0.011455792182    -2.038440096305
    H            1.513637094790     1.237741514339    -0.957176244527
    H            3.973618192850     1.398338912047    -1.293098991102
    H            4.181016141597    -0.242325658625    -0.708574928398
    H            3.628228443035     1.014599378379     0.382847907603

  Mulliken Charges: (a.u.)
   Center  Symbol    Alpha    Beta     Spin     Total
       1     O     4.28290  4.28290  0.00000 -0.56581
       2     C     2.61941  2.61941  0.00000  0.76119
       3     C     3.28229  3.28229  0.00000 -0.56459
       4     O     4.30986  4.30986  0.00000 -0.61972
       5     H     0.40034  0.40034  0.00000  0.19933
       6     H     0.39710  0.39710  0.00000  0.20580
       7     H     0.40114  0.40114  0.00000  0.19771
       8     C     3.01414  3.01414  0.00000 -0.02828
       9     C     3.16266  3.16266  0.00000 -0.32532
      10     H     0.41447  0.41447  0.00000  0.17106
      11     H     0.39083  0.39083  0.00000  0.21834
      12     C     3.15478  3.15478  0.00000 -0.30955
      13     H     0.41931  0.41931  0.00000  0.16138
      14     H     0.41532  0.41532  0.00000  0.16936
      15     C     3.24022  3.24022  0.00000 -0.48044
      16     H     0.42315  0.42315  0.00000  0.15369
      17     H     0.41204  0.41204  0.00000  0.17592
      18     H     0.41775  0.41775  0.00000  0.16451
      19     H     0.42164  0.42164  0.00000  0.15672
      20     H     0.42065  0.42065  0.00000  0.15870

   Total alpha = 32.00000, Total beta = 32.00000, Total charge =  0.00000
