  ==> Input File <==

--------------------------------------------------------------------------
set {
	reference rhf
	basis 6-31G*
}

set_num_threads( 4 )
memory 2 gb

molecule MOL {
0 1

H	 3.297690	 -0.442402	 0.018187
C	 2.238257	 -0.257992	 0.014277
C	 1.665599	 0.453814	 -1.032745
C	 1.453314	 -0.731257	 1.052480
H	 2.281540	 0.817898	 -1.834982
C	 0.305354	 0.692417	 -1.040894
H	 1.899826	 -1.281459	 1.860656
C	 0.088813	 -0.491225	 1.043141
H	 -0.156588	 1.240320	 -1.840621
C	 -0.488460	 0.219100	 0.000000
H	 -0.526622	 -0.856544	 1.847336
C	 -1.949954	 0.470334	 0.000000
O	 -2.781584	 -0.381627	 0.000000
H	 -2.238022	 1.526388	 0.000000

	symmetry c1
}
set optking {
	frozen_dihedral = ("
		8 10 12 14
	")
}

ee = optimize('scf')
oeprop('DIPOLE', 'QUADRUPOLE', 'MULLIKEN_CHARGES')
f=open( 'psi4out.xyz', 'w' )
f.write( "14  " )
f.write( str(ee) + "\n" )
f.write( MOL.save_string_xyz() )
f.close()
--------------------------------------------------------------------------

    Molecular point group: c1
  Charge       = 0
  Multiplicity = 1
  Basis Set: 6-31G*
  Basis Set:
  @DF-RHF Final Energy:  -343.42225851524734
    Total Energy =                       -343.4222585152475631
    Molecular point group: c1
  Basis Set: 6-31G*
  Basis Set:
  Basis Set: 6-31G*
  Basis Set:
  @DF-RHF Final Energy:  -343.42076306372479
    Total Energy =                       -343.4207630637247348
  Basis Set: 6-31G*
  Basis Set:
  Basis Set: 6-31G*
  Basis Set:
  @DF-RHF Final Energy:  -343.42312950242996
    Total Energy =                       -343.4231295024298447
  Basis Set: 6-31G*
  Basis Set:
  Basis Set: 6-31G*
  Basis Set:
  @DF-RHF Final Energy:  -343.42329735414933
    Total Energy =                       -343.4232973541494403
  Basis Set: 6-31G*
  Basis Set:
  Basis Set: 6-31G*
  Basis Set:
  @DF-RHF Final Energy:  -343.42329979043598
    Total Energy =                       -343.4232997904359195
  Basis Set: 6-31G*
  Basis Set:
  Charge       = 0
  Multiplicity = 1
  Basis Set: 6-31G*
  Basis Set:

    Orbital Energies (a.u.)
    -----------------------

    Doubly Occupied:

       1A    -20.568853     2A    -11.334169     3A    -11.250487
       4A    -11.249320     5A    -11.247207     6A    -11.246199
       7A    -11.244343     8A    -11.243110     9A     -1.408244
      10A     -1.169905    11A     -1.045753    12A     -1.029922
      13A     -0.887665    14A     -0.841815    15A     -0.793208
      16A     -0.720807    17A     -0.677150    18A     -0.652057
      19A     -0.632627    20A     -0.616978    21A     -0.601473
      22A     -0.539044    23A     -0.527680    24A     -0.508362
      25A     -0.502620    26A     -0.422098    27A     -0.347530
      28A     -0.346562

  @DF-RHF Final Energy:  -343.42330043603624

   => Energetics <=

    Nuclear Repulsion Energy =            322.5462795834573626
    One-Electron Energy =               -1104.6287876788051108
    Two-Electron Energy =                 438.6592076593116758
    DFT Exchange-Correlation Energy =       0.0000000000000000
    Empirical Dispersion Energy =           0.0000000000000000
    PCM Polarization Energy =               0.0000000000000000
    EFP Energy =                            0.0000000000000000
    Total Energy =                       -343.4233004360360724
    Molecular point group: c1
  Basis Set: 6-31G*
  Basis Set:

  -Total Gradient:
     Atom            X                  Y                   Z
    ------   -----------------  -----------------  -----------------
       1        0.000003813303     0.000006647474    -0.000004566319
       2       -0.000017148616    -0.000053353273     0.000079885573
       3       -0.000079844480     0.000029344815    -0.000039194136
       4        0.000118424078     0.000023880866    -0.000054196020
       5        0.000009187319    -0.000005268824     0.000009987224
       6        0.000100873293    -0.000014566818    -0.000065338436
       7       -0.000003921215    -0.000000103139    -0.000003521994
       8        0.001020461253     0.005256580578     0.002724986652
       9       -0.000008155994    -0.000000327475     0.000008149832
      10       -0.001611703053    -0.007515074703    -0.001578642901
      11        0.000000286702     0.000000280023     0.000000571674
      12        0.000276239120     0.001982314337    -0.008471056642
      13       -0.000002250590     0.000030989575    -0.000000777047
      14        0.000193738879     0.000258656565     0.007393712541

  **** Optimization is complete! (in 6 steps) ****
    Final optimized geometry and variables:
    Molecular point group: c1

    Geometry (in Angstrom), charge = 0, multiplicity = 1:

    H            3.311869740463    -0.406934300421     0.020667603658
    C            2.249981801574    -0.239172331699     0.001480519043
    C            1.679769342272     0.465599044059    -1.047472710669
    C            1.454594573779    -0.718766249496     1.030057532663
    H            2.296935263858     0.843031775077    -1.842641399696
    C            0.314892299759     0.695579142814    -1.062366102613
    H            1.898481198619    -1.254049568794     1.849887282584
    C            0.085891829456    -0.509727867383     1.003646559135
    H           -0.124301744818     1.263207420271    -1.864881944607
    C           -0.490209095371     0.182233513908    -0.053313757733
    H           -0.538257017073    -0.888745934253     1.792226096822
    C           -1.953322010873     0.483456000415    -0.027281882548
    O           -2.798599328787    -0.338883751273     0.122977098110
    H           -2.216768933633     1.544873884812    -0.058460147607

  Mulliken Charges: (a.u.)
   Center  Symbol    Alpha    Beta     Spin     Total
       1     H     0.39529  0.39529  0.00000  0.20942
       2     C     3.09580  3.09580  0.00000 -0.19160
       3     C     3.10033  3.10033  0.00000 -0.20067
       4     C     3.10032  3.10032  0.00000 -0.20065
       5     H     0.39513  0.39513  0.00000  0.20974
       6     C     3.10427  3.10427  0.00000 -0.20854
       7     H     0.39470  0.39470  0.00000  0.21060
       8     C     3.09782  3.09782  0.00000 -0.19565
       9     H     0.39383  0.39383  0.00000  0.21233
      10     C     3.03734  3.03734  0.00000 -0.07469
      11     H     0.38516  0.38516  0.00000  0.22967
      12     C     2.84639  2.84639  0.00000  0.30721
      13     O     4.23127  4.23127  0.00000 -0.46253
      14     H     0.42232  0.42232  0.00000  0.15536

   Total alpha = 28.00000, Total beta = 28.00000, Total charge = -0.00000
