  ==> Input File <==

--------------------------------------------------------------------------
set {
	reference rhf
	basis 6-31G*
}

set_num_threads( 4 )
memory 2 gb

molecule MOL {
0 1

H	 -4.211504	 0.636397	 -0.114783
O	 -3.492534	 0.070398	 -0.356919
C	 -2.306886	 0.532354	 0.237577
C	 -1.177863	 -0.397191	 -0.171080
H	 -2.087748	 1.549415	 -0.084718
H	 -2.402958	 0.547690	 1.322416
C	 0.198102	 0.111031	 0.262842
H	 -1.208843	 -0.518759	 -1.250427
H	 -1.368741	 -1.376554	 0.258909
C	 1.331804	 -0.827780	 -0.158768
H	 0.361943	 1.100838	 -0.156218
H	 0.217265	 0.229072	 1.345532
C	 2.723619	 -0.410569	 0.329459
H	 1.342964	 -0.912588	 -1.244120
H	 1.116806	 -1.824343	 0.220779
C	 3.243875	 0.895854	 -0.272975
H	 3.424222	 -1.207124	 0.091250
H	 2.714788	 -0.329854	 1.414619
H	 3.251977	 0.848779	 -1.358681
H	 2.637085	 1.747371	 0.016682
H	 4.259473	 1.094070	 0.055697

	symmetry c1
}
set optking {
	frozen_dihedral = ("
		2 3 4 8
	")
}

ee = optimize('scf')
oeprop('DIPOLE', 'QUADRUPOLE', 'MULLIKEN_CHARGES')
f=open( 'psi4out.xyz', 'w' )
f.write( "21  " )
f.write( str(ee) + "\n" )
f.write( MOL.save_string_xyz() )
f.close()
--------------------------------------------------------------------------

    Molecular point group: c1
  Charge       = 0
  Multiplicity = 1
  Basis Set: 6-31G*
  Basis Set:
  @DF-RHF Final Energy:  -310.21258248472873
    Total Energy =                       -310.2125824847286708
    Molecular point group: c1
  Basis Set: 6-31G*
  Basis Set:
  Basis Set: 6-31G*
  Basis Set:
  @DF-RHF Final Energy:  -310.21259816261386
    Total Energy =                       -310.2125981626137445
  Basis Set: 6-31G*
  Basis Set:
  Basis Set: 6-31G*
  Basis Set:
  @DF-RHF Final Energy:  -310.21261515353325
    Total Energy =                       -310.2126151535331928
  Basis Set: 6-31G*
  Basis Set:
  Basis Set: 6-31G*
  Basis Set:
  @DF-RHF Final Energy:  -310.21261726073277
    Total Energy =                       -310.2126172607327135
  Basis Set: 6-31G*
  Basis Set:
  Basis Set: 6-31G*
  Basis Set:
  @DF-RHF Final Energy:  -310.21261578775352
    Total Energy =                       -310.2126157877535206
  Basis Set: 6-31G*
  Basis Set:
  Basis Set: 6-31G*
  Basis Set:
  @DF-RHF Final Energy:  -310.21261853624145
    Total Energy =                       -310.2126185362416209
  Basis Set: 6-31G*
  Basis Set:
  Charge       = 0
  Multiplicity = 1
  Basis Set: 6-31G*
  Basis Set:

    Orbital Energies (a.u.)
    -----------------------

    Doubly Occupied:

       1A    -20.551885     2A    -11.267074     3A    -11.215734
       4A    -11.215154     5A    -11.213577     6A    -11.210584
       7A    -11.208130     8A     -1.358682     9A     -1.086180
      10A     -1.033078    11A     -0.954402    12A     -0.875720
      13A     -0.807274    14A     -0.779099    15A     -0.692850
      16A     -0.660780    17A     -0.621107    18A     -0.608236
      19A     -0.587078    20A     -0.568194    21A     -0.537130
      22A     -0.519833    23A     -0.510423    24A     -0.487596
      25A     -0.479002    26A     -0.460434    27A     -0.455958
      28A     -0.443176    29A     -0.433734

  @DF-RHF Final Energy:  -310.21261859078038

   => Energetics <=

    Nuclear Repulsion Energy =            312.4354191411454167
    One-Electron Energy =               -1039.6118637240676890
    Two-Electron Energy =                 416.9638259921418921
    DFT Exchange-Correlation Energy =       0.0000000000000000
    Empirical Dispersion Energy =           0.0000000000000000
    PCM Polarization Energy =               0.0000000000000000
    EFP Energy =                            0.0000000000000000
    Total Energy =                       -310.2126185907803801
    Molecular point group: c1
  Basis Set: 6-31G*
  Basis Set:

  -Total Gradient:
     Atom            X                  Y                   Z
    ------   -----------------  -----------------  -----------------
       1       -0.000003334594    -0.000000260660    -0.000001622648
       2        0.000212164813     0.000752028656    -0.001015745154
       3       -0.000502211558    -0.001251496310     0.001344386010
       4        0.001271132332     0.001803135506    -0.000515285731
       5       -0.000015819307    -0.000001864027    -0.000006451453
       6        0.000010690243     0.000006483318     0.000001910771
       7        0.000004646234    -0.000016935689     0.000024931204
       8       -0.000998909626    -0.001300930049     0.000168128239
       9        0.000010554137     0.000005404810    -0.000004544911
      10        0.000003134615     0.000006019679     0.000003322691
      11       -0.000010451729    -0.000011727027    -0.000002869707
      12        0.000013931200     0.000007545172     0.000010392373
      13       -0.000000813919    -0.000002128822     0.000000819450
      14        0.000000347504     0.000003923086    -0.000001251690
      15        0.000002000134    -0.000000233832    -0.000002417249
      16        0.000003101514     0.000002036225    -0.000001812831
      17       -0.000003317477    -0.000003392645     0.000000929080
      18        0.000000093327     0.000001539215    -0.000000235099
      19        0.000003156315     0.000001083890    -0.000002267028
      20        0.000001348923    -0.000001496112    -0.000001080267
      21       -0.000001443080     0.000001265617     0.000000763950

  **** Optimization is complete! (in 7 steps) ****
    Final optimized geometry and variables:
    Molecular point group: c1

    Geometry (in Angstrom), charge = 0, multiplicity = 1:

    H           -4.225882426265     0.591824407007    -0.054254006428
    O           -3.499583499999     0.050206895109    -0.328241430874
    C           -2.313980277490     0.515090241309     0.264168753852
    C           -1.179729475615    -0.401305996545    -0.161534894817
    H           -2.106679176770     1.536070312640    -0.054190589230
    H           -2.401390395894     0.523899175012     1.349590411480
    C            0.194944642555     0.101802328109     0.280415708469
    H           -1.219564775862    -0.508886001255    -1.241858966648
    H           -1.365109681646    -1.390495121074     0.249152723833
    C            1.327710266387    -0.842947455970    -0.130120333385
    H            0.364965519680     1.089477354655    -0.140624262367
    H            0.207467292472     0.223357851000     1.363039040588
    C            2.718677218092    -0.426318339339     0.361079713732
    H            1.342914696030    -0.934801226594    -1.214855945176
    H            1.108510731296    -1.836425927017     0.255026564717
    C            3.246060794487     0.873536235790    -0.249344334931
    H            3.417717831699    -1.227007638545     0.132351489564
    H            2.705257767733    -0.336993208479     1.445537316372
    H            3.259314898720     0.817597349139    -1.334563401522
    H            2.640633036061     1.729323403829     0.030367008246
    H            4.260673109609     1.071171090642     0.082713250433

  Mulliken Charges: (a.u.)
   Center  Symbol    Alpha    Beta     Spin     Total
       1     H     0.28118  0.28118  0.00000  0.43763
       2     O     4.37178  4.37178  0.00000 -0.74357
       3     C     2.98981  2.98981  0.00000  0.02039
       4     C     3.15954  3.15954  0.00000 -0.31907
       5     H     0.43309  0.43309  0.00000  0.13383
       6     H     0.43256  0.43256  0.00000  0.13489
       7     C     3.16172  3.16172  0.00000 -0.32345
       8     H     0.41311  0.41311  0.00000  0.17378
       9     H     0.41631  0.41631  0.00000  0.16738
      10     C     3.15186  3.15186  0.00000 -0.30372
      11     H     0.42093  0.42093  0.00000  0.15813
      12     H     0.42451  0.42451  0.00000  0.15097
      13     C     3.15253  3.15253  0.00000 -0.30506
      14     H     0.42279  0.42279  0.00000  0.15443
      15     H     0.42112  0.42112  0.00000  0.15777
      16     C     3.24116  3.24116  0.00000 -0.48232
      17     H     0.42063  0.42063  0.00000  0.15875
      18     H     0.42363  0.42363  0.00000  0.15274
      19     H     0.42187  0.42187  0.00000  0.15625
      20     H     0.42061  0.42061  0.00000  0.15877
      21     H     0.41927  0.41927  0.00000  0.16147

   Total alpha = 29.00000, Total beta = 29.00000, Total charge = -0.00000
