  ==> Input File <==

--------------------------------------------------------------------------
set {
	reference rhf
	basis 6-31G*
}

set_num_threads( 4 )
memory 2 gb

molecule MOL {
0 1

O	 1.214711	 1.306902	 -0.000018
C	 1.122059	 0.121804	 -0.000188
C	 -0.170150	 -0.657997	 -0.000612
O	 2.172624	 -0.688929	 0.000216
C	 -1.412532	 0.227344	 -0.000452
H	 -0.153702	 -1.313099	 -0.867402
H	 -0.153924	 -1.313811	 0.865644
C	 -1.561173	 1.020333	 1.298948
H	 -2.292015	 -0.389250	 -0.158011
H	 -1.367067	 0.908782	 -0.844300
C	 -2.802759	 1.911064	 1.307107
H	 -1.605438	 0.332848	 2.141255
H	 -0.676197	 1.634401	 1.453249
H	 -3.707758	 1.322227	 1.189200
H	 -2.884674	 2.461725	 2.238953
H	 -2.771581	 2.633466	 0.496673
C	 3.452279	 -0.082609	 0.000533
H	 3.583069	 0.529321	 -0.880332
H	 4.163299	 -0.894027	 0.001117
H	 3.582335	 0.529955	 0.881077

	symmetry c1
}
set optking {
	frozen_dihedral = ("
		9 5 3 6
	")
}

ee = optimize('scf')
oeprop('DIPOLE', 'QUADRUPOLE', 'MULLIKEN_CHARGES')
f=open( 'psi4out.xyz', 'w' )
f.write( "20  " )
f.write( str(ee) + "\n" )
f.write( MOL.save_string_xyz() )
f.close()
--------------------------------------------------------------------------

    Molecular point group: c1
  Charge       = 0
  Multiplicity = 1
  Basis Set: 6-31G*
  Basis Set:
  @DF-RHF Final Energy:  -383.94015481921571
    Total Energy =                       -383.9401548192155360
    Molecular point group: c1
  Basis Set: 6-31G*
  Basis Set:
  Basis Set: 6-31G*
  Basis Set:
  @DF-RHF Final Energy:  -383.94088981103801
    Total Energy =                       -383.9408898110380051
  Basis Set: 6-31G*
  Basis Set:
  Basis Set: 6-31G*
  Basis Set:
  @DF-RHF Final Energy:  -383.93902521084686
    Total Energy =                       -383.9390252108471486
  Basis Set: 6-31G*
  Basis Set:
  Basis Set: 6-31G*
  Basis Set:
  @DF-RHF Final Energy:  -383.94114100249749
    Total Energy =                       -383.9411410024974884
  Basis Set: 6-31G*
  Basis Set:
  Basis Set: 6-31G*
  Basis Set:
  @DF-RHF Final Energy:  -383.94121715153199
    Total Energy =                       -383.9412171515322143
  Basis Set: 6-31G*
  Basis Set:
  Basis Set: 6-31G*
  Basis Set:
  @DF-RHF Final Energy:  -383.94123819948106
    Total Energy =                       -383.9412381994811767
  Basis Set: 6-31G*
  Basis Set:
  Charge       = 0
  Multiplicity = 1
  Basis Set: 6-31G*
  Basis Set:

    Orbital Energies (a.u.)
    -----------------------

    Doubly Occupied:

       1A    -20.604850     2A    -20.546031     3A    -11.373237
       4A    -11.281483     5A    -11.235995     6A    -11.220212
       7A    -11.213730     8A    -11.207065     9A     -1.470401
      10A     -1.363460    11A     -1.086732    12A     -1.021910
      13A     -0.968992    14A     -0.884116    15A     -0.805517
      16A     -0.766003    17A     -0.701408    18A     -0.680843
      19A     -0.672179    20A     -0.631863    21A     -0.606665
      22A     -0.587290    23A     -0.579988    24A     -0.540540
      25A     -0.533529    26A     -0.517188    27A     -0.512036
      28A     -0.476525    29A     -0.471379    30A     -0.462629
      31A     -0.455597    32A     -0.435929

  @DF-RHF Final Energy:  -383.94123907078750

   => Energetics <=

    Nuclear Repulsion Energy =            388.9162095025422445
    One-Electron Energy =               -1293.8842521174983631
    Two-Electron Energy =                 521.0268035441687289
    DFT Exchange-Correlation Energy =       0.0000000000000000
    Empirical Dispersion Energy =           0.0000000000000000
    PCM Polarization Energy =               0.0000000000000000
    EFP Energy =                            0.0000000000000000
    Total Energy =                       -383.9412390707874465
    Molecular point group: c1
  Basis Set: 6-31G*
  Basis Set:

  -Total Gradient:
     Atom            X                  Y                   Z
    ------   -----------------  -----------------  -----------------
       1        0.000081888608    -0.000089752547     0.000017310133
       2       -0.000112303019     0.000124464685    -0.000010303153
       3       -0.000424657311    -0.000406446184     0.000542477886
       4        0.000155841006     0.000011306062    -0.000012801884
       5        0.000057221805     0.000083630232    -0.000721112942
       6        0.000240213053     0.000351930875    -0.000284396720
       7       -0.000027750132    -0.000005853403    -0.000032354275
       8        0.000012468398    -0.000012096204     0.000001386327
       9       -0.000081878542    -0.000044455038     0.000499616010
      10        0.000031995276    -0.000024317567     0.000009153789
      11       -0.000002528793    -0.000028847662    -0.000009648488
      12        0.000036239538     0.000015394776     0.000023030782
      13        0.000022675276     0.000032938510    -0.000019542132
      14        0.000010119750    -0.000003449047    -0.000027163985
      15       -0.000003079879    -0.000038775203    -0.000002164771
      16        0.000010244068     0.000033635176     0.000015987840
      17       -0.000010122517     0.000002425139     0.000029838665
      18       -0.000001025849    -0.000000060381    -0.000013898707
      19       -0.000001983684    -0.000000850077    -0.000005860626
      20        0.000006422951    -0.000000822143     0.000000446251

  **** Optimization is complete! (in 7 steps) ****
    Final optimized geometry and variables:
    Molecular point group: c1

    Geometry (in Angstrom), charge = 0, multiplicity = 1:

    O            0.966231775929     0.879087446527    -0.644082210418
    C            0.844775932266    -0.278486303770    -0.399777588081
    C           -0.462860794038    -1.033814352796    -0.346467268131
    O            1.874865849836    -1.081877139214    -0.169838071209
    C           -1.697390894684    -0.135730183680    -0.293781254035
    H           -0.483233862610    -1.656599982038    -1.237974214835
    H           -0.428685391407    -1.716030582816     0.496287348567
    C           -1.858542325366     0.615264522875     1.030098106906
    H           -2.573733268459    -0.759143517134    -0.454587369208
    H           -1.657754511421     0.573447733735    -1.113624762082
    C           -3.118941431358     1.478541916421     1.062381108137
    H           -1.892921705423    -0.102828962576     1.847695755756
    H           -0.989361197989     1.242200509991     1.198895255597
    H           -4.012323947192     0.877687693124     0.915410976925
    H           -3.218287052629     1.991119246419     2.014044372686
    H           -3.094832044886     2.232950734469     0.281504941892
    C            3.167036477830    -0.506090726098    -0.236235130504
    H            3.352060383347    -0.099963792233    -1.220284530653
    H            3.858079993258    -1.307493879982    -0.026294425534
    H            3.270541611112     0.279870530908     0.497864579256

  Mulliken Charges: (a.u.)
   Center  Symbol    Alpha    Beta     Spin     Total
       1     O     4.28732  4.28732  0.00000 -0.57464
       2     C     2.60614  2.60614  0.00000  0.78773
       3     C     3.20902  3.20902  0.00000 -0.41804
       4     O     4.30614  4.30614  0.00000 -0.61229
       5     C     3.15321  3.15321  0.00000 -0.30643
       6     H     0.39792  0.39792  0.00000  0.20416
       7     H     0.40076  0.40076  0.00000  0.19848
       8     C     3.15774  3.15774  0.00000 -0.31548
       9     H     0.41974  0.41974  0.00000  0.16052
      10     H     0.40790  0.40790  0.00000  0.18420
      11     C     3.24023  3.24023  0.00000 -0.48045
      12     H     0.42608  0.42608  0.00000  0.14784
      13     H     0.40852  0.40852  0.00000  0.18295
      14     H     0.42333  0.42333  0.00000  0.15333
      15     H     0.41877  0.41877  0.00000  0.16245
      16     H     0.41854  0.41854  0.00000  0.16292
      17     C     3.09248  3.09248  0.00000 -0.18496
      18     H     0.40907  0.40907  0.00000  0.18187
      19     H     0.40830  0.40830  0.00000  0.18341
      20     H     0.40879  0.40879  0.00000  0.18242

   Total alpha = 32.00000, Total beta = 32.00000, Total charge =  0.00000
