  ==> Input File <==

--------------------------------------------------------------------------
set {
	reference rhf
	basis 6-31G*
}

set_num_threads( 1 )
memory 2 gb

molecule MOL {
0 1

O	 1.772246	 0.382488	 0.960198
C	 1.122059	 0.121804	 -0.000188
C	 -0.170150	 -0.657997	 -0.000612
O	 1.459421	 0.493588	 -1.228577
C	 -1.412532	 0.227344	 -0.000452
H	 -0.153702	 -1.313099	 -0.867402
H	 -0.153924	 -1.313811	 0.865644
C	 -2.706999	 -0.587347	 -0.000541
H	 -1.388000	 0.879466	 -0.868000
H	 -1.387972	 0.879138	 0.867341
C	 -3.956778	 0.291888	 0.000910
H	 -2.726114	 -1.239230	 -0.871609
H	 -2.725217	 -1.240844	 0.869333
H	 -3.985213	 0.933254	 -0.875158
H	 -4.860123	 -0.309979	 0.000519
H	 -3.984618	 0.931166	 0.878514
C	 2.657119	 1.235797	 -1.369247
H	 2.598772	 2.160364	 -0.813136
H	 2.755905	 1.439486	 -2.424093
H	 3.502906	 0.662610	 -1.017671

	symmetry c1
}
set optking {
	frozen_dihedral = ("
		9 5 8 12,
		9 5 3 6,
		1 2 4 17
	")
}

ee = energy('scf')
oeprop('DIPOLE', 'QUADRUPOLE', 'MULLIKEN_CHARGES')
f=open( 'psi4out.xyz', 'w' )
f.write( "20  " )
f.write( str(ee) + "\n" )
f.write( MOL.save_string_xyz() )
f.close()
--------------------------------------------------------------------------

    Molecular point group: c1

    Geometry (in Angstrom), charge = 0, multiplicity = 1:

       Center              X                  Y                   Z               Mass
    ------------   -----------------  -----------------  -----------------  -----------------
           O          1.897347978777     0.175064736169     1.175760322141    15.994914619560
           C          1.247160978777    -0.085619263831     0.215374322141    12.000000000000
           C         -0.045048021223    -0.865420263831     0.214950322141    12.000000000000
           O          1.584522978777     0.286164736169    -1.013014677859    15.994914619560
           C         -1.287430021223     0.019920736169     0.215110322141    12.000000000000
           H         -0.028600021223    -1.520522263831    -0.651839677859     1.007825032070
           H         -0.028822021223    -1.521234263831     1.081206322141     1.007825032070
           C         -2.581897021223    -0.794770263831     0.215021322141    12.000000000000
           H         -1.262898021223     0.672042736169    -0.652437677859     1.007825032070
           H         -1.262870021223     0.671714736169     1.082903322141     1.007825032070
           C         -3.831676021223     0.084464736169     0.216472322141    12.000000000000
           H         -2.601012021223    -1.446653263831    -0.656046677859     1.007825032070
           H         -2.600115021223    -1.448267263831     1.084895322141     1.007825032070
           H         -3.860111021223     0.725830736169    -0.659595677859     1.007825032070
           H         -4.735021021223    -0.517402263831     0.216081322141     1.007825032070
           H         -3.859516021223     0.723742736169     1.094076322141     1.007825032070
           C          2.782220978777     1.028373736169    -1.153684677859    12.000000000000
           H          2.723873978777     1.952940736169    -0.597573677859     1.007825032070
           H          2.881006978777     1.232062736169    -2.208530677859     1.007825032070
           H          3.628007978777     0.455186736169    -0.802108677859     1.007825032070

  Charge       = 0
  Multiplicity = 1
  Basis Set: 6-31G*
  Basis Set:

    Orbital Energies (a.u.)
    -----------------------

    Doubly Occupied:

       1A    -20.604095     2A    -20.543668     3A    -11.370960
       4A    -11.280478     5A    -11.233595     6A    -11.229897
       7A    -11.224916     8A    -11.214593     9A     -1.468729
      10A     -1.361417    11A     -1.093687    12A     -1.025519
      13A     -0.967913    14A     -0.890508    15A     -0.808741
      16A     -0.773380    17A     -0.693490    18A     -0.679459
      19A     -0.673397    20A     -0.646467    21A     -0.599391
      22A     -0.591500    23A     -0.573704    24A     -0.554580
      25A     -0.533910    26A     -0.519989    27A     -0.508894
      28A     -0.484827    29A     -0.482423    30A     -0.475441
      31A     -0.453753    32A     -0.429583

  @DF-RHF Final Energy:  -383.93965633969310

   => Energetics <=

    Nuclear Repulsion Energy =            382.6115974264864690
    One-Electron Energy =               -1281.1168544289787405
    Two-Electron Energy =                 514.5656006627998522
    DFT Exchange-Correlation Energy =       0.0000000000000000
    Empirical Dispersion Energy =           0.0000000000000000
    PCM Polarization Energy =               0.0000000000000000
    EFP Energy =                            0.0000000000000000
    Total Energy =                       -383.9396563396924194

  Mulliken Charges: (a.u.)
   Center  Symbol    Alpha    Beta     Spin     Total
       1     O     4.28449  4.28449  0.00000 -0.56898
       2     C     2.61807  2.61807  0.00000  0.76387
       3     C     3.19455  3.19455  0.00000 -0.38911
       4     O     4.30219  4.30219  0.00000 -0.60437
       5     C     3.16265  3.16265  0.00000 -0.32531
       6     H     0.40466  0.40466  0.00000  0.19068
       7     H     0.40103  0.40103  0.00000  0.19793
       8     C     3.15356  3.15356  0.00000 -0.30713
       9     H     0.41151  0.41151  0.00000  0.17698
      10     H     0.41066  0.41066  0.00000  0.17867
      11     C     3.24042  3.24042  0.00000 -0.48084
      12     H     0.42030  0.42030  0.00000  0.15940
      13     H     0.41950  0.41950  0.00000  0.16101
      14     H     0.42029  0.42029  0.00000  0.15943
      15     H     0.41729  0.41729  0.00000  0.16542
      16     H     0.41958  0.41958  0.00000  0.16083
      17     C     3.09262  3.09262  0.00000 -0.18524
      18     H     0.40910  0.40910  0.00000  0.18179
      19     H     0.40881  0.40881  0.00000  0.18237
      20     H     0.40871  0.40871  0.00000  0.18258

   Total alpha = 32.00000, Total beta = 32.00000, Total charge = -0.00000
