  ==> Input File <==

--------------------------------------------------------------------------
set {
	reference rhf
	basis 6-31G*
}

set_num_threads( 1 )
memory 2 gb

molecule MOL {
0 1

H	 3.541045	 -0.104052	 -0.953336
N	 3.092854	 -0.246221	 -0.068770
C	 1.865559	 0.531981	 0.018834
H	 3.744022	 0.044663	 0.635642
C	 0.645745	 -0.382037	 -0.029944
H	 1.841966	 1.207024	 -0.831236
H	 1.815756	 1.155410	 0.915079
C	 -0.679275	 0.379305	 0.025956
H	 0.698998	 -0.976915	 -0.937203
H	 0.693479	 -1.083846	 0.802235
C	 -1.903357	 -0.536963	 -0.023547
H	 -0.726309	 1.082987	 -0.803784
H	 -0.717680	 0.977832	 0.934877
C	 -3.225172	 0.228290	 0.028445
H	 -1.867824	 -1.134999	 -0.931459
H	 -1.860449	 -1.239604	 0.805977
H	 -3.313397	 0.915643	 -0.808262
H	 -4.073500	 -0.448134	 -0.008893
H	 -3.306061	 0.809945	 0.942516

	symmetry c1
}
set optking {
	frozen_dihedral = ("
		6 3 5 9,
		12 8 5 9,
		12 8 11 15
	")
}

ee = energy('scf')
oeprop('DIPOLE', 'QUADRUPOLE', 'MULLIKEN_CHARGES')
f=open( 'psi4out.xyz', 'w' )
f.write( "19  " )
f.write( str(ee) + "\n" )
f.write( MOL.save_string_xyz() )
f.close()
--------------------------------------------------------------------------

    Molecular point group: c1

    Geometry (in Angstrom), charge = 0, multiplicity = 1:

       Center              X                  Y                   Z               Mass
    ------------   -----------------  -----------------  -----------------  -----------------
           H          3.538819089993    -0.108810081609    -0.942248533338     1.007825032070
           N          3.090628089993    -0.250979081609    -0.057682533338    14.003074004780
           C          1.863333089993     0.527222918391     0.029921466662    12.000000000000
           H          3.741796089993     0.039904918391     0.646729466662     1.007825032070
           C          0.643519089993    -0.386795081609    -0.018856533338    12.000000000000
           H          1.839740089993     1.202265918391    -0.820148533338     1.007825032070
           H          1.813530089993     1.150651918391     0.926166466662     1.007825032070
           C         -0.681500910007     0.374546918391     0.037043466662    12.000000000000
           H          0.696772089993    -0.981673081609    -0.926115533338     1.007825032070
           H          0.691253089993    -1.088604081609     0.813322466662     1.007825032070
           C         -1.905582910007    -0.541721081609    -0.012459533338    12.000000000000
           H         -0.728534910007     1.078228918391    -0.792696533338     1.007825032070
           H         -0.719905910007     0.973073918391     0.945964466662     1.007825032070
           C         -3.227397910007     0.223531918391     0.039532466662    12.000000000000
           H         -1.870049910007    -1.139757081609    -0.920371533338     1.007825032070
           H         -1.862674910007    -1.244362081609     0.817064466662     1.007825032070
           H         -3.315622910007     0.910884918391    -0.797174533338     1.007825032070
           H         -4.075725910007    -0.452892081609     0.002194466662     1.007825032070
           H         -3.308286910007     0.805186918391     0.953603466662     1.007825032070

  Charge       = 0
  Multiplicity = 1
  Basis Set: 6-31G*
  Basis Set:

    Orbital Energies (a.u.)
    -----------------------

    Doubly Occupied:

       1A    -15.531503     2A    -11.240138     3A    -11.211425
       4A    -11.208994     5A    -11.205653     6A    -11.202353
       7A     -1.176176     8A     -1.070111     9A     -0.996092
      10A     -0.898789    11A     -0.809233    12A     -0.784535
      13A     -0.676174    14A     -0.634127    15A     -0.614067
      16A     -0.577264    17A     -0.569258    18A     -0.553226
      19A     -0.517422    20A     -0.504461    21A     -0.472688
      22A     -0.461892    23A     -0.457945    24A     -0.452976
      25A     -0.377146

  @DF-RHF Final Energy:  -251.34756343577004

   => Energetics <=

    Nuclear Repulsion Energy =            245.4483816710371116
    One-Electron Energy =                -825.1846440570377581
    Two-Electron Energy =                 328.3886989502305482
    DFT Exchange-Correlation Energy =       0.0000000000000000
    Empirical Dispersion Energy =           0.0000000000000000
    PCM Polarization Energy =               0.0000000000000000
    EFP Energy =                            0.0000000000000000
    Total Energy =                       -251.3475634357700415

  Mulliken Charges: (a.u.)
   Center  Symbol    Alpha    Beta     Spin     Total
       1     H     0.33188  0.33188  0.00000  0.33624
       2     N     3.92338  3.92338  0.00000 -0.84675
       3     C     3.07031  3.07031  0.00000 -0.14062
       4     H     0.33221  0.33221  0.00000  0.33557
       5     C     3.13839  3.13839  0.00000 -0.27678
       6     H     0.42869  0.42869  0.00000  0.14262
       7     H     0.42395  0.42395  0.00000  0.15211
       8     C     3.15696  3.15696  0.00000 -0.31392
       9     H     0.42250  0.42250  0.00000  0.15500
      10     H     0.42007  0.42007  0.00000  0.15987
      11     C     3.15019  3.15019  0.00000 -0.30038
      12     H     0.42617  0.42617  0.00000  0.14767
      13     H     0.42601  0.42601  0.00000  0.14798
      14     C     3.23901  3.23901  0.00000 -0.47802
      15     H     0.42284  0.42284  0.00000  0.15432
      16     H     0.42263  0.42263  0.00000  0.15474
      17     H     0.42252  0.42252  0.00000  0.15495
      18     H     0.41982  0.41982  0.00000  0.16036
      19     H     0.42248  0.42248  0.00000  0.15505

   Total alpha = 25.00000, Total beta = 25.00000, Total charge = -0.00000
