                              Psi4 1.0.54 Driver

  ==> Input File <==

--------------------------------------------------------------------------
set {
	reference rhf
	basis cc-pvtz
}

set_num_threads( 4 )
memory 2 gb

molecule MOL {
0 1

H	 -1.514236	 -0.493662	 -1.133634
O	 -1.432053	 -0.565244	 -0.200812
C	 -0.727158	 0.534527	 0.310686
C	 0.680222	 0.664433	 -0.252229
H	 -1.306802	 1.408001	 0.044211
H	 -0.690821	 0.490158	 1.397609
C	 1.605391	 -0.489360	 0.123098
H	 0.615089	 0.745647	 -1.332226
H	 1.101414	 1.597893	 0.110950
H	 1.247627	 -1.432485	 -0.275204
H	 2.601435	 -0.332816	 -0.273062
H	 1.691776	 -0.589902	 1.200774

	symmetry c1
}
set optking {
	frozen_dihedral = ("
		1 2 3 4
	")
}

ee,wfn = optimize('scf', return_wfn=True)
oeprop( wfn, 'DIPOLE', 'QUADRUPOLE', 'MULLIKEN_CHARGES')
f=open( 'psi4out.xyz', 'w' )
f.write( "12  " )
f.write( str(ee) + "\n" )
f.write( MOL.save_string_xyz() )
f.close()
--------------------------------------------------------------------------

    Molecular point group: c1
  Charge       = 0
  Multiplicity = 1
  Basis Set: CC-PVTZ
  Basis Set:
  @DF-RHF Final Energy:  -193.18919726674974
    Total Energy =                       -193.1891972667497726
    Molecular point group: c1
  Basis Set: CC-PVTZ
  Basis Set:
  Basis Set: CC-PVTZ
  Basis Set:
  @DF-RHF Final Energy:  -193.18543109052069
    Total Energy =                       -193.1854310905205239
  Basis Set: CC-PVTZ
  Basis Set:
  Basis Set: CC-PVTZ
  Basis Set:
  @DF-RHF Final Energy:  -193.19075670263331
    Total Energy =                       -193.1907567026333368
  Basis Set: CC-PVTZ
  Basis Set:
  Basis Set: CC-PVTZ
  Basis Set:
  @DF-RHF Final Energy:  -193.19093745291477
    Total Energy =                       -193.1909374529147669
  Basis Set: CC-PVTZ
  Basis Set:
  Basis Set: CC-PVTZ
  Basis Set:
  @DF-RHF Final Energy:  -193.19094612861113
    Total Energy =                       -193.1909461286111309
  Basis Set: CC-PVTZ
  Basis Set:
  Basis Set: CC-PVTZ
  Basis Set:
  @DF-RHF Final Energy:  -193.19094770714719
    Total Energy =                       -193.1909477071471031
  Basis Set: CC-PVTZ
  Basis Set:
  Charge       = 0
  Multiplicity = 1
  Basis Set: CC-PVTZ
  Basis Set:

    Orbital Energies (a.u.)
    -----------------------

    Doubly Occupied:

       1A    -20.546763     2A    -11.266069     3A    -11.219067
       4A    -11.206992     5A     -1.364834     6A     -1.050473
       7A     -0.922908     8A     -0.816102     9A     -0.679639
      10A     -0.639704    11A     -0.629034    12A     -0.568339
      13A     -0.532833    14A     -0.520630    15A     -0.485923
      16A     -0.468364    17A     -0.433397

  @DF-RHF Final Energy:  -193.19094790282915

   => Energetics <=

    Nuclear Repulsion Energy =            133.2183615104126204
    One-Electron Energy =                -526.1164743857434587
    Two-Electron Energy =                 199.7071649725016584
    DFT Exchange-Correlation Energy =       0.0000000000000000
    Empirical Dispersion Energy =           0.0000000000000000
    PCM Polarization Energy =               0.0000000000000000
    EFP Energy =                            0.0000000000000000
    Total Energy =                       -193.1909479028292083
    Molecular point group: c1
  Basis Set: CC-PVTZ
  Basis Set:

  -Total Gradient:
     Atom            X                  Y                   Z
    ------   -----------------  -----------------  -----------------
       1        0.000433220301    -0.000220108041    -0.000018200758
       2       -0.000582581178     0.000302006853    -0.000072770158
       3        0.000280962253    -0.000203339117     0.000330359784
       4       -0.000139479314     0.000124906166    -0.000221913282
       5        0.000015017365     0.000001448681     0.000007354778
       6        0.000000758726    -0.000004336742    -0.000013599476
       7       -0.000000209389    -0.000007637103    -0.000005873451
       8        0.000005050608    -0.000005395777     0.000007621513
       9        0.000000925335    -0.000001160151    -0.000001316514
      10        0.000003731951     0.000009155617     0.000002792260
      11       -0.000010265573    -0.000001698032     0.000003617166
      12       -0.000007131084     0.000006157645    -0.000018071861

  **** Optimization is complete! (in 7 steps) ****
    Final optimized geometry and variables:
    Molecular point group: c1

    Geometry (in Angstrom), charge = 0, multiplicity = 1:

    H           -1.528046231218    -0.761658793521    -0.881905569467
    O           -1.385328184032    -0.665038481905     0.042320342755
    C           -0.723418852315     0.545010784560     0.298392595805
    C            0.633661017660     0.644999217210    -0.381636639272
    H           -1.345297839059     1.385608524312     0.000470490392
    H           -0.605658851001     0.595931273177     1.373441762910
    C            1.626319237928    -0.418738758814     0.074815565182
    H            0.494629713931     0.581167676784    -1.459146581916
    H            1.036784220604     1.634778148299    -0.186429583354
    H            1.242696570108    -1.414265569948    -0.107008317151
    H            2.570232292628    -0.319399651251    -0.448417195164
    H            1.825250321755    -0.330912852026     1.137696890102

  Mulliken Charges: (a.u.)
   Center  Symbol    Alpha    Beta     Spin     Total
       1     H     0.39453  0.39453  0.00000  0.21093
       2     O     4.20394  4.20394  0.00000 -0.40789
       3     C     2.97197  2.97197  0.00000  0.05605
       4     C     3.09284  3.09284  0.00000 -0.18568
       5     H     0.46279  0.46279  0.00000  0.07442
       6     H     0.46011  0.46011  0.00000  0.07979
       7     C     3.14488  3.14488  0.00000 -0.28977
       8     H     0.45993  0.45993  0.00000  0.08014
       9     H     0.45398  0.45398  0.00000  0.09204
      10     H     0.44900  0.44900  0.00000  0.10201
      11     H     0.45033  0.45033  0.00000  0.09934
      12     H     0.45569  0.45569  0.00000  0.08861

   Total alpha = 17.00000, Total beta = 17.00000, Total charge =  0.00000

*** Psi4 exiting successfully. Buy a developer a beer!
