  ==> Input File <==

--------------------------------------------------------------------------
set {
	reference rhf
	basis cc-pvtz
}

set_num_threads( 4 )
memory 2 gb

molecule MOL {
0 1

H	 1.469050	 0.585297	 -2.052717
O	 0.631143	 0.432660	 -1.657421
C	 0.700177	 0.619554	 -0.266242
C	 -0.713111	 0.588314	 0.266177
H	 1.155466	 1.576656	 -0.030459
H	 1.284206	 -0.168032	 0.202796
O	 -1.421673	 -0.521378	 -0.196983
H	 -1.244794	 1.469161	 -0.069059
H	 -0.685100	 0.604721	 1.352683
H	 -0.933408	 -1.297830	 0.014544

	symmetry c1
}
set optking {
	frozen_dihedral = ("
		5 3 4 7
	")
}

ee = optimize('scf')
oeprop('DIPOLE', 'QUADRUPOLE', 'MULLIKEN_CHARGES')
f=open( 'psi4out.xyz', 'w' )
f.write( "10  " )
f.write( str(ee) + "\n" )
f.write( MOL.save_string_xyz() )
f.close()
--------------------------------------------------------------------------

    Molecular point group: c1
  Charge       = 0
  Multiplicity = 1
  Basis Set: CC-PVTZ
  Basis Set:
  @DF-RHF Final Energy:  -229.02150770388209
    Total Energy =                       -229.0215077038819516
    Molecular point group: c1
  Basis Set: CC-PVTZ
  Basis Set:
  Basis Set: CC-PVTZ
  Basis Set:
  @DF-RHF Final Energy:  -229.02217105598251
    Total Energy =                       -229.0221710559825397
  Basis Set: CC-PVTZ
  Basis Set:
  Basis Set: CC-PVTZ
  Basis Set:
  @DF-RHF Final Energy:  -229.02228831217067
    Total Energy =                       -229.0222883121705308
  Basis Set: CC-PVTZ
  Basis Set:
  Basis Set: CC-PVTZ
  Basis Set:
  @DF-RHF Final Energy:  -229.02230438243635
    Total Energy =                       -229.0223043824363174
  Basis Set: CC-PVTZ
  Basis Set:
  @DF-RHF Final Energy:  -229.02231188556351
    Total Energy =                       -229.0223118855634539
  Basis Set: CC-PVTZ
  Basis Set:
  @DF-RHF Final Energy:  -229.02231640121181
    Total Energy =                       -229.0223164012118104
  Basis Set: CC-PVTZ
  Basis Set:
  Basis Set: CC-PVTZ
  Basis Set:
  @DF-RHF Final Energy:  -229.02232114072117
    Total Energy =                       -229.0223211407211181
  Basis Set: CC-PVTZ
  Basis Set:
  Basis Set: CC-PVTZ
  Basis Set:
  @DF-RHF Final Energy:  -229.02232356574737
    Total Energy =                       -229.0223235657473424
  Basis Set: CC-PVTZ
  Basis Set:
  Charge       = 0
  Multiplicity = 1
  Basis Set: CC-PVTZ
  Basis Set:

    Orbital Energies (a.u.)
    -----------------------

    Doubly Occupied:

       1A    -20.554096     2A    -20.544027     3A    -11.276882
       4A    -11.268383     5A     -1.381279     6A     -1.356063
       7A     -1.004049     8A     -0.848298     9A     -0.720788
      10A     -0.678763    11A     -0.661331    12A     -0.599403
      13A     -0.574280    14A     -0.549605    15A     -0.474906
      16A     -0.451049    17A     -0.440791

  @DF-RHF Final Energy:  -229.02232363685837

   => Energetics <=

    Nuclear Repulsion Energy =            134.0596129010268953
    One-Electron Energy =                -579.3958882267902482
    Two-Electron Energy =                 216.3139516889049787
    DFT Exchange-Correlation Energy =       0.0000000000000000
    Empirical Dispersion Energy =           0.0000000000000000
    PCM Polarization Energy =               0.0000000000000000
    EFP Energy =                            0.0000000000000000
    Total Energy =                       -229.0223236368584026
    Molecular point group: c1
  Basis Set: CC-PVTZ
  Basis Set:

  -Total Gradient:
     Atom            X                  Y                   Z
    ------   -----------------  -----------------  -----------------
       1        0.000001247693     0.000002128669    -0.000001891714
       2        0.000064352045     0.000105873547    -0.000020037157
       3        0.001217148794    -0.001148440624     0.002943039838
       4        0.001093502746    -0.001836755114     0.002630059436
       5       -0.001303685289     0.001327640816    -0.003171944620
       6       -0.000072961030    -0.000035731375     0.000059089138
       7       -0.001000088266     0.001586141763    -0.002427117924
       8       -0.000138132196    -0.000091500543    -0.000017015046
       9        0.000139613235     0.000087955805    -0.000022950294
      10       -0.000000997736     0.000002687057     0.000028768339

  **** Optimization is complete! (in 9 steps) ****
    Final optimized geometry and variables:
    Molecular point group: c1

    Geometry (in Angstrom), charge = 0, multiplicity = 1:

    H            1.703194666940     0.254040869645    -1.557664909384
    O            0.840769286555     0.180115891189    -1.193065605436
    C            0.888753762608     0.369704668104     0.192323985889
    C           -0.517164870745     0.326162735733     0.756830953512
    H            1.312579797468     1.343691959477     0.424871668385
    H            1.505250330568    -0.395149539250     0.663280125626
    O           -1.262893574950    -0.779028160092     0.346100458352
    H           -1.064434727111     1.196266384721     0.419456942683
    H           -0.447764415537     0.376785586241     1.841768972642
    H           -0.733852143628    -1.556036897482     0.348813453989

  Mulliken Charges: (a.u.)
   Center  Symbol    Alpha    Beta     Spin     Total
       1     H     0.39491  0.39491  0.00000  0.21018
       2     O     4.19225  4.19225  0.00000 -0.38450
       3     C     2.98009  2.98009  0.00000  0.03982
       4     C     2.95801  2.95801  0.00000  0.08398
       5     H     0.47046  0.47046  0.00000  0.05909
       6     H     0.47576  0.47576  0.00000  0.04848
       7     O     4.19695  4.19695  0.00000 -0.39390
       8     H     0.46089  0.46089  0.00000  0.07823
       9     H     0.47635  0.47635  0.00000  0.04729
      10     H     0.39433  0.39433  0.00000  0.21134

   Total alpha = 17.00000, Total beta = 17.00000, Total charge = -0.00000
