                              Psi4 1.0.54 Driver

  ==> Input File <==

--------------------------------------------------------------------------
set {
	reference rhf
	basis cc-pvtz
}

set_num_threads( 4 )
memory 2 gb

molecule MOL {
0 1

H	 -2.434207	 1.260127	 2.169105
C	 -2.080456	 0.238290	 2.052519
O	 -0.807949	 0.200967	 1.498557
H	 -2.030705	 -0.225577	 3.026808
H	 -2.798535	 -0.306619	 1.442338
C	 -0.718530	 0.758693	 0.228682
C	 0.718529	 0.758687	 -0.228709
H	 -1.314214	 0.182569	 -0.479281
H	 -1.093495	 1.779883	 0.229481
O	 1.401606	 -0.295166	 0.366636
H	 0.748705	 0.673477	 -1.312803
H	 1.176496	 1.708671	 0.046552
C	 2.714315	 -0.441627	 -0.061017
H	 2.765292	 -0.641548	 -1.128869
H	 3.305661	 0.447341	 0.150952
H	 3.143725	 -1.278506	 0.470147

	symmetry c1
}
set optking {
	frozen_dihedral = ("
		3 6 7 11
	")
}

ee,wfn = optimize('scf', return_wfn=True)
oeprop( wfn, 'DIPOLE', 'QUADRUPOLE', 'MULLIKEN_CHARGES')
f=open( 'psi4out.xyz', 'w' )
f.write( "16  " )
f.write( str(ee) + "\n" )
f.write( MOL.save_string_xyz() )
f.close()
--------------------------------------------------------------------------

    Molecular point group: c1
  Charge       = 0
  Multiplicity = 1
  Basis Set: CC-PVTZ
  Basis Set:
  @DF-RHF Final Energy:  -307.08850364206910
    Total Energy =                       -307.0885036420689858
    Molecular point group: c1
  Basis Set: CC-PVTZ
  Basis Set:
  Basis Set: CC-PVTZ
  Basis Set:
  @DF-RHF Final Energy:  -307.08934180642228
    Total Energy =                       -307.0893418064223965
  Basis Set: CC-PVTZ
  Basis Set:
  Basis Set: CC-PVTZ
  Basis Set:
  @DF-RHF Final Energy:  -307.08978586444425
    Total Energy =                       -307.0897858644442522
  Basis Set: CC-PVTZ
  Basis Set:
  Basis Set: CC-PVTZ
  Basis Set:
  @DF-RHF Final Energy:  -307.08979607626242
    Total Energy =                       -307.0897960762624734
  Basis Set: CC-PVTZ
  Basis Set:
  Charge       = 0
  Multiplicity = 1
  Basis Set: CC-PVTZ
  Basis Set:

    Orbital Energies (a.u.)
    -----------------------

    Doubly Occupied:

       1A    -20.546026     2A    -20.544777     3A    -11.269555
       4A    -11.268927     5A    -11.260680     6A    -11.260175
       7A     -1.392356     8A     -1.371532     9A     -1.027698
      10A     -0.934524    11A     -0.896167    12A     -0.819616
      13A     -0.690644    14A     -0.676182    15A     -0.659945
      16A     -0.645344    17A     -0.619979    18A     -0.593479
      19A     -0.570799    20A     -0.521978    21A     -0.508211
      22A     -0.472112    23A     -0.468878    24A     -0.422441
      25A     -0.407179

  @DF-RHF Final Energy:  -307.08979666767129

   => Energetics <=

    Nuclear Repulsion Energy =            260.2049045991826688
    One-Electron Energy =                -934.8909949011392655
    Two-Electron Energy =                 367.5962936342853595
    DFT Exchange-Correlation Energy =       0.0000000000000000
    Empirical Dispersion Energy =           0.0000000000000000
    PCM Polarization Energy =               0.0000000000000000
    EFP Energy =                            0.0000000000000000
    Total Energy =                       -307.0897966676712372
    Molecular point group: c1
  Basis Set: CC-PVTZ
  Basis Set:

  -Total Gradient:
     Atom            X                  Y                   Z
    ------   -----------------  -----------------  -----------------
       1        0.000011512450    -0.000012933230     0.000000841320
       2       -0.000017192121     0.000009637892    -0.000008039735
       3       -0.001045480941    -0.006419607719    -0.002798523989
       4        0.000004201003     0.000002420913    -0.000006453720
       5       -0.000002019266    -0.000001574149     0.000001570055
       6        0.001403754048     0.006622910634     0.003854640652
       7       -0.000384838492     0.008597661859    -0.001766116238
       8        0.000012749841     0.000000532594     0.000003671278
       9        0.000011832645    -0.000017809550     0.000029663351
      10       -0.000076481768     0.000050050092    -0.000038546637
      11        0.000070056728    -0.008833961838     0.000748285774
      12       -0.000024930726     0.000013619757    -0.000015011563
      13        0.000075229697    -0.000020327727    -0.000031805932
      14       -0.000009703053     0.000000962551     0.000027365559
      15       -0.000015510049    -0.000003339916     0.000001960555
      16       -0.000013179996     0.000011757840    -0.000003500728

  **** Optimization is complete! (in 5 steps) ****
    Final optimized geometry and variables:
    Molecular point group: c1

    Geometry (in Angstrom), charge = 0, multiplicity = 1:

    H           -2.726077084906     1.052201933516     1.478242358373
    C           -2.324545905677     0.044531673157     1.388466325237
    O           -1.026277495322     0.051237452596     0.898255416596
    H           -2.304186408050    -0.409923990018     2.368117997624
    H           -2.988734036421    -0.533154303297     0.748550923062
    C           -0.907004314457     0.593510998178    -0.371106723066
    C            0.542107273833     0.565100658444    -0.849234376681
    H           -1.521135499985     0.018925660284    -1.063554393152
    H           -1.267321429330     1.621237246249    -0.397548472736
    O            1.196478173938    -0.547750261535    -0.334196338076
    H            0.534358893141     0.473630533075    -1.934503069071
    H            1.065141141425     1.475161262541    -0.565339795424
    C            2.512413957135    -0.671629767281    -0.755708673105
    H            2.580118492391    -0.774383518735    -1.837482515721
    H            3.110881933640     0.186382933210    -0.455725261086
    H            2.923599562903    -1.558700100215    -0.296529227448

  Mulliken Charges: (a.u.)
   Center  Symbol    Alpha    Beta     Spin     Total
       1     H     0.47328  0.47328  0.00000  0.05343
       2     C     3.03110  3.03110  0.00000 -0.06219
       3     O     4.15959  4.15959  0.00000 -0.31917
       4     H     0.44563  0.44563  0.00000  0.10874
       5     H     0.47270  0.47270  0.00000  0.05460
       6     C     2.96371  2.96371  0.00000  0.07257
       7     C     2.96527  2.96527  0.00000  0.06946
       8     H     0.47657  0.47657  0.00000  0.04686
       9     H     0.47691  0.47691  0.00000  0.04617
      10     O     4.16103  4.16103  0.00000 -0.32207
      11     H     0.47705  0.47705  0.00000  0.04590
      12     H     0.47340  0.47340  0.00000  0.05320
      13     C     3.03088  3.03088  0.00000 -0.06176
      14     H     0.47434  0.47434  0.00000  0.05132
      15     H     0.47272  0.47272  0.00000  0.05455
      16     H     0.44582  0.44582  0.00000  0.10837

   Total alpha = 25.00000, Total beta = 25.00000, Total charge = -0.00000

*** Psi4 exiting successfully. Buy a developer a beer!
