  ==> Input File <==

--------------------------------------------------------------------------
set {
	reference rhf
	basis 6-31G*
}

set_num_threads( 4 )
memory 2 gb

molecule MOL {
0 1

H	 -1.605059	 2.298262	 -0.437533
C	 -1.256023	 2.171108	 0.579990
C	 0.070612	 1.421645	 0.613194
H	 -2.021486	 1.630116	 1.122830
H	 -1.146285	 3.152534	 1.029473
C	 -0.000005	 0.033229	 -0.000001
H	 0.430102	 1.318506	 1.635214
H	 0.842938	 1.980826	 0.088575
C	 1.290528	 -0.768786	 0.000276
O	 -1.012371	 -0.402941	 -0.456131
C	 2.545731	 0.095645	 -0.000061
H	 1.275672	 -1.427874	 -0.865626
H	 1.275566	 -1.427086	 0.866768
H	 2.577157	 0.734767	 -0.874036
H	 3.433520	 -0.528139	 0.000137
H	 2.577172	 0.735117	 0.873581

	symmetry c1
}
set optking {
	frozen_dihedral = ("
		3 6 9 12
	")
}

ee = optimize('scf')
oeprop('DIPOLE', 'QUADRUPOLE', 'MULLIKEN_CHARGES')
f=open( 'psi4out.xyz', 'w' )
f.write( "16  " )
f.write( str(ee) + "\n" )
f.write( MOL.save_string_xyz() )
f.close()
--------------------------------------------------------------------------

    Molecular point group: c1
  Charge       = 0
  Multiplicity = 1
  Basis Set: 6-31G*
  Basis Set:
  @DF-RHF Final Energy:  -270.02756779110484
    Total Energy =                       -270.0275677911048433
    Molecular point group: c1
  Basis Set: 6-31G*
  Basis Set:
  Basis Set: 6-31G*
  Basis Set:
  @DF-RHF Final Energy:  -270.02877774869904
    Total Energy =                       -270.0287777486991558
  Basis Set: 6-31G*
  Basis Set:
  Basis Set: 6-31G*
  Basis Set:
  @DF-RHF Final Energy:  -270.02949633043011
    Total Energy =                       -270.0294963304302200
  Basis Set: 6-31G*
  Basis Set:
  Basis Set: 6-31G*
  Basis Set:
  @DF-RHF Final Energy:  -270.02930747407089
    Total Energy =                       -270.0293074740708903
  Basis Set: 6-31G*
  Basis Set:
  Basis Set: 6-31G*
  Basis Set:
  @DF-RHF Final Energy:  -270.02955011766960
    Total Energy =                       -270.0295501176696575
  Basis Set: 6-31G*
  Basis Set:
  Basis Set: 6-31G*
  Basis Set:
  @DF-RHF Final Energy:  -270.02957577623908
    Total Energy =                       -270.0295757762388575
  Basis Set: 6-31G*
  Basis Set:
  Charge       = 0
  Multiplicity = 1
  Basis Set: 6-31G*
  Basis Set:

    Orbital Energies (a.u.)
    -----------------------

    Doubly Occupied:

       1A    -20.547205     2A    -11.323690     3A    -11.233711
       4A    -11.233457     5A    -11.228126     6A    -11.212755
       7A     -1.393760     8A     -1.072414     9A     -1.034954
      10A     -0.907200    11A     -0.866381    12A     -0.722207
      13A     -0.657240    14A     -0.644469    15A     -0.630208
      16A     -0.609397    17A     -0.553261    18A     -0.542181
      19A     -0.535326    20A     -0.510333    21A     -0.506115
      22A     -0.500590    23A     -0.473878    24A     -0.396322

  @DF-RHF Final Energy:  -270.02957607640633

   => Energetics <=

    Nuclear Repulsion Energy =            240.4916820121943033
    One-Electron Energy =                -842.3721571477315138
    Two-Electron Energy =                 331.8508990591309384
    DFT Exchange-Correlation Energy =       0.0000000000000000
    Empirical Dispersion Energy =           0.0000000000000000
    PCM Polarization Energy =               0.0000000000000000
    EFP Energy =                            0.0000000000000000
    Total Energy =                       -270.0295760764062152
    Molecular point group: c1
  Basis Set: 6-31G*
  Basis Set:

  -Total Gradient:
     Atom            X                  Y                   Z
    ------   -----------------  -----------------  -----------------
       1       -0.000003954494     0.000002538619    -0.000005896852
       2       -0.000013641445    -0.000024941229     0.000033806587
       3        0.000318654642     0.000489249908    -0.001111874173
       4       -0.000005502303     0.000006886542    -0.000004872411
       5        0.000005379242    -0.000004555803    -0.000003046553
       6       -0.000336511553    -0.000488750726     0.001438270560
       7       -0.000006632755    -0.000026446886    -0.000008830099
       8        0.000008255158     0.000020112225     0.000008291381
       9       -0.000672480421    -0.001011407617     0.000468709126
      10        0.000015325936     0.000022046674    -0.000008947783
      11        0.000007390549    -0.000004812572     0.000022596499
      12        0.000687664119     0.001026156912    -0.000807285118
      13        0.000004000882     0.000004562371    -0.000019797901
      14       -0.000022205707     0.000002692863     0.000002938169
      15        0.000004624179    -0.000007711455    -0.000002932769
      16        0.000009633974    -0.000005619825    -0.000001128662

  **** Optimization is complete! (in 7 steps) ****
    Final optimized geometry and variables:
    Molecular point group: c1

    Geometry (in Angstrom), charge = 0, multiplicity = 1:

    H           -2.011036730204     1.796442710911    -0.507885192508
    C           -1.604292028338     1.704531589540     0.491442286829
    C           -0.234154617256     1.037715249279     0.463894764326
    H           -2.307344235723     1.125717138342     1.078147504377
    H           -1.531488422157     2.696525154739     0.925128222651
    C           -0.257394813805    -0.356168146204    -0.137013864296
    H            0.182703856627     0.969584958923     1.467044794922
    H            0.472554646636     1.638576581342    -0.103836753767
    C            1.019449544087    -1.188362095342    -0.122319010718
    O           -1.256701690076    -0.817876762813    -0.598750047642
    C            2.347231227937    -0.428796187324    -0.094398736306
    H            0.974396782840    -1.830481128600    -0.994002807906
    H            0.950709786930    -1.839090228344     0.747393961996
    H            2.451082336207     0.225366960519    -0.954429407004
    H            3.172999029819    -1.131463029107    -0.118424262822
    H            2.458524756543     0.173715032999     0.800248791049

  Mulliken Charges: (a.u.)
   Center  Symbol    Alpha    Beta     Spin     Total
       1     H     0.40942  0.40942  0.00000  0.18116
       2     C     3.23403  3.23403  0.00000 -0.46805
       3     C     3.21127  3.21127  0.00000 -0.42255
       4     H     0.41147  0.41147  0.00000  0.17707
       5     H     0.42055  0.42055  0.00000  0.15890
       6     C     2.73469  2.73469  0.00000  0.53061
       7     H     0.40977  0.40977  0.00000  0.18045
       8     H     0.40612  0.40612  0.00000  0.18777
       9     C     3.20085  3.20085  0.00000 -0.40169
      10     O     4.26557  4.26557  0.00000 -0.53114
      11     C     3.25039  3.25039  0.00000 -0.50078
      12     H     0.39827  0.39827  0.00000  0.20346
      13     H     0.40371  0.40371  0.00000  0.19259
      14     H     0.41585  0.41585  0.00000  0.16829
      15     H     0.41123  0.41123  0.00000  0.17754
      16     H     0.41681  0.41681  0.00000  0.16637

   Total alpha = 24.00000, Total beta = 24.00000, Total charge = -0.00000
