  ==> Input File <==

--------------------------------------------------------------------------
set {
	reference rhf
	basis cc-pvtz
}

set_num_threads( 4 )
memory 2 gb

molecule MOL {
0 1

H	 2.828711	 -0.346904	 0.001083
C	 1.876752	 0.015931	 -0.363450
C	 0.776285	 -0.474665	 0.563092
H	 1.728113	 -0.357244	 -1.367440
H	 1.906171	 1.096574	 -0.386153
N	 -0.540022	 0.017605	 0.071630
H	 0.707111	 -1.548969	 0.573035
H	 0.886169	 -0.084184	 1.560432
O	 -0.527697	 0.823727	 -0.796823
O	 -1.510172	 -0.409017	 0.601911

	symmetry c1
}
set optking {
	frozen_dihedral = ("
		9 6 3 2
	")
}

ee = optimize('scf')
oeprop('DIPOLE', 'QUADRUPOLE', 'MULLIKEN_CHARGES')
f=open( 'psi4out.xyz', 'w' )
f.write( "10  " )
f.write( str(ee) + "\n" )
f.write( MOL.save_string_xyz() )
f.close()
--------------------------------------------------------------------------

    Molecular point group: c1
  Charge       = 0
  Multiplicity = 1
  Basis Set: CC-PVTZ
  Basis Set:
  @DF-RHF Final Energy:  -282.81110789557817
    Total Energy =                       -282.8111078955782887
    Molecular point group: c1
  Basis Set: CC-PVTZ
  Basis Set:
  Basis Set: CC-PVTZ
  Basis Set:
  @DF-RHF Final Energy:  -282.81148340761587
    Total Energy =                       -282.8114834076158104
  Basis Set: CC-PVTZ
  Basis Set:
  Basis Set: CC-PVTZ
  Basis Set:
  @DF-RHF Final Energy:  -282.80874373305926
    Total Energy =                       -282.8087437330592593
  Basis Set: CC-PVTZ
  Basis Set:
  Basis Set: CC-PVTZ
  Basis Set:
  @DF-RHF Final Energy:  -282.81264532377514
    Total Energy =                       -282.8126453237750866
  Basis Set: CC-PVTZ
  Basis Set:
  Basis Set: CC-PVTZ
  Basis Set:
  @DF-RHF Final Energy:  -282.81271985920910
    Total Energy =                       -282.8127198592092100
  Basis Set: CC-PVTZ
  Basis Set:
  Basis Set: CC-PVTZ
  Basis Set:
  @DF-RHF Final Energy:  -282.81288231618373
    Total Energy =                       -282.8128823161838454
  Basis Set: CC-PVTZ
  Basis Set:
  Basis Set: CC-PVTZ
  Basis Set:
  @DF-RHF Final Energy:  -282.81288703709026
    Total Energy =                       -282.8128870370903769
  Basis Set: CC-PVTZ
  Basis Set:
  Charge       = 0
  Multiplicity = 1
  Basis Set: CC-PVTZ
  Basis Set:

    Orbital Energies (a.u.)
    -----------------------

    Doubly Occupied:

       1A    -20.594983     2A    -20.588790     3A    -15.839659
       4A    -11.303290     5A    -11.243585     6A     -1.638642
       7A     -1.422915     8A     -1.123914     9A     -0.966906
      10A     -0.834864    11A     -0.762628    12A     -0.753742
      13A     -0.732220    14A     -0.638456    15A     -0.595020
      16A     -0.564092    17A     -0.538771    18A     -0.490396
      19A     -0.479932    20A     -0.455195

  @DF-RHF Final Energy:  -282.81288742219908

   => Energetics <=

    Nuclear Repulsion Energy =            186.5752788919003535
    One-Electron Energy =                -755.6403374664017747
    Two-Electron Energy =                 286.2521711523023669
    DFT Exchange-Correlation Energy =       0.0000000000000000
    Empirical Dispersion Energy =           0.0000000000000000
    PCM Polarization Energy =               0.0000000000000000
    EFP Energy =                            0.0000000000000000
    Total Energy =                       -282.8128874221990827
    Molecular point group: c1
  Basis Set: CC-PVTZ
  Basis Set:

  -Total Gradient:
     Atom            X                  Y                   Z
    ------   -----------------  -----------------  -----------------
       1       -0.000003695134    -0.000000177761    -0.000000673831
       2       -0.000002506653     0.000034918445     0.000023221116
       3       -0.000012550332    -0.000088888107    -0.000037790301
       4       -0.000000268024    -0.000000977858     0.000008387295
       5        0.000002199183     0.000009991707    -0.000001045209
       6        0.000020300624     0.000078661241     0.000067022182
       7       -0.000001134159    -0.000003049984     0.000003028600
       8        0.000006107664     0.000001480299    -0.000004338407
       9       -0.000026218986    -0.000041134718    -0.000042088297
      10        0.000017765815     0.000009176735    -0.000015723148

  **** Optimization is complete! (in 8 steps) ****
    Final optimized geometry and variables:
    Molecular point group: c1

    Geometry (in Angstrom), charge = 0, multiplicity = 1:

    H            2.854128204830    -0.386357791902     0.015731783153
    C            1.928248652124     0.013151897391    -0.379958695542
    C            0.797970747455    -0.448753321920     0.509949528720
    H            1.804123762330    -0.345254964814    -1.391886613197
    H            1.998032981987     1.090111099799    -0.404353924865
    N           -0.548122482700     0.023755321913     0.062413849618
    H            0.707683063669    -1.522068703032     0.556330186493
    H            0.887068841205    -0.077759818250     1.520442021145
    O           -0.608425788879     0.833748353735    -0.797647852896
    O           -1.476914169563    -0.449525409354     0.626814963693

  Mulliken Charges: (a.u.)
   Center  Symbol    Alpha    Beta     Spin     Total
       1     H     0.44933  0.44933  0.00000  0.10133
       2     C     3.13839  3.13839  0.00000 -0.27677
       3     C     3.04371  3.04371  0.00000 -0.08742
       4     H     0.44296  0.44296  0.00000  0.11407
       5     H     0.44029  0.44029  0.00000  0.11943
       6     N     3.27617  3.27617  0.00000  0.44766
       7     H     0.43223  0.43223  0.00000  0.13555
       8     H     0.43406  0.43406  0.00000  0.13188
       9     O     4.16937  4.16937  0.00000 -0.33875
      10     O     4.17349  4.17349  0.00000 -0.34698

   Total alpha = 20.00000, Total beta = 20.00000, Total charge = -0.00000
