                              Psi4 1.0.54 Driver

  ==> Input File <==

--------------------------------------------------------------------------
set {
	reference rhf
	basis cc-pvtz
}

set_num_threads( 4 )
memory 2 gb

molecule MOL {
0 1

H	 3.459101	 0.139266	 -0.762951
C	 2.749156	 -0.051729	 0.031265
C	 1.322304	 0.099773	 -0.484271
H	 2.929445	 -1.053887	 0.403481
H	 2.954281	 0.646699	 0.834672
C	 0.308557	 -0.162619	 0.622645
H	 1.143368	 -0.594400	 -1.295960
H	 1.169532	 1.100095	 -0.870217
N	 -1.069352	 -0.004081	 0.085342
H	 0.371632	 -1.172932	 0.991288
H	 0.400391	 0.548875	 1.426218
O	 -1.519754	 -0.911931	 -0.529088
O	 -1.613243	 1.030384	 0.282842

	symmetry c1
}
set optking {
	frozen_dihedral = ("
		12 9 6 3
	")
}

ee,wfn = optimize('scf', return_wfn=True)
oeprop( wfn, 'DIPOLE', 'QUADRUPOLE', 'MULLIKEN_CHARGES')
f=open( 'psi4out.xyz', 'w' )
f.write( "13  " )
f.write( str(ee) + "\n" )
f.write( MOL.save_string_xyz() )
f.close()
--------------------------------------------------------------------------

    Molecular point group: c1
  Charge       = 0
  Multiplicity = 1
  Basis Set: CC-PVTZ
  Basis Set:
  @DF-RHF Final Energy:  -321.86150060420056
    Total Energy =                       -321.8615006042004438
    Molecular point group: c1
  Basis Set: CC-PVTZ
  Basis Set:
  Basis Set: CC-PVTZ
  Basis Set:
  @DF-RHF Final Energy:  -321.86142525082403
    Total Energy =                       -321.8614252508240270
  Basis Set: CC-PVTZ
  Basis Set:
  Basis Set: CC-PVTZ
  Basis Set:
  @DF-RHF Final Energy:  -321.86145972265751
    Total Energy =                       -321.8614597226576279
  Basis Set: CC-PVTZ
  Basis Set:
  Basis Set: CC-PVTZ
  Basis Set:
  @DF-RHF Final Energy:  -321.86151095535365
    Total Energy =                       -321.8615109553536513
  Basis Set: CC-PVTZ
  Basis Set:
  Charge       = 0
  Multiplicity = 1
  Basis Set: CC-PVTZ
  Basis Set:

    Orbital Energies (a.u.)
    -----------------------

    Doubly Occupied:

       1A    -20.591237     2A    -20.589577     3A    -15.836968
       4A    -11.297304     5A    -11.254065     6A    -11.237193
       7A     -1.636012     8A     -1.420327     9A     -1.134265
      10A     -1.027896    11A     -0.884084    12A     -0.834285
      13A     -0.761662    14A     -0.738818    15A     -0.727676
      16A     -0.673211    17A     -0.604207    18A     -0.588272
      19A     -0.551442    20A     -0.520752    21A     -0.514607
      22A     -0.486999    23A     -0.475129    24A     -0.452980

  @DF-RHF Final Energy:  -321.86151135408511

   => Energetics <=

    Nuclear Repulsion Energy =            248.0076282903253002
    One-Electron Energy =                -930.0603417226750480
    Two-Electron Energy =                 360.1912020782645527
    DFT Exchange-Correlation Energy =       0.0000000000000000
    Empirical Dispersion Energy =           0.0000000000000000
    PCM Polarization Energy =               0.0000000000000000
    EFP Energy =                            0.0000000000000000
    Total Energy =                       -321.8615113540851667
    Molecular point group: c1
  Basis Set: CC-PVTZ
  Basis Set:

  -Total Gradient:
     Atom            X                  Y                   Z
    ------   -----------------  -----------------  -----------------
       1        0.000000793975     0.000000759679    -0.000001575806
       2       -0.000001713479     0.000006826693    -0.000000154368
       3        0.000002687213    -0.000131582852    -0.000036937640
       4       -0.000001530771    -0.000000861398    -0.000002143990
       5       -0.000003236268    -0.000003222162    -0.000000066286
       6        0.000018907776     0.000201605057    -0.000001198914
       7       -0.000000308370    -0.000001815124    -0.000000895252
       8        0.000001542883    -0.000003503741     0.000004469153
       9       -0.000078768160    -0.000328002646     0.000128999425
      10        0.000006934931     0.000003434123     0.000001266660
      11       -0.000005795447    -0.000000761037    -0.000007798581
      12        0.000106317592     0.000163795648    -0.000099798007
      13       -0.000045831878     0.000093327756     0.000015833608

  **** Optimization is complete! (in 5 steps) ****
    Final optimized geometry and variables:
    Molecular point group: c1

    Geometry (in Angstrom), charge = 0, multiplicity = 1:

    H            3.461011296254     0.135925606469    -0.763128602752
    C            2.750218667780    -0.052063803470     0.031047986855
    C            1.323897911520     0.096068740347    -0.487067615722
    H            2.930392506243    -1.052775481519     0.407349568408
    H            2.954465685323     0.649405408909     0.832008669316
    C            0.309481162023    -0.164340635895     0.619383601682
    H            1.145761242294    -0.599006984881    -1.297248053823
    H            1.171660545452     1.096187516910    -0.875415581795
    N           -1.069711790955    -0.002821599141     0.085639965301
    H            0.370533629123    -1.177425022942     0.982837169389
    H            0.402812692161     0.540999031520     1.427504733810
    O           -1.520489011025    -0.911555481856    -0.527913478350
    O           -1.615374818276     1.029931339563     0.285393602958

  Mulliken Charges: (a.u.)
   Center  Symbol    Alpha    Beta     Spin     Total
       1     H     0.44166  0.44166  0.00000  0.11668
       2     C     3.15109  3.15109  0.00000 -0.30219
       3     C     3.09606  3.09606  0.00000 -0.19212
       4     H     0.45164  0.45164  0.00000  0.09672
       5     H     0.45161  0.45161  0.00000  0.09678
       6     C     3.03942  3.03942  0.00000 -0.07883
       7     H     0.43630  0.43630  0.00000  0.12740
       8     H     0.43972  0.43972  0.00000  0.12056
       9     N     3.27608  3.27608  0.00000  0.44784
      10     H     0.43531  0.43531  0.00000  0.12937
      11     H     0.43401  0.43401  0.00000  0.13197
      12     O     4.17492  4.17492  0.00000 -0.34985
      13     O     4.17217  4.17217  0.00000 -0.34433

   Total alpha = 24.00000, Total beta = 24.00000, Total charge = -0.00000

*** Psi4 exiting successfully. Buy a developer a beer!
