  ==> Input File <==

--------------------------------------------------------------------------
set {
	reference rhf
	basis 6-31G*
}

set_num_threads( 4 )
memory 2 gb

molecule MOL {
0 1

H	 -2.798360	 -0.862255	 -0.071053
N	 -1.863561	 -0.715187	 0.256814
C	 -1.344686	 0.554728	 -0.219830
H	 -1.300452	 -1.461917	 -0.101532
C	 0.081427	 0.741154	 0.254071
H	 -1.362155	 0.656231	 -1.305829
H	 -1.952773	 1.354456	 0.191809
O	 0.874168	 -0.245412	 -0.342030
H	 0.444037	 1.730782	 -0.023037
H	 0.121165	 0.653424	 1.337565
C	 0.163956	 -1.346523	 -0.811842
H	 0.875935	 -2.035222	 -1.245982
H	 -0.366587	 -1.851146	 -0.006322
H	 -0.557941	 -1.058607	 -1.573274

	symmetry c1
}
set optking {
	frozen_dihedral = ("
		11 8 5 3
	")
}

ee = optimize('scf')
oeprop('DIPOLE', 'QUADRUPOLE', 'MULLIKEN_CHARGES')
f=open( 'psi4out.xyz', 'w' )
f.write( "14  " )
f.write( str(ee) + "\n" )
f.write( MOL.save_string_xyz() )
f.close()
--------------------------------------------------------------------------

    Molecular point group: c1
  Charge       = 0
  Multiplicity = 1
  Basis Set: 6-31G*
  Basis Set:
  @DF-RHF Final Energy:  -248.02132908916417
    Total Energy =                       -248.0213290891642828
    Molecular point group: c1
  Basis Set: 6-31G*
  Basis Set:
  Basis Set: 6-31G*
  Basis Set:
  @DF-RHF Final Energy:  -248.08405923623587
    Total Energy =                       -248.0840592362361008
  Basis Set: 6-31G*
  Basis Set:
  Basis Set: 6-31G*
  Basis Set:
  @DF-RHF Final Energy:  -248.10110502667783
    Total Energy =                       -248.1011050266776010
  Basis Set: 6-31G*
  Basis Set:
  Basis Set: 6-31G*
  Basis Set:
  @DF-RHF Final Energy:  -248.10625730648064
    Total Energy =                       -248.1062573064805292
  Basis Set: 6-31G*
  Basis Set:
  @DF-RHF Final Energy:  -248.10900092414320
    Total Energy =                       -248.1090009241431176
  @DF-RHF Final Energy:  -248.11027518853950
    Total Energy =                       -248.1102751885395605
  @DF-RHF Final Energy:  -248.11052700877730
    Total Energy =                       -248.1105270087772396
  @DF-RHF Final Energy:  -248.11059109248572
    Total Energy =                       -248.1105910924857199
  Basis Set: 6-31G*
  Basis Set:
  @DF-RHF Final Energy:  -248.11062392779613
    Total Energy =                       -248.1106239277960981
  Basis Set: 6-31G*
  Basis Set:
  Basis Set: 6-31G*
  Basis Set:
  @DF-RHF Final Energy:  -248.11063321964377
    Total Energy =                       -248.1106332196437734
  Basis Set: 6-31G*
  Basis Set:
  Basis Set: 6-31G*
  Basis Set:
  @DF-RHF Final Energy:  -248.11063532327299
    Total Energy =                       -248.1106353232730726
  Basis Set: 6-31G*
  Basis Set:
  Charge       = 0
  Multiplicity = 1
  Basis Set: 6-31G*
  Basis Set:

    Orbital Energies (a.u.)
    -----------------------

    Doubly Occupied:

       1A    -20.547405     2A    -15.542117     3A    -11.265952
       4A    -11.263434     5A    -11.251169     6A     -1.367912
       7A     -1.184216     8A     -1.002388     9A     -0.921379
      10A     -0.806035    11A     -0.689519    12A     -0.672981
      13A     -0.639110    14A     -0.617600    15A     -0.605258
      16A     -0.547976    17A     -0.536279    18A     -0.517792
      19A     -0.453250    20A     -0.405690    21A     -0.389718

  @DF-RHF Final Energy:  -248.11063552434092

   => Energetics <=

    Nuclear Repulsion Energy =            196.7967826482075111
    One-Electron Energy =                -727.3604765381580819
    Two-Electron Energy =                 282.4530583656097065
    DFT Exchange-Correlation Energy =       0.0000000000000000
    Empirical Dispersion Energy =           0.0000000000000000
    PCM Polarization Energy =               0.0000000000000000
    EFP Energy =                            0.0000000000000000
    Total Energy =                       -248.1106355243409212
    Molecular point group: c1
  Basis Set: 6-31G*
  Basis Set:

  -Total Gradient:
     Atom            X                  Y                   Z
    ------   -----------------  -----------------  -----------------
       1       -0.000007852868     0.000002113180    -0.000005935212
       2       -0.000021379685     0.000055808568     0.000031613166
       3       -0.000606404227    -0.002026252012     0.002307752069
       4        0.000022704005    -0.000036818560    -0.000015292715
       5        0.000751886518     0.003900466337    -0.005121636831
       6       -0.000001544314     0.000007009257     0.000002143260
       7       -0.000008397573    -0.000001424509     0.000003378518
       8        0.000082906676    -0.003538352609     0.005908826848
       9        0.000011391887    -0.000013741662    -0.000001958469
      10        0.000013212017    -0.000005855300    -0.000003763799
      11       -0.000234940013     0.001677475925    -0.003105110488
      12        0.000009359654    -0.000001428060    -0.000002192922
      13       -0.000006547339    -0.000010583364    -0.000003633768
      14       -0.000004394739    -0.000008417191     0.000005810344

  **** Optimization is complete! (in 12 steps) ****
    Final optimized geometry and variables:
    Molecular point group: c1

    Geometry (in Angstrom), charge = 0, multiplicity = 1:

    H           -2.721835613136    -0.143306815630     0.509150063027
    N           -1.735933553244    -0.302976559389     0.579493137324
    C           -1.002160046267     0.792016787657    -0.039246252169
    H           -1.553445215282    -1.176447382205     0.128796858855
    C            0.455136920189     0.876738381803     0.405141256184
    H           -1.065156696706     0.805038452231    -1.128107518182
    H           -1.461825893621     1.713672383250     0.302862276034
    O            1.383379979023    -0.026223767710    -0.147228823647
    H            0.830531708358     1.863393214563     0.158428982693
    H            0.470547430245     0.771317676334     1.485694540588
    C            0.968462715164    -1.213277797358    -0.739454586932
    H            1.850263547854    -1.666804542609    -1.171726353543
    H            0.549947403001    -1.909113414837    -0.015529323576
    H            0.247389011618    -1.055187947094    -1.536711924425

  Mulliken Charges: (a.u.)
   Center  Symbol    Alpha    Beta     Spin     Total
       1     H     0.32976  0.32976  0.00000  0.34049
       2     N     3.92247  3.92247  0.00000 -0.84493
       3     C     3.09763  3.09763  0.00000 -0.19527
       4     H     0.32993  0.32993  0.00000  0.34014
       5     C     2.97353  2.97353  0.00000  0.05294
       6     H     0.42491  0.42491  0.00000  0.15019
       7     H     0.41441  0.41441  0.00000  0.17119
       8     O     4.31376  4.31376  0.00000 -0.62751
       9     H     0.42208  0.42208  0.00000  0.15584
      10     H     0.41877  0.41877  0.00000  0.16247
      11     C     3.08117  3.08117  0.00000 -0.16234
      12     H     0.41096  0.41096  0.00000  0.17807
      13     H     0.42790  0.42790  0.00000  0.14419
      14     H     0.43273  0.43273  0.00000  0.13454

   Total alpha = 21.00000, Total beta = 21.00000, Total charge =  0.00000
