  ==> Input File <==

--------------------------------------------------------------------------
set {
	reference rhf
	basis 6-31G*
}

set_num_threads( 4 )
memory 2 gb

molecule MOL {
0 1

H	 2.720701	 -0.559609	 -0.777232
N	 2.332695	 -0.069570	 0.000000
C	 0.936681	 -0.007078	 0.000000
H	 2.727973	 -0.397164	 0.855111
C	 0.227108	 -0.002120	 -1.198267
C	 0.227108	 -0.002120	 1.198267
H	 0.761569	 -0.014657	 -2.132680
C	 -1.156334	 0.010459	 -1.192360
H	 0.761569	 -0.014657	 2.132680
C	 -1.156334	 0.010459	 1.192360
H	 -1.684791	 0.014915	 -2.129421
C	 -1.862085	 0.017996	 0.000000
H	 -1.684791	 0.014915	 2.129421
H	 -2.936703	 0.028387	 0.000000

	symmetry c1
}
set optking {
	frozen_dihedral = ("
		1 2 3 5
	")
}

ee = optimize('scf')
oeprop('DIPOLE', 'QUADRUPOLE', 'MULLIKEN_CHARGES')
f=open( 'psi4out.xyz', 'w' )
f.write( "14  " )
f.write( str(ee) + "\n" )
f.write( MOL.save_string_xyz() )
f.close()
--------------------------------------------------------------------------

    Molecular point group: c1
  Charge       = 0
  Multiplicity = 1
  Basis Set: 6-31G*
  Basis Set:
  @DF-RHF Final Energy:  -285.72986801996871
    Total Energy =                       -285.7298680199685350
    Molecular point group: c1
  Basis Set: 6-31G*
  Basis Set:
  Basis Set: 6-31G*
  Basis Set:
  @DF-RHF Final Energy:  -285.73027182357748
    Total Energy =                       -285.7302718235772545
  Basis Set: 6-31G*
  Basis Set:
  Basis Set: 6-31G*
  Basis Set:
  @DF-RHF Final Energy:  -285.73040433618195
    Total Energy =                       -285.7304043361815502
  Basis Set: 6-31G*
  Basis Set:
  Basis Set: 6-31G*
  Basis Set:
  @DF-RHF Final Energy:  -285.73040633633087
    Total Energy =                       -285.7304063363307591
  Basis Set: 6-31G*
  Basis Set:
  Charge       = 0
  Multiplicity = 1
  Basis Set: 6-31G*
  Basis Set:

    Orbital Energies (a.u.)
    -----------------------

    Doubly Occupied:

       1A    -15.560852     2A    -11.270961     3A    -11.228524
       4A    -11.228463     5A    -11.217451     6A    -11.217242
       7A    -11.213278     8A     -1.222283     9A     -1.125310
      10A     -1.009221    11A     -0.983801    12A     -0.828700
      13A     -0.809253    14A     -0.703182    15A     -0.682551
      16A     -0.652046    17A     -0.595227    18A     -0.589311
      19A     -0.578174    20A     -0.529336    21A     -0.502648
      22A     -0.484306    23A     -0.443085    24A     -0.330924
      25A     -0.289573

  @DF-RHF Final Energy:  -285.73040691847939

   => Energetics <=

    Nuclear Repulsion Energy =            273.0671422520462102
    One-Electron Energy =                -927.0036939522967714
    Two-Electron Energy =                 368.2061447817711723
    DFT Exchange-Correlation Energy =       0.0000000000000000
    Empirical Dispersion Energy =           0.0000000000000000
    PCM Polarization Energy =               0.0000000000000000
    EFP Energy =                            0.0000000000000000
    Total Energy =                       -285.7304069184793889
    Molecular point group: c1
  Basis Set: 6-31G*
  Basis Set:

  -Total Gradient:
     Atom            X                  Y                   Z
    ------   -----------------  -----------------  -----------------
       1        0.000046715337    -0.000333477073     0.000156883590
       2       -0.000129984898     0.000554430010    -0.000230275902
       3        0.000091448955    -0.000498503703     0.000053774036
       4        0.000026041458    -0.000009589473     0.000016939361
       5       -0.000027756548     0.000298560787    -0.000008196694
       6       -0.000000476612     0.000016807774     0.000001243096
       7        0.000001470466    -0.000000536297    -0.000001361991
       8        0.000020636127    -0.000021752129     0.000012160757
       9       -0.000003713125     0.000001686656    -0.000001240767
      10       -0.000015787882    -0.000018378458    -0.000025738389
      11        0.000001167901     0.000007322447     0.000000862657
      12       -0.000008661592    -0.000020343606     0.000020042378
      13       -0.000005042482     0.000006181904     0.000000570133
      14        0.000003942891     0.000017591162     0.000004337735

  **** Optimization is complete! (in 5 steps) ****
    Final optimized geometry and variables:
    Molecular point group: c1

    Geometry (in Angstrom), charge = 0, multiplicity = 1:

    H            2.744175950836    -0.458744152777    -0.796428068137
    N            2.333920711979    -0.022381493408     0.001398839318
    C            0.936035544253    -0.030833591123     0.001950933836
    H            2.743251550673    -0.375096132336     0.839947499979
    C            0.228937561843    -0.010335077979    -1.197806508392
    C            0.224982529072    -0.003336879524     1.198591249749
    H            0.765751217002    -0.019825235955    -2.130890298262
    C           -1.153584945443     0.030667781477    -1.194472628882
    H            0.757587161088    -0.010404602429     2.134209122413
    C           -1.158088421506     0.040363847676     1.190261956056
    H           -1.680305466558     0.044244706641    -2.132498340424
    C           -1.861178382747     0.055932773590    -0.003144177036
    H           -1.687892573640     0.060616441364     2.126432670761
    H           -2.935412429952     0.088361834996    -0.005208828348

  Mulliken Charges: (a.u.)
   Center  Symbol    Alpha    Beta     Spin     Total
       1     H     0.32075  0.32075  0.00000  0.35850
       2     N     3.94361  3.94361  0.00000 -0.88722
       3     C     2.85292  2.85292  0.00000  0.29416
       4     H     0.32086  0.32086  0.00000  0.35828
       5     C     3.12626  3.12626  0.00000 -0.25253
       6     C     3.12742  3.12742  0.00000 -0.25485
       7     H     0.40375  0.40375  0.00000  0.19251
       8     C     3.08985  3.08985  0.00000 -0.17970
       9     H     0.40431  0.40431  0.00000  0.19138
      10     C     3.08972  3.08972  0.00000 -0.17944
      11     H     0.40084  0.40084  0.00000  0.19831
      12     C     3.11601  3.11601  0.00000 -0.23201
      13     H     0.40086  0.40086  0.00000  0.19828
      14     H     0.40284  0.40284  0.00000  0.19433

   Total alpha = 25.00000, Total beta = 25.00000, Total charge = -0.00000
