  ==> Input File <==

--------------------------------------------------------------------------
set {
	reference rhf
	basis 6-31G*
}

set_num_threads( 4 )
memory 2 gb

molecule MOL {
0 1

H	 -3.161837	 0.500524	 -0.000234
C	 -2.367097	 -0.232926	 -0.000000
O	 -1.158440	 0.455814	 -0.000122
H	 -2.468853	 -0.861886	 -0.882833
H	 -2.468942	 -0.861421	 0.883154
C	 -1.201254	 1.690764	 0.648678
C	 0.173873	 2.331254	 0.574778
H	 -1.501766	 1.558110	 1.688868
H	 -1.945125	 2.335861	 0.179195
C	 0.221408	 3.694448	 1.263490
H	 0.892785	 1.656411	 1.029106
H	 0.452561	 2.428798	 -0.469979
H	 -0.030970	 3.615233	 2.317270
H	 1.213313	 4.128388	 1.195188
H	 -0.474921	 4.393029	 0.807953

	symmetry c1
}
set optking {
	frozen_dihedral = ("
		6 3 2 4
	")
}

ee = optimize('scf')
oeprop('DIPOLE', 'QUADRUPOLE', 'MULLIKEN_CHARGES')
f=open( 'psi4out.xyz', 'w' )
f.write( "15  " )
f.write( str(ee) + "\n" )
f.write( MOL.save_string_xyz() )
f.close()
--------------------------------------------------------------------------

    Molecular point group: c1
  Charge       = 0
  Multiplicity = 1
  Basis Set: 6-31G*
  Basis Set:
  @DF-RHF Final Energy:  -232.13634817825277
    Total Energy =                       -232.1363481782526037
    Molecular point group: c1
  Basis Set: 6-31G*
  Basis Set:
  Basis Set: 6-31G*
  Basis Set:
  @DF-RHF Final Energy:  -232.13724472274467
    Total Energy =                       -232.1372447227448106
  Basis Set: 6-31G*
  Basis Set:
  Basis Set: 6-31G*
  Basis Set:
  @DF-RHF Final Energy:  -232.13749551993763
    Total Energy =                       -232.1374955199375449
  Basis Set: 6-31G*
  Basis Set:
  Basis Set: 6-31G*
  Basis Set:
  @DF-RHF Final Energy:  -232.13749670335562
    Total Energy =                       -232.1374967033557368
  Basis Set: 6-31G*
  Basis Set:
  Charge       = 0
  Multiplicity = 1
  Basis Set: 6-31G*
  Basis Set:

    Orbital Energies (a.u.)
    -----------------------

    Doubly Occupied:

       1A    -20.551467     2A    -11.266526     3A    -11.263677
       4A    -11.213973     5A    -11.212802     6A     -1.375643
       7A     -1.057069     8A     -0.955313     9A     -0.877333
      10A     -0.808921    11A     -0.673134    12A     -0.652732
      13A     -0.629388    14A     -0.608105    15A     -0.564376
      16A     -0.544102    17A     -0.502322    18A     -0.487904
      19A     -0.478505    20A     -0.460816    21A     -0.411285

  @DF-RHF Final Energy:  -232.13749697718544

   => Energetics <=

    Nuclear Repulsion Energy =            189.5602477833114676
    One-Electron Energy =                -690.2047044905914390
    Two-Electron Energy =                 268.5069597300943087
    DFT Exchange-Correlation Energy =       0.0000000000000000
    Empirical Dispersion Energy =           0.0000000000000000
    PCM Polarization Energy =               0.0000000000000000
    EFP Energy =                            0.0000000000000000
    Total Energy =                       -232.1374969771856627
    Molecular point group: c1
  Basis Set: 6-31G*
  Basis Set:

  -Total Gradient:
     Atom            X                  Y                   Z
    ------   -----------------  -----------------  -----------------
       1       -0.000006208396    -0.000000543332     0.000000145929
       2        0.001392222557    -0.002399112155     0.000936887740
       3        0.000583604995    -0.001040209047     0.002693350669
       4       -0.001339941046     0.002319012934    -0.001483538380
       5        0.000001943888     0.000000115278    -0.000005120309
       6       -0.000633514734     0.001115092183    -0.002148542809
       7       -0.000000616729     0.000001360762     0.000003597862
       8        0.000001743213    -0.000002518918    -0.000004740223
       9       -0.000000579292    -0.000001825065     0.000001546437
      10        0.000005665455     0.000006864229     0.000000861162
      11       -0.000001772300     0.000000235879     0.000000032470
      12       -0.000003921077    -0.000001835819     0.000002447504
      13        0.000001030728     0.000000527430     0.000000514811
      14        0.000000494690     0.000004214034     0.000001916701
      15       -0.000000151951    -0.000001378391     0.000000640438

  **** Optimization is complete! (in 5 steps) ****
    Final optimized geometry and variables:
    Molecular point group: c1

    Geometry (in Angstrom), charge = 0, multiplicity = 1:

    H           -2.334603127976    -1.132679161524    -0.511551468046
    C           -1.480774210362    -1.806508473369    -0.495550712305
    O           -0.275911413269    -1.105344743103    -0.490575386029
    H           -1.518153844659    -2.406087746311    -1.395948971889
    H           -1.568181495040    -2.450485138227     0.375930491485
    C           -0.308946464634     0.129149204159     0.161399736579
    C            1.070340504508     0.759500027435     0.080166617224
    H           -0.603616775083     0.001623799500     1.203910636149
    H           -1.049931195655     0.777926131194    -0.305980965989
    C            1.129335076311     2.126106847949     0.761377656850
    H            1.786331690557     0.082291820831     0.535528581720
    H            1.345845910020     0.849332225489    -0.966146377376
    H            0.879606609007     2.054275383737     1.816322065850
    H            2.123979791310     2.552945872367     0.687957340156
    H            0.436373958403     2.827082760724     0.304320967311

  Mulliken Charges: (a.u.)
   Center  Symbol    Alpha    Beta     Spin     Total
       1     H     0.43155  0.43155  0.00000  0.13691
       2     C     3.07719  3.07719  0.00000 -0.15437
       3     O     4.30828  4.30828  0.00000 -0.61656
       4     H     0.41481  0.41481  0.00000  0.17037
       5     H     0.42640  0.42640  0.00000  0.14719
       6     C     2.98145  2.98145  0.00000  0.03710
       7     C     3.15994  3.15994  0.00000 -0.31989
       8     H     0.43374  0.43374  0.00000  0.13251
       9     H     0.43275  0.43275  0.00000  0.13450
      10     C     3.24793  3.24793  0.00000 -0.49586
      11     H     0.41435  0.41435  0.00000  0.17130
      12     H     0.41436  0.41436  0.00000  0.17128
      13     H     0.42087  0.42087  0.00000  0.15825
      14     H     0.41542  0.41542  0.00000  0.16915
      15     H     0.42096  0.42096  0.00000  0.15809

   Total alpha = 21.00000, Total beta = 21.00000, Total charge = -0.00000
