  ==> Input File <==

--------------------------------------------------------------------------
set {
	reference rhf
	basis 6-31G*
}

set_num_threads( 4 )
memory 2 gb

molecule MOL {
0 1

O	 3.225979	 0.970355	 -0.599647
C	 2.701189	 0.057885	 -0.047330
C	 1.245376	 -0.013843	 0.345420
O	 3.347903	 -1.046386	 0.304773
C	 0.455112	 1.231400	 -0.050772
H	 0.838542	 -0.913825	 -0.103701
H	 1.208210	 -0.175333	 1.419774
C	 -0.998893	 1.219485	 0.433193
H	 0.482531	 1.345121	 -1.130325
H	 0.957290	 2.103070	 0.354729
C	 -1.883438	 0.145884	 -0.207175
H	 -1.431207	 2.195402	 0.224832
H	 -1.019646	 1.105716	 1.516076
C	 -3.347647	 0.245583	 0.225435
H	 -1.822183	 0.231698	 -1.291012
H	 -1.510341	 -0.844814	 0.042401
C	 -4.239992	 -0.825570	 -0.404234
H	 -3.732888	 1.230466	 -0.033079
H	 -3.408585	 0.170602	 1.310038
C	 -5.690575	 -0.749660	 0.070896
H	 -4.209798	 -0.727875	 -1.487372
H	 -3.837026	 -1.810049	 -0.175760
H	 -6.297652	 -1.521135	 -0.392667
H	 -6.133578	 0.211514	 -0.174231
H	 -5.757763	 -0.878392	 1.147552
C	 4.728119	 -1.109107	 -0.004993
H	 4.882018	 -1.033965	 -1.071845
H	 5.068212	 -2.067527	 0.355250
H	 5.265056	 -0.311663	 0.488280

	symmetry c1
}
set optking {
	frozen_dihedral = ("
		21 17 14 11
	")
}

ee = optimize('scf')
oeprop('DIPOLE', 'QUADRUPOLE', 'MULLIKEN_CHARGES')
f=open( 'psi4out.xyz', 'w' )
f.write( "29  " )
f.write( str(ee) + "\n" )
f.write( MOL.save_string_xyz() )
f.close()
--------------------------------------------------------------------------

    Molecular point group: c1
  Charge       = 0
  Multiplicity = 1
  Basis Set: 6-31G*
  Basis Set:
  @DF-RHF Final Energy:  -501.04409433768001
    Total Energy =                       -501.0440943376795531
    Molecular point group: c1
  Basis Set: 6-31G*
  Basis Set:
  Charge       = 0
  Multiplicity = 1
  Basis Set: 6-31G*
  Basis Set:

    Orbital Energies (a.u.)
    -----------------------

    Doubly Occupied:

       1A    -20.603371     2A    -20.545194     3A    -11.372006
       4A    -11.280662     5A    -11.234744     6A    -11.219090
       7A    -11.217632     8A    -11.215994     9A    -11.215858
      10A    -11.214464    11A    -11.209024    12A     -1.469066
      13A     -1.362510    14A     -1.098071    15A     -1.066817
      16A     -1.019513    17A     -0.977230    18A     -0.928551
      19A     -0.861568    20A     -0.799244    21A     -0.790477
      22A     -0.763790    23A     -0.700756    24A     -0.682314
      25A     -0.672163    26A     -0.651048    27A     -0.628615
      28A     -0.604795    29A     -0.594995    30A     -0.580938
      31A     -0.566962    32A     -0.549165    33A     -0.531986
      34A     -0.530434    35A     -0.515947    36A     -0.511664
      37A     -0.496526    38A     -0.477762    39A     -0.470257
      40A     -0.462203    41A     -0.459011    42A     -0.455778
      43A     -0.441120    44A     -0.435382

  @DF-RHF Final Energy:  -501.04409467636617

   => Energetics <=

    Nuclear Repulsion Energy =            610.2010205955317588
    One-Electron Energy =               -1891.5208377807894067
    Two-Electron Energy =                 780.2757225088918176
    DFT Exchange-Correlation Energy =       0.0000000000000000
    Empirical Dispersion Energy =           0.0000000000000000
    PCM Polarization Energy =               0.0000000000000000
    EFP Energy =                            0.0000000000000000
    Total Energy =                       -501.0440946763659440
    Molecular point group: c1
  Basis Set: 6-31G*
  Basis Set:

  -Total Gradient:
     Atom            X                  Y                   Z
    ------   -----------------  -----------------  -----------------
       1       -0.000000148424     0.000005886776     0.000008553681
       2       -0.000005038005    -0.000010753755    -0.000025525723
       3       -0.000002352388     0.000001974587     0.000007584936
       4        0.000002590810     0.000001161098     0.000009804482
       5        0.000000392440     0.000009972678    -0.000007638222
       6       -0.000001061805    -0.000001736380    -0.000000802537
       7       -0.000001374406    -0.000000487938    -0.000000422767
       8       -0.000013792173     0.000028000486    -0.000032737430
       9        0.000003221859     0.000002581568     0.000000784373
      10        0.000001467860    -0.000000721079     0.000000633656
      11        0.000076374200    -0.000268856301     0.000318974035
      12       -0.000002751781     0.000017118603     0.000007352816
      13       -0.000005097973    -0.000011369464    -0.000015603951
      14       -0.000215098406     0.000482177856    -0.000488418774
      15       -0.000037819075    -0.000030564799     0.000011571883
      16        0.000051714286     0.000007300385     0.000021098832
      17        0.000445557852    -0.000559365858     0.000288819360
      18        0.000013043124     0.000092996155     0.000077709635
      19        0.000008959065    -0.000073460493    -0.000061098772
      20        0.000042722105     0.000074909234    -0.000156281905
      21       -0.000405217848     0.000307979834     0.000035047460
      22        0.000020272966    -0.000081501645     0.000013743605
      23       -0.000002725996     0.000021733604    -0.000022679617
      24       -0.000025233079     0.000015274442     0.000037412645
      25        0.000053511109    -0.000030790250    -0.000027127387
      26       -0.000001580358     0.000000130673    -0.000001871398
      27        0.000000487015    -0.000000174573    -0.000000110849
      28       -0.000001149972     0.000000388030     0.000000678887
      29        0.000000126999     0.000000196525     0.000000549046

  **** Optimization is complete! (in 2 steps) ****
    Final optimized geometry and variables:
    Molecular point group: c1

    Geometry (in Angstrom), charge = 0, multiplicity = 1:

    O            3.223740956812     0.972144233494    -0.609908849685
    C            2.700664996720     0.061828464157    -0.052432422208
    C            1.245423488159    -0.009573030328     0.342456571623
    O            3.349085889006    -1.039874979217     0.304542349854
    C            0.453239383977     1.232719399779    -0.059138899445
    H            0.839102470711    -0.912314578940    -0.101556202378
    H            1.209763654445    -0.165597683837     1.417670747052
    C           -1.000142777864     1.221612026628     0.426689805755
    H            0.479202017019     1.340930190585    -1.139290596251
    H            0.954918369853     2.107025256186     0.341267219811
    C           -1.884063539600     0.143227299145    -0.206485397460
    H           -1.433962114825     2.195800613767     0.213437997972
    H           -1.019428542041     1.113832303306     1.510214739893
    C           -3.347567182121     0.242439374023     0.228658352395
    H           -1.824917907889     0.223634863657    -1.290897778233
    H           -1.508903229967    -0.845527728437     0.047428574011
    C           -4.243109445631    -0.821381756393    -0.408997005899
    H           -3.732089572949     1.230591606104    -0.018102020464
    H           -3.405458320120     0.155921049071     1.312571683416
    C           -5.694163648916    -0.740994950289     0.063971601833
    H           -4.213395948684    -0.713859473511    -1.491199777462
    H           -3.845533953810    -1.809647361104    -0.187529872573
    H           -6.306844475752    -1.498828901622    -0.414490088068
    H           -6.128312307071     0.228175780298    -0.165151509873
    H           -5.764904611580    -0.888029726345     1.138014214454
    C            4.729007715960    -1.102584812457    -0.006533576445
    H            4.881568942134    -1.032780605679    -1.073945160180
    H            5.070619094830    -2.058733488236     0.358260384958
    H            5.265584408977    -0.301983104691     0.481994837392

  Mulliken Charges: (a.u.)
   Center  Symbol    Alpha    Beta     Spin     Total
       1     O     4.28596  4.28596  0.00000 -0.57192
       2     C     2.60483  2.60483  0.00000  0.79034
       3     C     3.20974  3.20974  0.00000 -0.41949
       4     O     4.30746  4.30746  0.00000 -0.61493
       5     C     3.15377  3.15377  0.00000 -0.30753
       6     H     0.39880  0.39880  0.00000  0.20241
       7     H     0.40124  0.40124  0.00000  0.19751
       8     C     3.15663  3.15663  0.00000 -0.31325
       9     H     0.41308  0.41308  0.00000  0.17384
      10     H     0.40874  0.40874  0.00000  0.18251
      11     C     3.15507  3.15507  0.00000 -0.31014
      12     H     0.41823  0.41823  0.00000  0.16355
      13     H     0.42387  0.42387  0.00000  0.15226
      14     C     3.15032  3.15032  0.00000 -0.30064
      15     H     0.42267  0.42267  0.00000  0.15467
      16     H     0.42355  0.42355  0.00000  0.15289
      17     C     3.15142  3.15142  0.00000 -0.30283
      18     H     0.42320  0.42320  0.00000  0.15360
      19     H     0.42408  0.42408  0.00000  0.15184
      20     C     3.23936  3.23936  0.00000 -0.47873
      21     H     0.42277  0.42277  0.00000  0.15447
      22     H     0.42340  0.42340  0.00000  0.15321
      23     H     0.41925  0.41925  0.00000  0.16150
      24     H     0.42158  0.42158  0.00000  0.15684
      25     H     0.42185  0.42185  0.00000  0.15629
      26     C     3.09241  3.09241  0.00000 -0.18481
      27     H     0.40908  0.40908  0.00000  0.18183
      28     H     0.40852  0.40852  0.00000  0.18296
      29     H     0.40912  0.40912  0.00000  0.18175

   Total alpha = 44.00000, Total beta = 44.00000, Total charge = -0.00000
