  ==> Input File <==

--------------------------------------------------------------------------
set {
	reference rhf
	basis 6-31G*
}

set_num_threads( 1 )
memory 2 gb

molecule MOL {
0 1

H	 -3.420663	 1.227371	 -1.044276
O	 -3.452007	 0.283848	 -0.965577
C	 -3.181085	 -0.079926	 0.364119
C	 -1.765924	 0.277073	 0.805136
H	 -3.327791	 -1.152017	 0.410903
H	 -3.905698	 0.375695	 1.036898
C	 -1.199385	 1.509931	 0.099719
H	 -1.759997	 0.435789	 1.883902
H	 -1.123313	 -0.582431	 0.622042
C	 0.212122	 1.872669	 0.565816
H	 -1.866332	 2.351195	 0.261478
H	 -1.189695	 1.330465	 -0.974102
C	 0.774777	 3.104161	 -0.148979
H	 0.197485	 2.040959	 1.640005
H	 0.877425	 1.026529	 0.398408
C	 2.220809	 3.455146	 0.219740
H	 0.134954	 3.961496	 0.054242
H	 0.723738	 2.936597	 -1.222820
C	 2.417694	 3.896711	 1.671174
H	 2.559002	 4.253906	 -0.435926
H	 2.862332	 2.601054	 0.011946
H	 1.778803	 4.742378	 1.911599
H	 3.445423	 4.200259	 1.845728
H	 2.190800	 3.100681	 2.372614

	symmetry c1
}
set optking {
	frozen_dihedral = ("
		20 16 13 17,
		17 13 10 7,
		13 10 7 11,
		11 7 4 3,
		1 2 3 5
	")
}

ee = energy('scf')
oeprop('DIPOLE', 'QUADRUPOLE', 'MULLIKEN_CHARGES')
f=open( 'psi4out.xyz', 'w' )
f.write( "24  " )
f.write( str(ee) + "\n" )
f.write( MOL.save_string_xyz() )
f.close()
--------------------------------------------------------------------------

    Molecular point group: c1

    Geometry (in Angstrom), charge = 0, multiplicity = 1:

       Center              X                  Y                   Z               Mass
    ------------   -----------------  -----------------  -----------------  -----------------
           H         -2.875501144829    -0.547311035183    -1.357035468780     1.007825032070
           O         -2.906845144829    -1.490834035183    -1.278336468780    15.994914619560
           C         -2.635923144829    -1.854608035183     0.051359531220    12.000000000000
           C         -1.220762144829    -1.497609035183     0.492376531220    12.000000000000
           H         -2.782629144829    -2.926699035183     0.098143531220     1.007825032070
           H         -3.360536144829    -1.398987035183     0.724138531220     1.007825032070
           C         -0.654223144829    -0.264751035183    -0.213040468780    12.000000000000
           H         -1.214835144829    -1.338893035183     1.571142531220     1.007825032070
           H         -0.578151144829    -2.357113035183     0.309282531220     1.007825032070
           C          0.757283855171     0.097986964817     0.253056531220    12.000000000000
           H         -1.321170144829     0.576512964817    -0.051281468780     1.007825032070
           H         -0.644533144829    -0.444217035183    -1.286861468780     1.007825032070
           C          1.319938855171     1.329478964817    -0.461738468780    12.000000000000
           H          0.742646855171     0.266276964817     1.327245531220     1.007825032070
           H          1.422586855171    -0.748153035183     0.085648531220     1.007825032070
           C          2.765970855171     1.680463964817    -0.093019468780    12.000000000000
           H          0.680115855171     2.186813964817    -0.258517468780     1.007825032070
           H          1.268899855171     1.161914964817    -1.535579468780     1.007825032070
           C          2.962855855171     2.122028964817     1.358414531220    12.000000000000
           H          3.104163855171     2.479223964817    -0.748685468780     1.007825032070
           H          3.407493855171     0.826371964817    -0.300813468780     1.007825032070
           H          2.323964855171     2.967695964817     1.598839531220     1.007825032070
           H          3.990584855171     2.425576964817     1.532968531220     1.007825032070
           H          2.735961855171     1.325998964817     2.059854531220     1.007825032070

  Charge       = 0
  Multiplicity = 1
  Basis Set: 6-31G*
  Basis Set:

    Orbital Energies (a.u.)
    -----------------------

    Doubly Occupied:

       1A    -20.551536     2A    -11.266380     3A    -11.219522
       4A    -11.216641     5A    -11.216521     6A    -11.215878
       7A    -11.215196     8A    -11.209391     9A     -1.359479
      10A     -1.091902    11A     -1.049700    12A     -0.987787
      13A     -0.920712    14A     -0.854749    15A     -0.793785
      16A     -0.780307    17A     -0.692663    18A     -0.650968
      19A     -0.626845    20A     -0.611102    21A     -0.606864
      22A     -0.587581    23A     -0.560389    24A     -0.541068
      25A     -0.520975    26A     -0.512157    27A     -0.491945
      28A     -0.487166    29A     -0.468665    30A     -0.462695
      31A     -0.456181    32A     -0.443978    33A     -0.423116

  @DF-RHF Final Energy:  -349.24197963913804

   => Energetics <=

    Nuclear Repulsion Energy =            386.6245307463804579
    One-Electron Energy =               -1239.5452466960707625
    Two-Electron Energy =                 503.6787363105532904
    DFT Exchange-Correlation Energy =       0.0000000000000000
    Empirical Dispersion Energy =           0.0000000000000000
    PCM Polarization Energy =               0.0000000000000000
    EFP Energy =                            0.0000000000000000
    Total Energy =                       -349.2419796391369573

  Mulliken Charges: (a.u.)
   Center  Symbol    Alpha    Beta     Spin     Total
       1     H     0.27872  0.27872  0.00000  0.44256
       2     O     4.37038  4.37038  0.00000 -0.74076
       3     C     2.99556  2.99556  0.00000  0.00888
       4     C     3.16732  3.16732  0.00000 -0.33463
       5     H     0.41419  0.41419  0.00000  0.17163
       6     H     0.43069  0.43069  0.00000  0.13862
       7     C     3.16782  3.16782  0.00000 -0.33565
       8     H     0.42219  0.42219  0.00000  0.15562
       9     H     0.41780  0.41780  0.00000  0.16440
      10     C     3.15256  3.15256  0.00000 -0.30512
      11     H     0.42961  0.42961  0.00000  0.14077
      12     H     0.41124  0.41124  0.00000  0.17753
      13     C     3.15286  3.15286  0.00000 -0.30573
      14     H     0.42165  0.42165  0.00000  0.15669
      15     H     0.42180  0.42180  0.00000  0.15640
      16     C     3.15254  3.15254  0.00000 -0.30508
      17     H     0.42508  0.42508  0.00000  0.14985
      18     H     0.42165  0.42165  0.00000  0.15671
      19     C     3.24125  3.24125  0.00000 -0.48249
      20     H     0.42072  0.42072  0.00000  0.15856
      21     H     0.42284  0.42284  0.00000  0.15433
      22     H     0.42251  0.42251  0.00000  0.15498
      23     H     0.41894  0.41894  0.00000  0.16211
      24     H     0.42009  0.42009  0.00000  0.15981

   Total alpha = 33.00000, Total beta = 33.00000, Total charge =  0.00000
