  ==> Input File <==

--------------------------------------------------------------------------
set {
	reference rhf
	basis 6-31G*
}

set_num_threads( 1 )
memory 2 gb

molecule MOL {
0 1

H	 2.591676	 2.013956	 0.335017
O	 3.341076	 1.666752	 -0.126416
C	 3.569581	 0.339145	 0.272707
C	 2.539767	 -0.640285	 -0.279495
H	 4.553106	 0.084646	 -0.100901
H	 3.608576	 0.269204	 1.359154
C	 1.115811	 -0.397273	 0.226630
H	 2.556196	 -0.582511	 -1.364741
H	 2.852081	 -1.648031	 -0.010655
C	 1.017276	 0.816588	 1.154881
H	 0.766670	 -1.283248	 0.749616
H	 0.449238	 -0.251761	 -0.623574
C	 -0.402710	 1.155860	 1.622723
H	 1.653466	 0.655707	 2.023343
H	 1.425138	 1.682196	 0.637125
C	 -1.047086	 0.110246	 2.537026
H	 -0.370302	 2.106069	 2.151748
H	 -1.038825	 1.316102	 0.753517
C	 -2.418358	 0.541206	 3.061739
H	 -0.386171	 -0.085448	 3.380237
H	 -1.154357	 -0.833909	 2.008473
C	 -3.066615	 -0.503483	 3.969512
H	 -2.317538	 1.478239	 3.605147
H	 -3.077195	 0.746556	 2.220520
H	 -2.446573	 -0.707078	 4.838029
H	 -4.035505	 -0.168118	 4.326467
H	 -3.215197	 -1.442461	 3.443577

	symmetry c1
}
set optking {
	frozen_dihedral = ("
		14 10 7 4,
		14 10 13 16,
		8 4 3 2,
		10 13 16 20,
		20 16 19 22,
		4 3 2 1
	")
}

ee = energy('scf')
oeprop('DIPOLE', 'QUADRUPOLE', 'MULLIKEN_CHARGES')
f=open( 'psi4out.xyz', 'w' )
f.write( "27  " )
f.write( str(ee) + "\n" )
f.write( MOL.save_string_xyz() )
f.close()
--------------------------------------------------------------------------

    Molecular point group: c1

    Geometry (in Angstrom), charge = 0, multiplicity = 1:

       Center              X                  Y                   Z               Mass
    ------------   -----------------  -----------------  -----------------  -----------------
           H          2.041745743210     1.652026836415    -1.038405719199     1.007825032070
           O          2.791145743210     1.304822836415    -1.499838719199    15.994914619560
           C          3.019650743210    -0.022784163585    -1.100715719199    12.000000000000
           C          1.989836743210    -1.002214163585    -1.652917719199    12.000000000000
           H          4.003175743210    -0.277283163585    -1.474323719199     1.007825032070
           H          3.058645743210    -0.092725163585    -0.014268719199     1.007825032070
           C          0.565880743210    -0.759202163585    -1.146792719199    12.000000000000
           H          2.006265743210    -0.944440163585    -2.738163719199     1.007825032070
           H          2.302150743210    -2.009960163585    -1.384077719199     1.007825032070
           C          0.467345743210     0.454658836415    -0.218541719199    12.000000000000
           H          0.216739743210    -1.645177163585    -0.623806719199     1.007825032070
           H         -0.100692256790    -0.613690163585    -1.996996719199     1.007825032070
           C         -0.952640256790     0.793930836415     0.249300280801    12.000000000000
           H          1.103535743210     0.293777836415     0.649920280801     1.007825032070
           H          0.875207743210     1.320266836415    -0.736297719199     1.007825032070
           C         -1.597016256790    -0.251683163585     1.163603280801    12.000000000000
           H         -0.920232256790     1.744139836415     0.778325280801     1.007825032070
           H         -1.588755256790     0.954172836415    -0.619905719199     1.007825032070
           C         -2.968288256790     0.179276836415     1.688316280801    12.000000000000
           H         -0.936101256790    -0.447377163585     2.006814280801     1.007825032070
           H         -1.704287256790    -1.195838163585     0.635050280801     1.007825032070
           C         -3.616545256790    -0.865412163585     2.596089280801    12.000000000000
           H         -2.867468256790     1.116309836415     2.231724280801     1.007825032070
           H         -3.627125256790     0.384626836415     0.847097280801     1.007825032070
           H         -2.996503256790    -1.069007163585     3.464606280801     1.007825032070
           H         -4.585435256790    -0.530047163585     2.953044280801     1.007825032070
           H         -3.765127256790    -1.804390163585     2.070154280801     1.007825032070

  Charge       = 0
  Multiplicity = 1
  Basis Set: 6-31G*
  Basis Set:

    Orbital Energies (a.u.)
    -----------------------

    Doubly Occupied:

       1A    -20.541746     2A    -11.264107     3A    -11.227289
       4A    -11.220581     5A    -11.220046     6A    -11.218450
       7A    -11.217571     8A    -11.213848     9A    -11.211204
      10A     -1.357766    11A     -1.100494    12A     -1.063815
      13A     -1.014885    14A     -0.951823    15A     -0.892457
      16A     -0.830008    17A     -0.804603    18A     -0.785663
      19A     -0.689286    20A     -0.659022    21A     -0.643295
      22A     -0.622419    23A     -0.596309    24A     -0.584227
      25A     -0.570893    26A     -0.557673    27A     -0.547384
      28A     -0.536663    29A     -0.521661    30A     -0.498490
      31A     -0.479763    32A     -0.479273    33A     -0.468870
      34A     -0.464821    35A     -0.450894    36A     -0.434561
      37A     -0.417208

  @DF-RHF Final Energy:  -388.24887682931433

   => Energetics <=

    Nuclear Repulsion Energy =            473.3581847752144540
    One-Electron Energy =               -1464.4958406825962811
    Two-Electron Energy =                 602.8887790780663636
    DFT Exchange-Correlation Energy =       0.0000000000000000
    Empirical Dispersion Energy =           0.0000000000000000
    PCM Polarization Energy =               0.0000000000000000
    EFP Energy =                            0.0000000000000000
    Total Energy =                       -388.2488768293154635

  Mulliken Charges: (a.u.)
   Center  Symbol    Alpha    Beta     Spin     Total
       1     H     0.26641  0.26641  0.00000  0.46719
       2     O     4.38057  4.38057  0.00000 -0.76114
       3     C     3.00349  3.00349  0.00000 -0.00699
       4     C     3.16564  3.16564  0.00000 -0.33128
       5     H     0.41263  0.41263  0.00000  0.17475
       6     H     0.42971  0.42971  0.00000  0.14058
       7     C     3.15581  3.15581  0.00000 -0.31162
       8     H     0.41237  0.41237  0.00000  0.17525
       9     H     0.42183  0.42183  0.00000  0.15634
      10     C     3.17246  3.17246  0.00000 -0.34491
      11     H     0.41554  0.41554  0.00000  0.16892
      12     H     0.41681  0.41681  0.00000  0.16637
      13     C     3.14776  3.14776  0.00000 -0.29551
      14     H     0.41612  0.41612  0.00000  0.16777
      15     H     0.44226  0.44226  0.00000  0.11548
      16     C     3.15391  3.15391  0.00000 -0.30782
      17     H     0.42143  0.42143  0.00000  0.15715
      18     H     0.42148  0.42148  0.00000  0.15705
      19     C     3.15158  3.15158  0.00000 -0.30317
      20     H     0.42445  0.42445  0.00000  0.15111
      21     H     0.42122  0.42122  0.00000  0.15756
      22     C     3.23941  3.23941  0.00000 -0.47881
      23     H     0.42270  0.42270  0.00000  0.15460
      24     H     0.42240  0.42240  0.00000  0.15520
      25     H     0.42167  0.42167  0.00000  0.15666
      26     H     0.41867  0.41867  0.00000  0.16265
      27     H     0.42168  0.42168  0.00000  0.15664

   Total alpha = 37.00000, Total beta = 37.00000, Total charge =  0.00000
