                              Psi4 1.0.54 Driver

  ==> Input File <==

--------------------------------------------------------------------------
set {
	reference rhf
	basis cc-pvtz
}

set_num_threads( 4 )
memory 2 gb

molecule MOL {
0 1

O	 -1.278239	 1.034789	 -0.784693
C	 -1.204115	 0.062668	 -0.112312
C	 -2.386398	 -0.667698	 0.460323
O	 -0.068058	 -0.518372	 0.226882
H	 -2.382952	 -1.693172	 0.114333
H	 -3.296656	 -0.175702	 0.158400
H	 -2.312537	 -0.685191	 1.540100
C	 1.169086	 0.037484	 -0.230612
C	 1.979331	 0.348789	 1.011847
C	 0.899036	 1.262410	 -1.085735
H	 1.671003	 -0.713013	 -0.822154
H	 2.144775	 -0.547839	 1.595316
H	 2.942680	 0.758867	 0.733446
H	 1.465751	 1.071931	 1.634131
H	 1.835242	 1.691724	 -1.422942
H	 0.314166	 1.001412	 -1.956629
H	 0.364679	 2.013634	 -0.515289

	symmetry c1
}
set optking {
	frozen_dihedral = ("
		11 8 4 2
	")
}

ee,wfn = optimize('scf', return_wfn=True)
oeprop( wfn, 'DIPOLE', 'QUADRUPOLE', 'MULLIKEN_CHARGES')
f=open( 'psi4out.xyz', 'w' )
f.write( "17  " )
f.write( str(ee) + "\n" )
f.write( MOL.save_string_xyz() )
f.close()
--------------------------------------------------------------------------

    Molecular point group: c1
  Charge       = 0
  Multiplicity = 1
  Basis Set: CC-PVTZ
  Basis Set:
  @DF-RHF Final Energy:  -344.99760270025018
    Total Energy =                       -344.9976027002505816
    Molecular point group: c1
  Basis Set: CC-PVTZ
  Basis Set:
  Basis Set: CC-PVTZ
  Basis Set:
  @DF-RHF Final Energy:  -345.02351378834209
    Total Energy =                       -345.0235137883419156
  Basis Set: CC-PVTZ
  Basis Set:
  Basis Set: CC-PVTZ
  Basis Set:
  @DF-RHF Final Energy:  -345.02912632628835
    Total Energy =                       -345.0291263262882353
  Basis Set: CC-PVTZ
  Basis Set:
  Basis Set: CC-PVTZ
  Basis Set:
  @DF-RHF Final Energy:  -345.02762134506236
    Total Energy =                       -345.0276213450625278
  Basis Set: CC-PVTZ
  Basis Set:
  @DF-RHF Final Energy:  -345.02992440161830
    Total Energy =                       -345.0299244016183593
  @DF-RHF Final Energy:  -345.03143755882547
    Total Energy =                       -345.0314375588254734
  Basis Set: CC-PVTZ
  Basis Set:
  @DF-RHF Final Energy:  -345.03148696424421
    Total Energy =                       -345.0314869642443227
  Basis Set: CC-PVTZ
  Basis Set:
  Basis Set: CC-PVTZ
  Basis Set:
  @DF-RHF Final Energy:  -345.03150260658526
    Total Energy =                       -345.0315026065852635
  Basis Set: CC-PVTZ
  Basis Set:
  Basis Set: CC-PVTZ
  Basis Set:
  @DF-RHF Final Energy:  -345.03150651789269
    Total Energy =                       -345.0315065178923533
  Basis Set: CC-PVTZ
  Basis Set:
  Charge       = 0
  Multiplicity = 1
  Basis Set: CC-PVTZ
  Basis Set:

    Orbital Energies (a.u.)
    -----------------------

    Doubly Occupied:

       1A    -20.587869     2A    -20.526686     3A    -11.367053
       4A    -11.295861     5A    -11.227317     6A    -11.218149
       7A    -11.210658     8A     -1.460728     9A     -1.363554
      10A     -1.081175    11A     -1.002290    12A     -0.946588
      13A     -0.866528    14A     -0.740938    15A     -0.689456
      16A     -0.679652    17A     -0.659459    18A     -0.615091
      19A     -0.585449    20A     -0.579903    21A     -0.562953
      22A     -0.548583    23A     -0.536497    24A     -0.516670
      25A     -0.509374    26A     -0.483682    27A     -0.440075
      28A     -0.431152

  @DF-RHF Final Energy:  -345.03150678602515

   => Energetics <=

    Nuclear Repulsion Energy =            323.9801931646768480
    One-Electron Energy =               -1112.5566180008399897
    Two-Electron Energy =                 443.5449180501378805
    DFT Exchange-Correlation Energy =       0.0000000000000000
    Empirical Dispersion Energy =           0.0000000000000000
    PCM Polarization Energy =               0.0000000000000000
    EFP Energy =                            0.0000000000000000
    Total Energy =                       -345.0315067860252611
    Molecular point group: c1
  Basis Set: CC-PVTZ
  Basis Set:

  -Total Gradient:
     Atom            X                  Y                   Z
    ------   -----------------  -----------------  -----------------
       1       -0.000000865346     0.000013857662     0.000001982495
       2        0.000003134741    -0.000332388557    -0.000277689447
       3       -0.000002760975    -0.000019196223    -0.000034052788
       4       -0.000050440009     0.000493829859     0.000369928557
       5        0.000005405178     0.000003025998     0.000014510467
       6        0.000004496459     0.000004026894     0.000003544608
       7       -0.000002852017     0.000011045768     0.000013370435
       8        0.000271385042    -0.000214519030     0.000250186917
       9        0.000008895149    -0.000003201376    -0.000006973240
      10       -0.000003430791     0.000010026272    -0.000001705948
      11       -0.000236585686     0.000048095591    -0.000334725185
      12       -0.000000274927     0.000008053316    -0.000007475133
      13        0.000001101262    -0.000000592535     0.000006151081
      14        0.000001229914    -0.000008645640    -0.000005446004
      15       -0.000015390220    -0.000005662665     0.000001821503
      16        0.000009731448     0.000005171160     0.000011519970
      17        0.000007220776    -0.000012926499    -0.000004948292

  **** Optimization is complete! (in 10 steps) ****
    Final optimized geometry and variables:
    Molecular point group: c1

    Geometry (in Angstrom), charge = 0, multiplicity = 1:

    O           -1.571111877324     0.473972925655    -0.595753497301
    C           -1.123746681950    -0.304746455200     0.173918009452
    C           -1.966234077818    -1.144051184841     1.098092269526
    O            0.155354849005    -0.566823203449     0.360393206376
    H           -1.779858008983    -2.193166953923     0.908225038126
    H           -3.008283455453    -0.917197750577     0.941282764215
    H           -1.690912064579    -0.942639391462     2.125231037497
    C            1.291941660469    -0.021968221934    -0.333186170085
    C            2.202921580960     0.551789611021     0.737428525770
    C            1.019746892221     0.974610411391    -1.448435069328
    H            1.764657035661    -0.892666610197    -0.769275462444
    H            2.393830210704    -0.182498338339     1.508902540346
    H            3.149775392498     0.848816875091     0.302687031621
    H            1.748945226722     1.422681567173     1.196061353393
    H            1.979545198669     1.224650249226    -1.887957844675
    H            0.388029723520     0.562174082695    -2.218882036251
    H            0.560544277639     1.881021141414    -1.083520529685

  Mulliken Charges: (a.u.)
   Center  Symbol    Alpha    Beta     Spin     Total
       1     O     4.19805  4.19805  0.00000 -0.39610
       2     C     2.80871  2.80871  0.00000  0.38257
       3     C     3.13510  3.13510  0.00000 -0.27020
       4     O     4.16335  4.16335  0.00000 -0.32671
       5     H     0.44682  0.44682  0.00000  0.10636
       6     H     0.43931  0.43931  0.00000  0.12139
       7     H     0.44678  0.44678  0.00000  0.10643
       8     C     2.93958  2.93958  0.00000  0.12084
       9     C     3.14046  3.14046  0.00000 -0.28093
      10     C     3.15257  3.15257  0.00000 -0.30514
      11     H     0.44596  0.44596  0.00000  0.10808
      12     H     0.44563  0.44563  0.00000  0.10874
      13     H     0.45357  0.45357  0.00000  0.09286
      14     H     0.45209  0.45209  0.00000  0.09582
      15     H     0.45248  0.45248  0.00000  0.09504
      16     H     0.43743  0.43743  0.00000  0.12514
      17     H     0.44209  0.44209  0.00000  0.11581

   Total alpha = 28.00000, Total beta = 28.00000, Total charge = -0.00000

*** Psi4 exiting successfully. Buy a developer a beer!
