  ==> Input File <==

--------------------------------------------------------------------------
set {
	reference rhf
	basis 6-31G*
}

set_num_threads( 4 )
memory 2 gb

molecule MOL {
0 1

O	 1.214711	 1.306902	 -0.000018
C	 1.122059	 0.121804	 -0.000188
C	 -0.170150	 -0.657997	 -0.000612
O	 2.172624	 -0.688929	 0.000216
C	 -1.412532	 0.227344	 -0.000452
H	 -0.153702	 -1.313099	 -0.867402
H	 -0.153924	 -1.313811	 0.865644
C	 -2.640007	 -0.493440	 0.559138
H	 -1.613017	 0.563731	 -1.012951
H	 -1.214576	 1.122513	 0.580917
C	 -3.889051	 0.386826	 0.564149
H	 -2.833416	 -1.389957	 -0.026460
H	 -2.432795	 -0.830621	 1.572767
H	 -4.142588	 0.712334	 -0.440548
H	 -4.744434	 -0.147810	 0.965097
H	 -3.739320	 1.275335	 1.170592
C	 3.452279	 -0.082609	 0.000533
H	 3.583069	 0.529321	 -0.880332
H	 4.163299	 -0.894027	 0.001117
H	 3.582335	 0.529955	 0.881077

	symmetry c1
}
set optking {
	frozen_dihedral = ("
		9 5 3 6
	")
}

ee = optimize('scf')
oeprop('DIPOLE', 'QUADRUPOLE', 'MULLIKEN_CHARGES')
f=open( 'psi4out.xyz', 'w' )
f.write( "20  " )
f.write( str(ee) + "\n" )
f.write( MOL.save_string_xyz() )
f.close()
--------------------------------------------------------------------------

    Molecular point group: c1
  Charge       = 0
  Multiplicity = 1
  Basis Set: 6-31G*
  Basis Set:
  @DF-RHF Final Energy:  -383.93994825836273
    Total Energy =                       -383.9399482583629606
    Molecular point group: c1
  Basis Set: 6-31G*
  Basis Set:
  Basis Set: 6-31G*
  Basis Set:
  @DF-RHF Final Energy:  -383.94010561099873
    Total Energy =                       -383.9401056109988986
  Basis Set: 6-31G*
  Basis Set:
  Basis Set: 6-31G*
  Basis Set:
  @DF-RHF Final Energy:  -383.94015681396093
    Total Energy =                       -383.9401568139608116
  Basis Set: 6-31G*
  Basis Set:
  Basis Set: 6-31G*
  Basis Set:
  @DF-RHF Final Energy:  -383.94015537817688
    Total Energy =                       -383.9401553781767689
  Basis Set: 6-31G*
  Basis Set:
  Basis Set: 6-31G*
  Basis Set:
  @DF-RHF Final Energy:  -383.94014954137418
    Total Energy =                       -383.9401495413744669
  Basis Set: 6-31G*
  Basis Set:
  Basis Set: 6-31G*
  Basis Set:
  @DF-RHF Final Energy:  -383.94015859916436
    Total Energy =                       -383.9401585991647607
  Basis Set: 6-31G*
  Basis Set:
  Charge       = 0
  Multiplicity = 1
  Basis Set: 6-31G*
  Basis Set:

    Orbital Energies (a.u.)
    -----------------------

    Doubly Occupied:

       1A    -20.603676     2A    -20.545656     3A    -11.372407
       4A    -11.280900     5A    -11.235860     6A    -11.219987
       7A    -11.218911     8A    -11.210408     9A     -1.469451
      10A     -1.362862    11A     -1.087990    12A     -1.024297
      13A     -0.968717    14A     -0.885954    15A     -0.803792
      16A     -0.767258    17A     -0.697094    18A     -0.683146
      19A     -0.672087    20A     -0.644740    21A     -0.598067
      22A     -0.592600    23A     -0.578697    24A     -0.542241
      25A     -0.534066    26A     -0.522359    27A     -0.502544
      28A     -0.478190    29A     -0.471421    30A     -0.469626
      31A     -0.456203    32A     -0.436946

  @DF-RHF Final Energy:  -383.94015871555280

   => Energetics <=

    Nuclear Repulsion Energy =            381.1199815248976392
    One-Electron Energy =               -1278.2439777186691572
    Two-Electron Energy =                 513.1838374782184928
    DFT Exchange-Correlation Energy =       0.0000000000000000
    Empirical Dispersion Energy =           0.0000000000000000
    PCM Polarization Energy =               0.0000000000000000
    EFP Energy =                            0.0000000000000000
    Total Energy =                       -383.9401587155530251
    Molecular point group: c1
  Basis Set: 6-31G*
  Basis Set:

  -Total Gradient:
     Atom            X                  Y                   Z
    ------   -----------------  -----------------  -----------------
       1       -0.000008346457     0.000003784488    -0.000016475698
       2        0.000012362401    -0.000007809638     0.000015518513
       3       -0.002506063159    -0.003507770169     0.002026782789
       4       -0.000005873273    -0.000003725399     0.000003237599
       5        0.002732240135     0.003812995020     0.000201982056
       6        0.001649849949     0.002312684827    -0.001693297265
       7        0.000002897559    -0.000007135186    -0.000009538137
       8       -0.000001734641    -0.000003112386     0.000000302362
       9       -0.001877561269    -0.002601648334    -0.000522496216
      10       -0.000000457403     0.000001201004    -0.000001399648
      11        0.000003391502    -0.000000802990    -0.000002429531
      12       -0.000003786627    -0.000002007118     0.000000577850
      13        0.000002889062     0.000001818289    -0.000001080051
      14        0.000001809019     0.000001377775     0.000000303572
      15        0.000001753389    -0.000001716143    -0.000001335242
      16       -0.000000383113    -0.000000064167     0.000002582533
      17       -0.000000335569     0.000003211176    -0.000002782026
      18        0.000000307665     0.000000208028    -0.000000143555
      19       -0.000001982835    -0.000000978167    -0.000000143516
      20       -0.000000976339    -0.000000510909    -0.000000166388

  **** Optimization is complete! (in 7 steps) ****
    Final optimized geometry and variables:
    Molecular point group: c1

    Geometry (in Angstrom), charge = 0, multiplicity = 1:

    O            1.217775447880     1.287785209853    -0.116687561503
    C            1.112184510177     0.103830851719    -0.124360211964
    C           -0.185981057382    -0.669604567837    -0.097412217168
    O            2.154756891290    -0.716756163673    -0.160703885945
    C           -1.427823313255     0.222420796174    -0.092933226273
    H           -0.170292848710    -1.317282481316    -0.969020647813
    H           -0.154620077597    -1.320100859076     0.771774005661
    C           -2.668031535676    -0.516435450151     0.417298831099
    H           -1.623071925000     0.566812346123    -1.104592293436
    H           -1.245553488094     1.102052893320     0.512744731515
    C           -3.927990818642     0.346705681899     0.373883900046
    H           -2.826641626714    -1.416076584965    -0.174248460057
    H           -2.494388080883    -0.849822647164     1.438373251903
    H           -4.151294784761     0.663736546875    -0.640759777733
    H           -4.789755479009    -0.197162862811     0.747900946720
    H           -3.810796192331     1.240285478552     0.980104692425
    C            3.439808645151    -0.122734843918    -0.188605217645
    H            3.553079120657     0.496782564933    -1.066596478537
    H            4.142569778548    -0.940907153244    -0.215041298201
    H            3.599427661867     0.479607839299     0.694123999362

  Mulliken Charges: (a.u.)
   Center  Symbol    Alpha    Beta     Spin     Total
       1     O     4.28551  4.28551  0.00000 -0.57103
       2     C     2.60855  2.60855  0.00000  0.78289
       3     C     3.20788  3.20788  0.00000 -0.41577
       4     O     4.30663  4.30663  0.00000 -0.61326
       5     C     3.15311  3.15311  0.00000 -0.30621
       6     H     0.39953  0.39953  0.00000  0.20093
       7     H     0.40001  0.40001  0.00000  0.19999
       8     C     3.15514  3.15514  0.00000 -0.31028
       9     H     0.41671  0.41671  0.00000  0.16657
      10     H     0.40373  0.40373  0.00000  0.19254
      11     C     3.23957  3.23957  0.00000 -0.47914
      12     H     0.42331  0.42331  0.00000  0.15338
      13     H     0.42251  0.42251  0.00000  0.15499
      14     H     0.42069  0.42069  0.00000  0.15862
      15     H     0.41873  0.41873  0.00000  0.16254
      16     H     0.41949  0.41949  0.00000  0.16102
      17     C     3.09226  3.09226  0.00000 -0.18453
      18     H     0.40904  0.40904  0.00000  0.18192
      19     H     0.40847  0.40847  0.00000  0.18307
      20     H     0.40912  0.40912  0.00000  0.18175

   Total alpha = 32.00000, Total beta = 32.00000, Total charge =  0.00000
