  ==> Input File <==

--------------------------------------------------------------------------
set {
	reference rhf
	basis 6-31G*
}

set_num_threads( 4 )
memory 2 gb

molecule MOL {
0 1

H	 0.911984	 1.674004	 -0.007032
O	 0.055946	 1.300438	 -0.164479
C	 0.004957	 -0.004114	 0.366649
C	 1.201664	 -0.828089	 -0.095740
C	 -1.317755	 -0.601827	 -0.081511
H	 0.013527	 0.048298	 1.454924
H	 1.216388	 -0.895289	 -1.178704
H	 2.135132	 -0.372895	 0.226467
H	 1.166770	 -1.832878	 0.313827
H	 -1.355732	 -0.658248	 -1.164429
H	 -2.141614	 0.017037	 0.254547
H	 -1.447303	 -1.600817	 0.322594

	symmetry c1
}
set optking {
	frozen_dihedral = ("
		1 2 3 4
	")
}

ee = optimize('scf')
oeprop('DIPOLE', 'QUADRUPOLE', 'MULLIKEN_CHARGES')
f=open( 'psi4out.xyz', 'w' )
f.write( "12  " )
f.write( str(ee) + "\n" )
f.write( MOL.save_string_xyz() )
f.close()
--------------------------------------------------------------------------

    Molecular point group: c1
  Charge       = 0
  Multiplicity = 1
  Basis Set: 6-31G*
  Basis Set:
  @DF-RHF Final Energy:  -193.11515834931166
    Total Energy =                       -193.1151583493117698
    Molecular point group: c1
  Basis Set: 6-31G*
  Basis Set:
  Basis Set: 6-31G*
  Basis Set:
  @DF-RHF Final Energy:  -193.11516557138711
    Total Energy =                       -193.1151655713870525
  Basis Set: 6-31G*
  Basis Set:
  Basis Set: 6-31G*
  Basis Set:
  @DF-RHF Final Energy:  -193.11516746041812
    Total Energy =                       -193.1151674604183199
  Basis Set: 6-31G*
  Basis Set:
  Charge       = 0
  Multiplicity = 1
  Basis Set: 6-31G*
  Basis Set:

    Orbital Energies (a.u.)
    -----------------------

    Doubly Occupied:

       1A    -20.550869     2A    -11.275533     3A    -11.214779
       4A    -11.206617     5A     -1.360276     6A     -1.041908
       7A     -0.940946     8A     -0.803030     9A     -0.695393
      10A     -0.630073    11A     -0.604932    12A     -0.546409
      13A     -0.532918    14A     -0.529076    15A     -0.511243
      16A     -0.468222    17A     -0.429276

  @DF-RHF Final Energy:  -193.11516750510134

   => Energetics <=

    Nuclear Repulsion Energy =            135.5558389395396262
    One-Electron Energy =                -530.6590152017449782
    Two-Electron Energy =                 201.9880087571039837
    DFT Exchange-Correlation Energy =       0.0000000000000000
    Empirical Dispersion Energy =           0.0000000000000000
    PCM Polarization Energy =               0.0000000000000000
    EFP Energy =                            0.0000000000000000
    Total Energy =                       -193.1151675051013683
    Molecular point group: c1
  Basis Set: 6-31G*
  Basis Set:

  -Total Gradient:
     Atom            X                  Y                   Z
    ------   -----------------  -----------------  -----------------
       1        0.000342161031    -0.000376635893    -0.000918276466
       2       -0.000271269148     0.000554784097     0.001331084064
       3       -0.000419345439    -0.000378433669    -0.000942030233
       4        0.000347105492     0.000208475128     0.000534765794
       5        0.000003788835    -0.000004987992    -0.000006979732
       6        0.000003305040    -0.000006389666    -0.000000660445
       7       -0.000011772026    -0.000004340762    -0.000000569587
       8        0.000006013173     0.000000975212    -0.000001968357
       9        0.000002180702     0.000005170416     0.000002427132
      10       -0.000002644203    -0.000000649381     0.000000391220
      11        0.000002427009     0.000001374123    -0.000000157798
      12       -0.000001950466     0.000000658385     0.000001974409

  **** Optimization is complete! (in 4 steps) ****
    Final optimized geometry and variables:
    Molecular point group: c1

    Geometry (in Angstrom), charge = 0, multiplicity = 1:

    H            0.908053256071     1.678502207486     0.001556892296
    O            0.053514574544     1.302757097590    -0.158424222041
    C            0.004423420881    -0.004466657257     0.366215112811
    C            1.202054531342    -0.826901374474    -0.096091873663
    C           -1.319300764768    -0.601488615362    -0.079326505865
    H            0.016135010800     0.045282631791     1.454686728308
    H            1.219817040487    -0.893734507321    -1.179285502245
    H            2.135108603000    -0.373216645782     0.230353529457
    H            1.166211607161    -1.832053408881     0.311941304237
    H           -1.355839250065    -0.668910977114    -1.161641851166
    H           -2.141049858320     0.024419273545     0.249003163681
    H           -1.454389641132    -1.595210474775     0.335909088239

  Mulliken Charges: (a.u.)
   Center  Symbol    Alpha    Beta     Spin     Total
       1     H     0.28251  0.28251  0.00000  0.43499
       2     O     4.37278  4.37278  0.00000 -0.74556
       3     C     2.91482  2.91482  0.00000  0.17036
       4     C     3.25223  3.25223  0.00000 -0.50446
       5     C     3.23984  3.23984  0.00000 -0.47968
       6     H     0.43017  0.43017  0.00000  0.13967
       7     H     0.41372  0.41372  0.00000  0.17255
       8     H     0.42497  0.42497  0.00000  0.15006
       9     H     0.41890  0.41890  0.00000  0.16220
      10     H     0.41574  0.41574  0.00000  0.16852
      11     H     0.41085  0.41085  0.00000  0.17829
      12     H     0.42347  0.42347  0.00000  0.15307

   Total alpha = 17.00000, Total beta = 17.00000, Total charge =  0.00000
