  ==> Input File <==

--------------------------------------------------------------------------
set {
	reference rhf
	basis 6-31G*
}

set_num_threads( 4 )
memory 2 gb

molecule MOL {
0 1

H	 3.729471	 -0.928294	 -0.070608
O	 2.826016	 -1.159218	 0.122261
C	 2.077727	 -0.067559	 -0.035091
C	 0.624473	 -0.343591	 0.253101
O	 2.542965	 0.974826	 -0.363729
C	 -0.265902	 0.883932	 0.072916
H	 0.324016	 -1.163849	 -0.390541
H	 0.565024	 -0.726111	 1.268924
C	 -1.728698	 0.646073	 0.462102
H	 -0.209144	 1.219470	 -0.958188
H	 0.135059	 1.692851	 0.673903
C	 -2.314982	 -0.686765	 -0.011997
H	 -2.324377	 1.454510	 0.044541
H	 -1.834009	 0.721789	 1.543459
C	 -3.802180	 -0.823031	 0.313813
H	 -2.170964	 -0.779250	 -1.086589
H	 -1.777849	 -1.515777	 0.441446
H	 -4.194321	 -1.775083	 -0.029898
H	 -4.380988	 -0.035697	 -0.160440
H	 -3.976038	 -0.760882	 1.384396

	symmetry c1
}
set optking {
	frozen_dihedral = ("
		12 9 6 10
	")
}

ee = optimize('scf')
oeprop('DIPOLE', 'QUADRUPOLE', 'MULLIKEN_CHARGES')
f=open( 'psi4out.xyz', 'w' )
f.write( "20  " )
f.write( str(ee) + "\n" )
f.write( MOL.save_string_xyz() )
f.close()
--------------------------------------------------------------------------

    Molecular point group: c1
  Charge       = 0
  Multiplicity = 1
  Basis Set: 6-31G*
  Basis Set:
  @DF-RHF Final Energy:  -383.94641589356718
    Total Energy =                       -383.9464158935671776
    Molecular point group: c1
  Basis Set: 6-31G*
  Basis Set:
  Basis Set: 6-31G*
  Basis Set:
  @DF-RHF Final Energy:  -383.94659766343295
    Total Energy =                       -383.9465976634331810
  Basis Set: 6-31G*
  Basis Set:
  Basis Set: 6-31G*
  Basis Set:
  @DF-RHF Final Energy:  -383.94680174154001
    Total Energy =                       -383.9468017415400709
  Basis Set: 6-31G*
  Basis Set:
  Basis Set: 6-31G*
  Basis Set:
  @DF-RHF Final Energy:  -383.94685872314994
    Total Energy =                       -383.9468587231499441
  Basis Set: 6-31G*
  Basis Set:
  Basis Set: 6-31G*
  Basis Set:
  @DF-RHF Final Energy:  -383.94687920469863
    Total Energy =                       -383.9468792046992576
  Basis Set: 6-31G*
  Basis Set:
  Basis Set: 6-31G*
  Basis Set:
  @DF-RHF Final Energy:  -383.94688064387827
    Total Energy =                       -383.9468806438785577
  Basis Set: 6-31G*
  Basis Set:
  Charge       = 0
  Multiplicity = 1
  Basis Set: 6-31G*
  Basis Set:

    Orbital Energies (a.u.)
    -----------------------

    Doubly Occupied:

       1A    -20.612573     2A    -20.551733     3A    -11.381299
       4A    -11.240628     5A    -11.222649     6A    -11.220920
       7A    -11.220234     8A    -11.212545     9A     -1.474691
      10A     -1.365746    11A     -1.095825    12A     -1.040612
      13A     -0.961452    14A     -0.869503    15A     -0.819853
      16A     -0.771692    17A     -0.699705    18A     -0.689801
      19A     -0.665977    20A     -0.636811    21A     -0.597897
      22A     -0.594658    23A     -0.578679    24A     -0.554559
      25A     -0.538974    26A     -0.516802    27A     -0.496315
      28A     -0.479193    29A     -0.470507    30A     -0.464510
      31A     -0.455921    32A     -0.444097

  @DF-RHF Final Energy:  -383.94688101412066

   => Energetics <=

    Nuclear Repulsion Energy =            376.7010793737766789
    One-Electron Energy =               -1269.4031997525744373
    Two-Electron Energy =                 508.7552393646769815
    DFT Exchange-Correlation Energy =       0.0000000000000000
    Empirical Dispersion Energy =           0.0000000000000000
    PCM Polarization Energy =               0.0000000000000000
    EFP Energy =                            0.0000000000000000
    Total Energy =                       -383.9468810141207769
    Molecular point group: c1
  Basis Set: 6-31G*
  Basis Set:

  -Total Gradient:
     Atom            X                  Y                   Z
    ------   -----------------  -----------------  -----------------
       1        0.000002006293    -0.000000523350    -0.000001245022
       2       -0.000009374083     0.000002061693    -0.000011028866
       3       -0.000016940680     0.000031928770     0.000037139291
       4       -0.000020979572    -0.000021718500    -0.000066094645
       5        0.000002349777    -0.000006785272    -0.000013615912
       6        0.000801468488    -0.006197406559    -0.000607440269
       7        0.000011934095    -0.000001782855     0.000007007275
       8       -0.000021535288     0.000006098402     0.000008742212
       9       -0.001556056502     0.003293362250    -0.003776752124
      10       -0.000271333528     0.004426736733     0.001501890406
      11       -0.000011012979     0.000006632927     0.000024691760
      12        0.001069016819    -0.001574514729     0.002908205595
      13        0.000020207670    -0.000003283814    -0.000027260798
      14       -0.000008251622     0.000014740983     0.000012069871
      15        0.000008862028     0.000014064574     0.000015394132
      16        0.000005594633     0.000003939775    -0.000004439823
      17       -0.000004535990     0.000002423759    -0.000003176245
      18        0.000010917487     0.000001347850     0.000000772479
      19       -0.000007512773    -0.000001016111    -0.000003655108
      20       -0.000004824275     0.000003693473    -0.000001204210

  **** Optimization is complete! (in 7 steps) ****
    Final optimized geometry and variables:
    Molecular point group: c1

    Geometry (in Angstrom), charge = 0, multiplicity = 1:

    H            3.731055313503    -0.778996353398    -0.141368304244
    O            2.831596786396    -1.033356838188     0.040328119766
    C            2.057198277022     0.038576758179    -0.126162530983
    C            0.608179111454    -0.277320950204     0.143179220963
    O            2.499340773753     1.092717370153    -0.448948609938
    C           -0.308385052858     0.926297049438    -0.050705189487
    H            0.339119953455    -1.105541248040    -0.503723624278
    H            0.546635257407    -0.660942592637     1.158520556620
    C           -1.771762205910     0.696030810698     0.355866025060
    H           -0.256849790908     1.276614626870    -1.077023798287
    H            0.081594782024     1.749896848619     0.538619660973
    C           -2.399034179484    -0.618220962204    -0.118612417394
    H           -2.361276094379     1.531027680164    -0.013514297817
    H           -1.845962172562     0.733187749264     1.441799903978
    C           -3.887282795716    -0.707905158484     0.218362281502
    H           -2.267782556100    -0.721217067670    -1.194571258861
    H           -1.883465689175    -1.459653691268     0.335441564141
    H           -4.308609754468    -1.652685286307    -0.110567592997
    H           -4.446976682922     0.089612022293    -0.261642633402
    H           -4.051465831351    -0.627534580810     1.289316386136

  Mulliken Charges: (a.u.)
   Center  Symbol    Alpha    Beta     Spin     Total
       1     H     0.26782  0.26782  0.00000  0.46437
       2     O     4.35168  4.35168  0.00000 -0.70336
       3     C     2.62183  2.62183  0.00000  0.75633
       4     C     3.21436  3.21436  0.00000 -0.42872
       5     O     4.27909  4.27909  0.00000 -0.55819
       6     C     3.15537  3.15537  0.00000 -0.31074
       7     H     0.39600  0.39600  0.00000  0.20801
       8     H     0.39884  0.39884  0.00000  0.20232
       9     C     3.15396  3.15396  0.00000 -0.30791
      10     H     0.41186  0.41186  0.00000  0.17627
      11     H     0.40809  0.40809  0.00000  0.18382
      12     C     3.15706  3.15706  0.00000 -0.31412
      13     H     0.41773  0.41773  0.00000  0.16454
      14     H     0.42303  0.42303  0.00000  0.15394
      15     C     3.23913  3.23913  0.00000 -0.47826
      16     H     0.42248  0.42248  0.00000  0.15505
      17     H     0.42155  0.42155  0.00000  0.15690
      18     H     0.41837  0.41837  0.00000  0.16325
      19     H     0.42056  0.42056  0.00000  0.15888
      20     H     0.42119  0.42119  0.00000  0.15763

   Total alpha = 32.00000, Total beta = 32.00000, Total charge =  0.00000
