                              Psi4 1.0.54 Driver

  ==> Input File <==

--------------------------------------------------------------------------
set {
	reference rhf
	basis cc-pvtz
}

set_num_threads( 4 )
memory 2 gb

molecule MOL {
0 1

O	 1.568089	 0.030131	 0.910123
C	 0.860843	 0.273204	 -0.013120
C	 -0.623368	 -0.117453	 -0.005652
C	 1.428623	 0.976948	 -1.229834
C	 -0.892588	 -1.253841	 -1.002900
C	 -1.473463	 1.100646	 -0.372896
C	 -0.981836	 -0.579025	 1.418506
H	 -0.609333	 -0.970024	 -2.010649
H	 -1.950451	 -1.487353	 -1.013175
H	 -0.360848	 -2.161259	 -0.746463
H	 -1.232203	 1.461623	 -1.364827
H	 -2.524364	 0.834451	 -0.354500
H	 -1.312381	 1.914833	 0.318657
H	 -2.035706	 -0.826342	 1.468082
H	 -0.425078	 -1.458934	 1.716857
H	 -0.788494	 0.205047	 2.140903
H	 1.149337	 2.024207	 -1.198044
H	 2.504923	 0.904397	 -1.201819
H	 1.054555	 0.567853	 -2.158245

	symmetry c1
}
set optking {
	frozen_dihedral = ("
		1 2 3 5
	")
}

ee,wfn = optimize('scf', return_wfn=True)
oeprop( wfn, 'DIPOLE', 'QUADRUPOLE', 'MULLIKEN_CHARGES')
f=open( 'psi4out.xyz', 'w' )
f.write( "19  " )
f.write( str(ee) + "\n" )
f.write( MOL.save_string_xyz() )
f.close()
--------------------------------------------------------------------------

    Molecular point group: c1
  Charge       = 0
  Multiplicity = 1
  Basis Set: CC-PVTZ
  Basis Set:
  @DF-RHF Final Energy:  -309.17338930741164
    Total Energy =                       -309.1733893074112984
    Molecular point group: c1
  Basis Set: CC-PVTZ
  Basis Set:
  Basis Set: CC-PVTZ
  Basis Set:
  @DF-RHF Final Energy:  -309.17315673822287
    Total Energy =                       -309.1731567382225876
  Basis Set: CC-PVTZ
  Basis Set:
  Basis Set: CC-PVTZ
  Basis Set:
  @DF-RHF Final Energy:  -309.17173911800688
    Total Energy =                       -309.1717391180067125
  Basis Set: CC-PVTZ
  Basis Set:
  Basis Set: CC-PVTZ
  Basis Set:
  @DF-RHF Final Energy:  -309.17413030794597
    Total Energy =                       -309.1741303079458589
  Basis Set: CC-PVTZ
  Basis Set:
  Basis Set: CC-PVTZ
  Basis Set:
  @DF-RHF Final Energy:  -309.17421629529588
    Total Energy =                       -309.1742162952960484
  Basis Set: CC-PVTZ
  Basis Set:
  Basis Set: CC-PVTZ
  Basis Set:
  @DF-RHF Final Energy:  -309.17423033554758
    Total Energy =                       -309.1742303355477475
  Basis Set: CC-PVTZ
  Basis Set:
  Basis Set: CC-PVTZ
  Basis Set:
  @DF-RHF Final Energy:  -309.17424003355165
    Total Energy =                       -309.1742400335517686
  Basis Set: CC-PVTZ
  Basis Set:
  Charge       = 0
  Multiplicity = 1
  Basis Set: CC-PVTZ
  Basis Set:

    Orbital Energies (a.u.)
    -----------------------

    Doubly Occupied:

       1A    -20.537413     2A    -11.317737     3A    -11.245737
       4A    -11.225054     5A    -11.222566     6A    -11.222304
       7A    -11.206111     8A     -1.398454     9A     -1.110966
      10A     -1.002845    11A     -0.947974    12A     -0.935742
      13A     -0.835971    14A     -0.705403    15A     -0.666738
      16A     -0.633906    17A     -0.621188    18A     -0.600278
      19A     -0.593612    20A     -0.565598    21A     -0.546555
      22A     -0.544790    23A     -0.523798    24A     -0.514980
      25A     -0.501458    26A     -0.472516    27A     -0.469105
      28A     -0.394958

  @DF-RHF Final Energy:  -309.17424074942562

   => Energetics <=

    Nuclear Repulsion Energy =            326.8837307128459315
    One-Electron Energy =               -1066.9884209547292357
    Two-Electron Energy =                 430.9304494924576829
    DFT Exchange-Correlation Energy =       0.0000000000000000
    Empirical Dispersion Energy =           0.0000000000000000
    PCM Polarization Energy =               0.0000000000000000
    EFP Energy =                            0.0000000000000000
    Total Energy =                       -309.1742407494256213
    Molecular point group: c1
  Basis Set: CC-PVTZ
  Basis Set:

  -Total Gradient:
     Atom            X                  Y                   Z
    ------   -----------------  -----------------  -----------------
       1       -0.000109425095     0.000502106744     0.000286974673
       2        0.000192680223    -0.000730277397    -0.000511204430
       3        0.000039263575    -0.000250261078     0.000530986052
       4        0.000026749536     0.000100895409     0.000098998177
       5       -0.000057007959     0.000319145143    -0.000241172772
       6       -0.000018131492     0.000005073365    -0.000020208102
       7        0.000008728360    -0.000004662527    -0.000046597263
       8       -0.000001807093     0.000021649769    -0.000042035035
       9       -0.000069462071    -0.000015091227     0.000019077860
      10        0.000065435419    -0.000038217050     0.000015089680
      11        0.000005715037     0.000018681462    -0.000014973535
      12       -0.000010617530     0.000012757760    -0.000013120641
      13       -0.000028481282     0.000047075304     0.000042528008
      14       -0.000015799455     0.000010788700    -0.000000052501
      15        0.000005175181     0.000035937859    -0.000020093923
      16       -0.000000461435     0.000002313014    -0.000002114074
      17       -0.000018017280     0.000007848101    -0.000038819716
      18        0.000006312995    -0.000010651592    -0.000006468637
      19       -0.000020849636    -0.000035111759    -0.000036793814

  **** Optimization is complete! (in 8 steps) ****
    Final optimized geometry and variables:
    Molecular point group: c1

    Geometry (in Angstrom), charge = 0, multiplicity = 1:

    O            1.580438950149    -0.108375748075     0.964152099233
    C            0.881723318908     0.188033103203     0.050037813120
    C           -0.611806231561    -0.164473926239     0.037773276990
    C            1.467645672314     0.946469934824    -1.125210473611
    C           -0.847037228598    -1.256426646015    -1.020972210667
    C           -1.445408936692     1.079351840960    -0.307671417689
    C           -1.023001397000    -0.693469000777     1.412784296442
    H           -0.622458941424    -0.913651107841    -2.023152798067
    H           -1.886888398552    -1.561080274882    -1.005278647357
    H           -0.241251391000    -2.132333866945    -0.818893898906
    H           -1.227285855227     1.457587240217    -1.298429399934
    H           -2.499937016920     0.832653898826    -0.276951717567
    H           -1.273692825529     1.879035803540     0.404653932228
    H           -2.077029429797    -0.947710580252     1.408366700129
    H           -0.457863495117    -1.575293234568     1.679211938096
    H           -0.854542959106     0.047024475383     2.183929517649
    H            1.243381208089     2.001207498502    -1.010229401602
    H            2.539459421430     0.820344706025    -1.119325218611
    H            1.063000675513     0.627662715707    -2.075406273136

  Mulliken Charges: (a.u.)
   Center  Symbol    Alpha    Beta     Spin     Total
       1     O     4.17477  4.17477  0.00000 -0.34954
       2     C     2.85378  2.85378  0.00000  0.29244
       3     C     3.00897  3.00897  0.00000 -0.01793
       4     C     3.16278  3.16278  0.00000 -0.32556
       5     C     3.16006  3.16006  0.00000 -0.32012
       6     C     3.16363  3.16363  0.00000 -0.32727
       7     C     3.14965  3.14965  0.00000 -0.29931
       8     H     0.44583  0.44583  0.00000  0.10834
       9     H     0.44484  0.44484  0.00000  0.11031
      10     H     0.44201  0.44201  0.00000  0.11598
      11     H     0.44593  0.44593  0.00000  0.10814
      12     H     0.44302  0.44302  0.00000  0.11395
      13     H     0.44273  0.44273  0.00000  0.11454
      14     H     0.45207  0.45207  0.00000  0.09586
      15     H     0.44076  0.44076  0.00000  0.11849
      16     H     0.44533  0.44533  0.00000  0.10934
      17     H     0.44521  0.44521  0.00000  0.10959
      18     H     0.43180  0.43180  0.00000  0.13640
      19     H     0.44683  0.44683  0.00000  0.10634

   Total alpha = 28.00000, Total beta = 28.00000, Total charge = -0.00000

*** Psi4 exiting successfully. Buy a developer a beer!
