  ==> Input File <==

--------------------------------------------------------------------------
set {
	reference rhf
	basis 6-31G*
}

set_num_threads( 4 )
memory 2 gb

molecule MOL {
0 1

H	 -0.000158	 1.970498	 0.756846
O	 -0.000074	 1.880206	 -0.189275
C	 -0.000015	 0.544847	 -0.545111
C	 -1.278788	 -0.123820	 -0.051541
C	 1.278802	 -0.123718	 -0.051505
H	 -0.000001	 0.490777	 -1.623619
F	 -2.173760	 0.795344	 0.241220
F	 -1.800934	 -0.928429	 -0.952833
F	 -1.048502	 -0.827188	 1.045656
F	 2.323327	 0.466644	 -0.591854
F	 1.326242	 -1.401483	 -0.363667
F	 1.388946	 -0.015632	 1.262939

	symmetry c1
}
set optking {
	frozen_dihedral = ("
		7 4 3 6
	")
}

ee = optimize('scf')
oeprop('DIPOLE', 'QUADRUPOLE', 'MULLIKEN_CHARGES')
f=open( 'psi4out.xyz', 'w' )
f.write( "12  " )
f.write( str(ee) + "\n" )
f.write( MOL.save_string_xyz() )
f.close()
--------------------------------------------------------------------------

    Molecular point group: c1
  Charge       = 0
  Multiplicity = 1
  Basis Set: 6-31G*
  Basis Set:
  @DF-RHF Final Energy:  -786.27145270025449
    Total Energy =                       -786.2714527002543718
    Molecular point group: c1
  Basis Set: 6-31G*
  Basis Set:
  Basis Set: 6-31G*
  Basis Set:
  @DF-RHF Final Energy:  -786.27266347563977
    Total Energy =                       -786.2726634756401154
  Basis Set: 6-31G*
  Basis Set:
  Basis Set: 6-31G*
  Basis Set:
  @DF-RHF Final Energy:  -786.27332453636393
    Total Energy =                       -786.2733245363631340
  Basis Set: 6-31G*
  Basis Set:
  Basis Set: 6-31G*
  Basis Set:
  @DF-RHF Final Energy:  -786.27344419029077
    Total Energy =                       -786.2734441902905473
  Basis Set: 6-31G*
  Basis Set:
  Basis Set: 6-31G*
  Basis Set:
  @DF-RHF Final Energy:  -786.27346481081463
    Total Energy =                       -786.2734648108146303
  Basis Set: 6-31G*
  Basis Set:
  Basis Set: 6-31G*
  Basis Set:
  @DF-RHF Final Energy:  -786.27346672737497
    Total Energy =                       -786.2734667273748528
  Basis Set: 6-31G*
  Basis Set:
  Charge       = 0
  Multiplicity = 1
  Basis Set: 6-31G*
  Basis Set:

    Orbital Energies (a.u.)
    -----------------------

    Doubly Occupied:

       1A    -26.362123     2A    -26.361997     3A    -26.360249
       4A    -26.359408     5A    -26.358518     6A    -26.357481
       7A    -20.617684     8A    -11.526061     9A    -11.524607
      10A    -11.349235    11A     -1.764113    12A     -1.757662
      13A     -1.659989    14A     -1.657811    15A     -1.657443
      16A     -1.652983    17A     -1.436154    18A     -1.100832
      19A     -0.995197    20A     -0.937000    21A     -0.864232
      22A     -0.860035    23A     -0.850571    24A     -0.845608
      25A     -0.832071    26A     -0.813093    27A     -0.734894
      28A     -0.730038    29A     -0.726878    30A     -0.721118
      31A     -0.688050    32A     -0.685664    33A     -0.682715
      34A     -0.676619    35A     -0.667417    36A     -0.661004
      37A     -0.656281    38A     -0.652112    39A     -0.618128
      40A     -0.548670    41A     -0.505804

  @DF-RHF Final Energy:  -786.27346697431710

   => Energetics <=

    Nuclear Repulsion Energy =            670.2839842646268380
    One-Electron Energy =               -2427.4798052000614916
    Two-Electron Energy =                 970.9223539611178921
    DFT Exchange-Correlation Energy =       0.0000000000000000
    Empirical Dispersion Energy =           0.0000000000000000
    PCM Polarization Energy =               0.0000000000000000
    EFP Energy =                            0.0000000000000000
    Total Energy =                       -786.2734669743168752
    Molecular point group: c1
  Basis Set: 6-31G*
  Basis Set:

  -Total Gradient:
     Atom            X                  Y                   Z
    ------   -----------------  -----------------  -----------------
       1       -0.000007758115    -0.000009761083    -0.000006831159
       2        0.000003466420     0.000049991292     0.000018630920
       3       -0.002304892603     0.004525687945     0.000712506540
       4       -0.001009583290    -0.001037747447    -0.004464018176
       5       -0.000019255144     0.000038193441     0.000052676668
       6        0.002221641425    -0.003748139272     0.000224222523
       7        0.001128893701     0.000185605485     0.003473625723
       8        0.000020608603     0.000042387487     0.000032574039
       9        0.000007716513    -0.000003483006    -0.000006732602
      10       -0.000016139105     0.000001314534     0.000012966503
      11       -0.000019281464    -0.000042484247    -0.000001529314
      12       -0.000005416943    -0.000001565132    -0.000048091660

  **** Optimization is complete! (in 7 steps) ****
    Final optimized geometry and variables:
    Molecular point group: c1

    Geometry (in Angstrom), charge = 0, multiplicity = 1:

    H            0.029858867089     2.019897233602     0.789611022474
    O            0.029887180782     1.926097265891    -0.155593519793
    C            0.000311655388     0.597519700395    -0.518423245795
    C           -1.277251751105    -0.127578083623    -0.051379847490
    C            1.269032204384    -0.105057502922    -0.046890931884
    H            0.018385209631     0.540625774475    -1.596269387143
    F           -2.226582220677     0.739063471923     0.227088344919
    F           -1.713425236620    -0.944570788488    -0.988390930569
    F           -1.078903749761    -0.844170254485     1.043025861344
    F            2.315246491216     0.397144597284    -0.668243260588
    F            1.224852436592    -1.397813229449    -0.301215842189
    F            1.456085643126     0.062445987574     1.251046529175

  Mulliken Charges: (a.u.)
   Center  Symbol    Alpha    Beta     Spin     Total
       1     H     0.26691  0.26691  0.00000  0.46618
       2     O     4.35914  4.35914  0.00000 -0.71827
       3     C     3.05910  3.05910  0.00000 -0.11819
       4     C     2.44180  2.44180  0.00000  1.11640
       5     C     2.43897  2.43897  0.00000  1.12205
       6     H     0.37300  0.37300  0.00000  0.25399
       7     F     4.67378  4.67378  0.00000 -0.34755
       8     F     4.67547  4.67547  0.00000 -0.35093
       9     F     4.67846  4.67846  0.00000 -0.35692
      10     F     4.67547  4.67547  0.00000 -0.35094
      11     F     4.67658  4.67658  0.00000 -0.35317
      12     F     4.68132  4.68132  0.00000 -0.36264

   Total alpha = 41.00000, Total beta = 41.00000, Total charge =  0.00000
