  ==> Input File <==

--------------------------------------------------------------------------
set {
	reference rhf
	basis cc-pvtz
}

set_num_threads( 4 )
memory 2 gb

molecule MOL {
0 1

H	 2.335206	 -0.102806	 -0.133469
O	 1.579624	 -0.670735	 -0.137737
C	 0.489979	 0.078084	 0.002623
C	 -0.763662	 -0.754014	 0.000816
O	 0.541962	 1.254781	 0.105550
C	 -2.038001	 0.074705	 -0.000833
H	 -0.712945	 -1.405886	 -0.864342
H	 -0.715137	 -1.405770	 0.866182
H	 -2.087267	 0.710831	 -0.874232
H	 -2.903419	 -0.576199	 -0.001922
H	 -2.089467	 0.710909	 0.872389

	symmetry c1
}
set optking {
	frozen_dihedral = ("
		2 3 4 7
	")
}

ee = optimize('scf')
oeprop('DIPOLE', 'QUADRUPOLE', 'MULLIKEN_CHARGES')
f=open( 'psi4out.xyz', 'w' )
f.write( "11  " )
f.write( str(ee) + "\n" )
f.write( MOL.save_string_xyz() )
f.close()
--------------------------------------------------------------------------

    Molecular point group: c1
  Charge       = 0
  Multiplicity = 1
  Basis Set: CC-PVTZ
  Basis Set:
  @DF-RHF Final Energy:  -266.95325199795417
    Total Energy =                       -266.9532519979543395
    Molecular point group: c1
  Basis Set: CC-PVTZ
  Basis Set:
  Basis Set: CC-PVTZ
  Basis Set:
  @DF-RHF Final Energy:  -266.95312836652283
    Total Energy =                       -266.9531283665229466
  Basis Set: CC-PVTZ
  Basis Set:
  Basis Set: CC-PVTZ
  Basis Set:
  @DF-RHF Final Energy:  -266.95327126411917
    Total Energy =                       -266.9532712641193939
  Basis Set: CC-PVTZ
  Basis Set:
  Charge       = 0
  Multiplicity = 1
  Basis Set: CC-PVTZ
  Basis Set:

    Orbital Energies (a.u.)
    -----------------------

    Doubly Occupied:

       1A    -20.605188     2A    -20.541596     3A    -11.374405
       4A    -11.242850     5A    -11.218886     6A     -1.478715
       7A     -1.370312     8A     -1.066511     9A     -0.918881
      10A     -0.803805    11A     -0.705872    12A     -0.693609
      13A     -0.665344    14A     -0.597959    15A     -0.596579
      16A     -0.534181    17A     -0.527234    18A     -0.505840
      19A     -0.485303    20A     -0.448912

  @DF-RHF Final Energy:  -266.95327506413133

   => Energetics <=

    Nuclear Repulsion Energy =            180.1644226576793244
    One-Electron Energy =                -721.4714325739118976
    Two-Electron Energy =                 274.3537348521012404
    DFT Exchange-Correlation Energy =       0.0000000000000000
    Empirical Dispersion Energy =           0.0000000000000000
    PCM Polarization Energy =               0.0000000000000000
    EFP Energy =                            0.0000000000000000
    Total Energy =                       -266.9532750641313328
    Molecular point group: c1
  Basis Set: CC-PVTZ
  Basis Set:

  -Total Gradient:
     Atom            X                  Y                   Z
    ------   -----------------  -----------------  -----------------
       1       -0.000021990077     0.000010569434    -0.000012461270
       2       -0.000020109102    -0.000024328434    -0.000310527256
       3        0.000098313255    -0.000086583771     0.000465703560
       4       -0.000224852204     0.000349623261    -0.000383558169
       5       -0.000032353058     0.000024984779     0.000026922923
       6        0.000002157115     0.000012002309    -0.000022609240
       7        0.000170703639    -0.000277595435     0.000237627443
       8        0.000023067311    -0.000004757735     0.000007502327
       9       -0.000014178828     0.000016325750    -0.000008140691
      10        0.000002999644    -0.000003768999     0.000003542742
      11        0.000016242305    -0.000016471156    -0.000004002370

  **** Optimization is complete! (in 4 steps) ****
    Final optimized geometry and variables:
    Molecular point group: c1

    Geometry (in Angstrom), charge = 0, multiplicity = 1:

    H            2.337145912626    -0.104375804002    -0.107339626760
    O            1.580700526547    -0.671070524663    -0.127714118061
    C            0.490191172280     0.077857893376     0.005930418372
    C           -0.763715423851    -0.754210022541     0.002277723186
    O            0.542532459554     1.253671870290     0.117713103025
    C           -2.038283496713     0.074018189579     0.010078945664
    H           -0.716485788871    -1.411552506711    -0.858016074246
    H           -0.710305237127    -1.401866357518     0.871453139558
    H           -2.096502413504     0.707669123505    -0.865065597748
    H           -2.903678945583    -0.576955672821     0.018317280523
    H           -2.081123000721     0.712662108084     0.881633030182

  Mulliken Charges: (a.u.)
   Center  Symbol    Alpha    Beta     Spin     Total
       1     H     0.38177  0.38177  0.00000  0.23647
       2     O     4.16041  4.16041  0.00000 -0.32083
       3     C     2.80318  2.80318  0.00000  0.39364
       4     C     3.10104  3.10104  0.00000 -0.20207
       5     O     4.19070  4.19070  0.00000 -0.38140
       6     C     3.13899  3.13899  0.00000 -0.27799
       7     H     0.43844  0.43844  0.00000  0.12311
       8     H     0.44027  0.44027  0.00000  0.11946
       9     H     0.44893  0.44893  0.00000  0.10213
      10     H     0.44963  0.44963  0.00000  0.10073
      11     H     0.44663  0.44663  0.00000  0.10675

   Total alpha = 20.00000, Total beta = 20.00000, Total charge =  0.00000
