  ==> Input File <==

--------------------------------------------------------------------------
set {
	reference rhf
	basis 6-31G*
}

set_num_threads( 4 )
memory 2 gb

molecule MOL {
0 1

O	 -2.324811	 1.361668	 -0.277141
C	 -2.105949	 0.203097	 -0.092081
C	 -0.889235	 -0.467034	 -0.705952
C	 -3.002726	 -0.644460	 0.782455
C	 -0.242218	 -1.444957	 0.288120
H	 -0.178950	 0.311657	 -0.961764
H	 -1.160692	 -0.990378	 -1.618338
C	 1.007957	 -2.114236	 -0.287852
H	 -0.000116	 -0.897462	 1.192012
H	 -0.962242	 -2.212186	 0.568605
C	 1.653739	 -3.152346	 0.636998
H	 1.741216	 -1.349201	 -0.536406
H	 0.745168	 -2.600733	 -1.224928
C	 2.246800	 -2.574380	 1.923168
H	 2.441941	 -3.658200	 0.085146
H	 0.920597	 -3.916631	 0.886916
H	 2.976155	 -1.799660	 1.702770
H	 2.749959	 -3.347531	 2.495416
H	 1.486166	 -2.139958	 2.563093
H	 -3.496582	 -1.399307	 0.176174
H	 -3.747939	 -0.023774	 1.260148
H	 -2.421318	 -1.168775	 1.535358

	symmetry c1
}
set optking {
	frozen_dihedral = ("
		6 3 2 1
	")
}

ee = optimize('scf')
oeprop('DIPOLE', 'QUADRUPOLE', 'MULLIKEN_CHARGES')
f=open( 'psi4out.xyz', 'w' )
f.write( "22  " )
f.write( str(ee) + "\n" )
f.write( MOL.save_string_xyz() )
f.close()
--------------------------------------------------------------------------

    Molecular point group: c1
  Charge       = 0
  Multiplicity = 1
  Basis Set: 6-31G*
  Basis Set:
  @DF-RHF Final Energy:  -348.09368416970847
    Total Energy =                       -348.0936841697085242
    Molecular point group: c1
  Basis Set: 6-31G*
  Basis Set:
  Basis Set: 6-31G*
  Basis Set:
  @DF-RHF Final Energy:  -348.09505756180585
    Total Energy =                       -348.0950575618056746
  Basis Set: 6-31G*
  Basis Set:
  Basis Set: 6-31G*
  Basis Set:
  @DF-RHF Final Energy:  -348.09655743147886
    Total Energy =                       -348.0965574314791411
  Basis Set: 6-31G*
  Basis Set:
  Basis Set: 6-31G*
  Basis Set:
  @DF-RHF Final Energy:  -348.09693585356109
    Total Energy =                       -348.0969358535609786
  Basis Set: 6-31G*
  Basis Set:
  @DF-RHF Final Energy:  -348.09702079020082
    Total Energy =                       -348.0970207902004177
  @DF-RHF Final Energy:  -348.09714184098760
    Total Energy =                       -348.0971418409872058
  @DF-RHF Final Energy:  -348.09718299502276
    Total Energy =                       -348.0971829950224787
  Basis Set: 6-31G*
  Basis Set:
  @DF-RHF Final Energy:  -348.09719545358195
    Total Energy =                       -348.0971954535821169
  Basis Set: 6-31G*
  Basis Set:
  Basis Set: 6-31G*
  Basis Set:
  @DF-RHF Final Energy:  -348.09720181277697
    Total Energy =                       -348.0972018127766319
  Basis Set: 6-31G*
  Basis Set:
  Basis Set: 6-31G*
  Basis Set:
  @DF-RHF Final Energy:  -348.09720291902795
    Total Energy =                       -348.0972029190279500
  Basis Set: 6-31G*
  Basis Set:
  Charge       = 0
  Multiplicity = 1
  Basis Set: 6-31G*
  Basis Set:

    Orbital Energies (a.u.)
    -----------------------

    Doubly Occupied:

       1A    -20.546959     2A    -11.324827     3A    -11.231585
       4A    -11.230277     5A    -11.227457     6A    -11.224815
       7A    -11.223215     8A    -11.214696     9A     -1.392808
      10A     -1.099038    11A     -1.045933    12A     -0.996322
      13A     -0.940889    14A     -0.863359    15A     -0.789337
      16A     -0.732116    17A     -0.662128    18A     -0.645949
      19A     -0.632755    20A     -0.614144    21A     -0.606463
      22A     -0.584318    23A     -0.557299    24A     -0.542154
      25A     -0.534336    26A     -0.524197    27A     -0.501828
      28A     -0.483127    29A     -0.472668    30A     -0.470343
      31A     -0.464587    32A     -0.396323

  @DF-RHF Final Energy:  -348.09720390423786

   => Energetics <=

    Nuclear Repulsion Energy =            372.6319627395944281
    One-Electron Energy =               -1209.9058265887263133
    Two-Electron Energy =                 489.1766599448938564
    DFT Exchange-Correlation Energy =       0.0000000000000000
    Empirical Dispersion Energy =           0.0000000000000000
    PCM Polarization Energy =               0.0000000000000000
    EFP Energy =                            0.0000000000000000
    Total Energy =                       -348.0972039042380288
    Molecular point group: c1
  Basis Set: 6-31G*
  Basis Set:

  -Total Gradient:
     Atom            X                  Y                   Z
    ------   -----------------  -----------------  -----------------
       1       -0.000784327238    -0.000435804020    -0.001133544480
       2        0.001182082533     0.000597551865     0.001847478121
       3       -0.000977184110    -0.000205761213    -0.001993124816
       4       -0.000018615051    -0.000003241103    -0.000048018384
       5        0.000042276361     0.000030998080    -0.000001607261
       6        0.000557045270     0.000004222605     0.001292545624
       7       -0.000018237857     0.000011324146    -0.000009953579
       8       -0.000012684298     0.000000337620     0.000013037692
       9        0.000018890158    -0.000013780790     0.000016928911
      10        0.000012087302    -0.000000908301    -0.000010512793
      11        0.000002680704    -0.000014577447     0.000003492863
      12       -0.000010930347     0.000003217065     0.000003722438
      13       -0.000007881810     0.000002088592     0.000001786023
      14       -0.000002209759    -0.000000111994    -0.000000530290
      15        0.000003636793    -0.000002668497     0.000002871250
      16        0.000002636857    -0.000003545131     0.000000826913
      17        0.000000925129     0.000000298621     0.000000576070
      18       -0.000000459899     0.000000497026    -0.000001725363
      19        0.000001123715    -0.000000420577     0.000000322117
      20       -0.000007290099     0.000024431173     0.000001737674
      21       -0.000000469429     0.000011472322     0.000019124666
      22        0.000016905080    -0.000005620043    -0.000005433394

  **** Optimization is complete! (in 11 steps) ****
    Final optimized geometry and variables:
    Molecular point group: c1

    Geometry (in Angstrom), charge = 0, multiplicity = 1:

    O           -1.882414934047     2.464751259498    -0.672850925498
    C           -1.672720006590     1.326226375667    -0.382718008529
    C           -0.445830027935     0.606231802861    -0.919470905219
    C           -2.648847112592     0.550366058371     0.476774976698
    C            0.229672452932    -0.380492876920     0.040006007227
    H            0.255887428657     1.373757682880    -1.224335199907
    H           -0.759258845225     0.081155408796    -1.821228537024
    C            1.492854445955    -0.993395942036    -0.571203977401
    H            0.478252232976     0.133292437587     0.964748390882
    H           -0.459045174925    -1.179184209183     0.303717321758
    C            2.171600922765    -2.055514316034     0.300950110199
    H            2.205480213990    -0.201217100621    -0.792770462754
    H            1.233033657841    -1.444209137588    -1.526785215086
    C            2.755703778933    -1.524004119769     1.611109188186
    H            2.970731630431    -2.512361454614    -0.277134639604
    H            1.461610063331    -2.851254925735     0.517211453423
    H            3.459730343855    -0.717360957530     1.425736181155
    H            3.285902726884    -2.308647879625     2.141649501160
    H            1.986636211367    -1.145691401804     2.276471501587
    H           -2.917528944911    -0.390375351727     0.005523790650
    H           -3.536370633132     1.147205982806     0.633795365984
    H           -2.203594418668     0.314308534706     1.438416081958

  Mulliken Charges: (a.u.)
   Center  Symbol    Alpha    Beta     Spin     Total
       1     O     4.26259  4.26259  0.00000 -0.52517
       2     C     2.73143  2.73143  0.00000  0.53715
       3     C     3.20656  3.20656  0.00000 -0.41311
       4     C     3.29186  3.29186  0.00000 -0.58372
       5     C     3.16565  3.16565  0.00000 -0.33130
       6     H     0.39896  0.39896  0.00000  0.20209
       7     H     0.40727  0.40727  0.00000  0.18546
       8     C     3.15296  3.15296  0.00000 -0.30591
       9     H     0.41536  0.41536  0.00000  0.16927
      10     H     0.41960  0.41960  0.00000  0.16080
      11     C     3.15316  3.15316  0.00000 -0.30633
      12     H     0.42007  0.42007  0.00000  0.15986
      13     H     0.42056  0.42056  0.00000  0.15887
      14     C     3.24182  3.24182  0.00000 -0.48364
      15     H     0.41868  0.41868  0.00000  0.16264
      16     H     0.42289  0.42289  0.00000  0.15422
      17     H     0.42057  0.42057  0.00000  0.15886
      18     H     0.41753  0.41753  0.00000  0.16494
      19     H     0.42068  0.42068  0.00000  0.15864
      20     H     0.41033  0.41033  0.00000  0.17933
      21     H     0.39584  0.39584  0.00000  0.20832
      22     H     0.40564  0.40564  0.00000  0.18873

   Total alpha = 32.00000, Total beta = 32.00000, Total charge = -0.00000
