  ==> Input File <==

--------------------------------------------------------------------------
set {
	reference rhf
	basis cc-pvtz
}

set_num_threads( 4 )
memory 2 gb

molecule MOL {
0 1

H	 -3.163848	 -0.166919	 -0.123304
C	 -2.913847	 0.794593	 -0.565886
O	 -1.561715	 0.878198	 -0.869678
H	 -3.467257	 0.907796	 -1.486652
H	 -3.218267	 1.579996	 0.123574
C	 -0.718530	 0.758693	 0.228682
C	 0.718529	 0.758687	 -0.228709
H	 -0.870816	 1.592598	 0.913795
H	 -0.921118	 -0.162275	 0.771091
O	 1.401606	 -0.295166	 0.366636
H	 0.748705	 0.673477	 -1.312803
H	 1.176496	 1.708671	 0.046552
C	 2.714315	 -0.441627	 -0.061017
H	 2.765292	 -0.641548	 -1.128869
H	 3.305661	 0.447341	 0.150952
H	 3.143725	 -1.278506	 0.470147

	symmetry c1
}
set optking {
	frozen_dihedral = ("
		3 6 7 11
	")
}

ee = optimize('scf')
oeprop('DIPOLE', 'QUADRUPOLE', 'MULLIKEN_CHARGES')
f=open( 'psi4out.xyz', 'w' )
f.write( "16  " )
f.write( str(ee) + "\n" )
f.write( MOL.save_string_xyz() )
f.close()
--------------------------------------------------------------------------

    Molecular point group: c1
  Charge       = 0
  Multiplicity = 1
  Basis Set: CC-PVTZ
  Basis Set:
  @DF-RHF Final Energy:  -307.09384947379948
    Total Energy =                       -307.0938494737994802
    Molecular point group: c1
  Basis Set: CC-PVTZ
  Basis Set:
  Basis Set: CC-PVTZ
  Basis Set:
  @DF-RHF Final Energy:  -307.09453173708550
    Total Energy =                       -307.0945317370852194
  Basis Set: CC-PVTZ
  Basis Set:
  Basis Set: CC-PVTZ
  Basis Set:
  @DF-RHF Final Energy:  -307.09458078786713
    Total Energy =                       -307.0945807878671303
  Basis Set: CC-PVTZ
  Basis Set:
  Charge       = 0
  Multiplicity = 1
  Basis Set: CC-PVTZ
  Basis Set:

    Orbital Energies (a.u.)
    -----------------------

    Doubly Occupied:

       1A    -20.551808     2A    -20.551375     3A    -11.266406
       4A    -11.265775     5A    -11.263780     6A    -11.263598
       7A     -1.391133     8A     -1.379399     9A     -1.028821
      10A     -0.940866    11A     -0.885479    12A     -0.832153
      13A     -0.689651    14A     -0.678579    15A     -0.659791
      16A     -0.646643    17A     -0.627930    18A     -0.600589
      19A     -0.561433    20A     -0.525551    21A     -0.509103
      22A     -0.483851    23A     -0.467754    24A     -0.423665
      25A     -0.415268

  @DF-RHF Final Energy:  -307.09458607707433

   => Energetics <=

    Nuclear Repulsion Energy =            255.1895383455155866
    One-Electron Energy =                -924.7474391250025292
    Two-Electron Energy =                 362.4633147024122763
    DFT Exchange-Correlation Energy =       0.0000000000000000
    Empirical Dispersion Energy =           0.0000000000000000
    PCM Polarization Energy =               0.0000000000000000
    EFP Energy =                            0.0000000000000000
    Total Energy =                       -307.0945860770747231
    Molecular point group: c1
  Basis Set: CC-PVTZ
  Basis Set:

  -Total Gradient:
     Atom            X                  Y                   Z
    ------   -----------------  -----------------  -----------------
       1       -0.000007480881     0.000010874525     0.000004915462
       2       -0.000040407846    -0.000030024848    -0.000056984331
       3       -0.000007105285    -0.001817656842    -0.000038820856
       4       -0.000026140247     0.000012836969     0.000011859289
       5       -0.000004620908     0.000006179371     0.000000899179
       6       -0.000034947173     0.002937959254    -0.000015651670
       7        0.000071947252    -0.003405332917     0.000180377430
       8        0.000009102061     0.000015698671     0.000006639829
       9        0.000042089745    -0.000007159166     0.000013271971
      10        0.000073764931    -0.000002492146     0.000022616193
      11       -0.000120803119     0.002352034903    -0.000168079397
      12       -0.000006622109    -0.000028594780     0.000023751823
      13       -0.000021014384    -0.000060223957     0.000014533155
      14        0.000015557743     0.000006944940     0.000000875858
      15        0.000015539339     0.000004485599     0.000001764208
      16        0.000041140888     0.000004470422    -0.000001968145

  **** Optimization is complete! (in 4 steps) ****
    Final optimized geometry and variables:
    Molecular point group: c1

    Geometry (in Angstrom), charge = 0, multiplicity = 1:

    H           -3.165831125160    -0.460444047582     0.164332898784
    C           -2.869433458915     0.452427816884    -0.347442008519
    O           -1.520074649307     0.434954421973    -0.676503327155
    H           -3.432994881234     0.535898464384    -1.265281956160
    H           -3.113570868562     1.298663690006     0.291248443558
    C           -0.666046189279     0.320077698524     0.419252234116
    C            0.777534756037     0.330217309236    -0.069899718796
    H           -0.847077185186     1.131559103297     1.120376719659
    H           -0.842459507611    -0.615846880854     0.941038128392
    O            1.470510236972    -0.723629346575     0.521277994650
    H            0.775180253599     0.245208419938    -1.152347665945
    H            1.260987077082     1.273144978978     0.178222745096
    C            2.810722671453    -0.796212448861     0.163216377004
    H            2.929155423674    -0.931363606440    -0.909463248852
    H            3.351294078609     0.100738568635     0.457999985738
    H            3.243523950170    -1.645644684930     0.671275104307

  Mulliken Charges: (a.u.)
   Center  Symbol    Alpha    Beta     Spin     Total
       1     H     0.47096  0.47096  0.00000  0.05809
       2     C     3.02890  3.02890  0.00000 -0.05781
       3     O     4.17404  4.17404  0.00000 -0.34809
       4     H     0.44661  0.44661  0.00000  0.10677
       5     H     0.47189  0.47189  0.00000  0.05621
       6     C     2.96751  2.96751  0.00000  0.06498
       7     C     2.96719  2.96719  0.00000  0.06562
       8     H     0.47450  0.47450  0.00000  0.05099
       9     H     0.46571  0.46571  0.00000  0.06857
      10     O     4.17367  4.17367  0.00000 -0.34734
      11     H     0.46530  0.46530  0.00000  0.06940
      12     H     0.47557  0.47557  0.00000  0.04886
      13     C     3.02906  3.02906  0.00000 -0.05812
      14     H     0.47068  0.47068  0.00000  0.05864
      15     H     0.47183  0.47183  0.00000  0.05633
      16     H     0.44656  0.44656  0.00000  0.10689

   Total alpha = 25.00000, Total beta = 25.00000, Total charge = -0.00000
