  ==> Input File <==

--------------------------------------------------------------------------
set {
	reference rhf
	basis 6-31G*
}

set_num_threads( 1 )
memory 2 gb

molecule MOL {
0 1

H	 2.591676	 2.013956	 0.335017
O	 3.341076	 1.666752	 -0.126416
C	 3.569581	 0.339145	 0.272707
C	 5.048547	 0.006977	 0.437179
H	 3.061730	 0.225616	 1.221850
H	 3.105152	 -0.354498	 -0.427253
C	 5.853478	 0.090880	 -0.862019
H	 5.473902	 0.683013	 1.174346
H	 5.126643	 -0.998795	 0.846680
C	 7.321924	 -0.300525	 -0.674171
H	 5.794892	 1.102584	 -1.253667
H	 5.402801	 -0.561655	 -1.609969
C	 8.153980	 -0.315999	 -1.961720
H	 7.783267	 0.374602	 0.044309
H	 7.361441	 -1.291513	 -0.226867
C	 8.359438	 1.054547	 -2.612772
H	 9.129205	 -0.740918	 -1.733257
H	 7.691660	 -0.991075	 -2.680309
C	 9.281641	 1.002753	 -3.832730
H	 8.775656	 1.742273	 -1.877989
H	 7.402153	 1.473155	 -2.913896
C	 9.483291	 2.368470	 -4.488336
H	 10.247428	 0.598722	 -3.536923
H	 8.872372	 0.308676	 -4.563922
H	 9.922093	 3.076958	 -3.791399
H	 10.142642	 2.299051	 -5.348028
H	 8.538840	 2.783591	 -4.829000

	symmetry c1
}
set optking {
	frozen_dihedral = ("
		14 10 7 4,
		14 10 13 16,
		10 7 4 8,
		8 4 3 2,
		10 13 16 20,
		20 16 19 22
	")
}

ee = energy('scf')
oeprop('DIPOLE', 'QUADRUPOLE', 'MULLIKEN_CHARGES')
f=open( 'psi4out.xyz', 'w' )
f.write( "27  " )
f.write( str(ee) + "\n" )
f.write( MOL.save_string_xyz() )
f.close()
--------------------------------------------------------------------------

    Molecular point group: c1

    Geometry (in Angstrom), charge = 0, multiplicity = 1:

       Center              X                  Y                   Z               Mass
    ------------   -----------------  -----------------  -----------------  -----------------
           H         -4.060727398902     1.326595611699     1.857262189430     1.007825032070
           O         -3.311327398902     0.979391611699     1.395829189430    15.994914619560
           C         -3.082822398902    -0.348215388301     1.794952189430    12.000000000000
           C         -1.603856398902    -0.680383388301     1.959424189430    12.000000000000
           H         -3.590673398902    -0.461744388301     2.744095189430     1.007825032070
           H         -3.547251398902    -1.041858388301     1.094992189430     1.007825032070
           C         -0.798925398902    -0.596480388301     0.660226189430    12.000000000000
           H         -1.178501398902    -0.004347388301     2.696591189430     1.007825032070
           H         -1.525760398902    -1.686155388301     2.368925189430     1.007825032070
           C          0.669520601098    -0.987885388301     0.848074189430    12.000000000000
           H         -0.857511398902     0.415223611699     0.268578189430     1.007825032070
           H         -1.249602398902    -1.249015388301    -0.087723810570     1.007825032070
           C          1.501576601098    -1.003359388301    -0.439474810570    12.000000000000
           H          1.130863601098    -0.312758388301     1.566554189430     1.007825032070
           H          0.709037601098    -1.978873388301     1.295378189430     1.007825032070
           C          1.707034601098     0.367186611699    -1.090526810570    12.000000000000
           H          2.476801601098    -1.428278388301    -0.211011810570     1.007825032070
           H          1.039256601098    -1.678435388301    -1.158063810570     1.007825032070
           C          2.629237601098     0.315392611699    -2.310484810570    12.000000000000
           H          2.123252601098     1.054912611699    -0.355743810570     1.007825032070
           H          0.749749601098     0.785794611699    -1.391650810570     1.007825032070
           C          2.830887601098     1.681109611699    -2.966090810570    12.000000000000
           H          3.595024601098    -0.088638388301    -2.014677810570     1.007825032070
           H          2.219968601098    -0.378684388301    -3.041676810570     1.007825032070
           H          3.269689601098     2.389597611699    -2.269153810570     1.007825032070
           H          3.490238601098     1.611690611699    -3.825782810570     1.007825032070
           H          1.886436601098     2.096230611699    -3.306754810570     1.007825032070

  Charge       = 0
  Multiplicity = 1
  Basis Set: 6-31G*
  Basis Set:

    Orbital Energies (a.u.)
    -----------------------

    Doubly Occupied:

       1A    -20.550265     2A    -11.267919     3A    -11.213928
       4A    -11.210564     5A    -11.209639     6A    -11.209025
       7A    -11.207480     8A    -11.207381     9A    -11.204446
      10A     -1.358328    11A     -1.088109    12A     -1.055985
      13A     -1.007395    14A     -0.942610    15A     -0.879609
      16A     -0.812424    17A     -0.795263    18A     -0.771011
      19A     -0.699068    20A     -0.647510    21A     -0.640228
      22A     -0.610908    23A     -0.587594    24A     -0.582268
      25A     -0.569445    26A     -0.544617    27A     -0.539329
      28A     -0.518376    29A     -0.503996    30A     -0.497356
      31A     -0.475704    32A     -0.469784    33A     -0.459613
      34A     -0.453998    35A     -0.441883    36A     -0.430808
      37A     -0.426539

  @DF-RHF Final Energy:  -388.27911433055118

   => Energetics <=

    Nuclear Repulsion Energy =            458.3342926366007646
    One-Electron Energy =               -1435.0459227679041305
    Two-Electron Energy =                 588.4325158007533219
    DFT Exchange-Correlation Energy =       0.0000000000000000
    Empirical Dispersion Energy =           0.0000000000000000
    PCM Polarization Energy =               0.0000000000000000
    EFP Energy =                            0.0000000000000000
    Total Energy =                       -388.2791143305499872

  Mulliken Charges: (a.u.)
   Center  Symbol    Alpha    Beta     Spin     Total
       1     H     0.27894  0.27894  0.00000  0.44211
       2     O     4.37327  4.37327  0.00000 -0.74655
       3     C     2.99362  2.99362  0.00000  0.01277
       4     C     3.15859  3.15859  0.00000 -0.31718
       5     H     0.43279  0.43279  0.00000  0.13441
       6     H     0.42875  0.42875  0.00000  0.14249
       7     C     3.15726  3.15726  0.00000 -0.31453
       8     H     0.41858  0.41858  0.00000  0.16284
       9     H     0.42419  0.42419  0.00000  0.15162
      10     C     3.15326  3.15326  0.00000 -0.30652
      11     H     0.40721  0.40721  0.00000  0.18557
      12     H     0.42580  0.42580  0.00000  0.14839
      13     C     3.15274  3.15274  0.00000 -0.30548
      14     H     0.42387  0.42387  0.00000  0.15227
      15     H     0.42451  0.42451  0.00000  0.15098
      16     C     3.15303  3.15303  0.00000 -0.30605
      17     H     0.42297  0.42297  0.00000  0.15406
      18     H     0.42444  0.42444  0.00000  0.15112
      19     C     3.15101  3.15101  0.00000 -0.30202
      20     H     0.42472  0.42472  0.00000  0.15056
      21     H     0.42002  0.42002  0.00000  0.15996
      22     C     3.23907  3.23907  0.00000 -0.47813
      23     H     0.42401  0.42401  0.00000  0.15199
      24     H     0.42354  0.42354  0.00000  0.15293
      25     H     0.42209  0.42209  0.00000  0.15583
      26     H     0.42028  0.42028  0.00000  0.15944
      27     H     0.42143  0.42143  0.00000  0.15713

   Total alpha = 37.00000, Total beta = 37.00000, Total charge = -0.00000
