  ==> Input File <==

--------------------------------------------------------------------------
set {
	reference rhf
	basis 6-31G*
}

set_num_threads( 1 )
memory 2 gb

molecule MOL {
0 1

H	 -3.892951	 0.981613	 -0.358725
C	 -3.196921	 0.361773	 0.172313
C	 -2.076860	 -0.007332	 -0.404944
H	 -3.439953	 0.057760	 1.173024
O	 -1.777607	 -1.314282	 -0.626735
H	 -1.342396	 0.697636	 -0.752477
C	 -0.505240	 -1.629289	 -1.078068
C	 0.468669	 -1.796968	 0.066343
H	 -0.108772	 -0.877531	 -1.751394
H	 -0.565560	 -2.571646	 -1.602292
F	 1.657797	 -2.132541	 -0.412377
F	 0.614495	 -0.676865	 0.754772
F	 0.088709	 -2.737898	 0.905790

	symmetry c1
}
set optking {
	frozen_dihedral = ("
		11 8 7 9,
		3 5 7 9,
		6 3 5 7
	")
}

ee = energy('scf')
oeprop('DIPOLE', 'QUADRUPOLE', 'MULLIKEN_CHARGES')
f=open( 'psi4out.xyz', 'w' )
f.write( "13  " )
f.write( str(ee) + "\n" )
f.write( MOL.save_string_xyz() )
f.close()
--------------------------------------------------------------------------

    Molecular point group: c1

    Geometry (in Angstrom), charge = 0, multiplicity = 1:

       Center              X                  Y                   Z               Mass
    ------------   -----------------  -----------------  -----------------  -----------------
           H         -3.442861512053     2.290825782439    -0.322535418239     1.007825032070
           C         -2.746831512053     1.670985782439     0.208502581761    12.000000000000
           C         -1.626770512053     1.301880782439    -0.368754418239    12.000000000000
           H         -2.989863512053     1.366972782439     1.209213581761     1.007825032070
           O         -1.327517512053    -0.005069217561    -0.590545418239    15.994914619560
           H         -0.892306512053     2.006848782439    -0.716287418239     1.007825032070
           C         -0.055150512053    -0.320076217561    -1.041878418239    12.000000000000
           C          0.918758487947    -0.487755217561     0.102532581761    12.000000000000
           H          0.341317487947     0.431681782439    -1.715204418239     1.007825032070
           H         -0.115470512053    -1.262433217561    -1.566102418239     1.007825032070
           F          2.107886487947    -0.823328217561    -0.376187418239    18.998403224000
           F          1.064584487947     0.632347782439     0.790961581761    18.998403224000
           F          0.538798487947    -1.428685217561     0.941979581761    18.998403224000

  Charge       = 0
  Multiplicity = 1
  Basis Set: 6-31G*
  Basis Set:

    Orbital Energies (a.u.)
    -----------------------

    Doubly Occupied:

       1A    -26.349535     2A    -26.347602     3A    -26.344437
       4A    -20.622378     5A    -11.507446     6A    -11.321142
       7A    -11.317269     8A    -11.200480     9A     -1.745952
      10A     -1.644255    11A     -1.642246    12A     -1.448303
      13A     -1.088076    14A     -1.018163    15A     -0.929225
      16A     -0.840752    17A     -0.835279    18A     -0.824791
      19A     -0.795852    20A     -0.725224    21A     -0.714970
      22A     -0.698218    23A     -0.678073    24A     -0.663868
      25A     -0.658304    26A     -0.647244    27A     -0.642215
      28A     -0.584651    29A     -0.580462    30A     -0.529048
      31A     -0.508356    32A     -0.304004

  @DF-RHF Final Energy:  -527.45957268543339

   => Energetics <=

    Nuclear Repulsion Energy =            413.5161538731691735
    One-Electron Energy =               -1550.4358951276308289
    Two-Electron Energy =                 609.4601685690280419
    DFT Exchange-Correlation Energy =       0.0000000000000000
    Empirical Dispersion Energy =           0.0000000000000000
    PCM Polarization Energy =               0.0000000000000000
    EFP Energy =                            0.0000000000000000
    Total Energy =                       -527.4595726854337272

  Mulliken Charges: (a.u.)
   Center  Symbol    Alpha    Beta     Spin     Total
       1     H     0.40296  0.40296  0.00000  0.19408
       2     C     3.26773  3.26773  0.00000 -0.53545
       3     C     2.88814  2.88814  0.00000  0.22372
       4     H     0.40246  0.40246  0.00000  0.19508
       5     O     4.27975  4.27975  0.00000 -0.55950
       6     H     0.40645  0.40645  0.00000  0.18710
       7     C     3.06823  3.06823  0.00000 -0.13646
       8     C     2.45639  2.45639  0.00000  1.08722
       9     H     0.40384  0.40384  0.00000  0.19231
      10     H     0.38788  0.38788  0.00000  0.22424
      11     F     4.68230  4.68230  0.00000 -0.36461
      12     F     4.67993  4.67993  0.00000 -0.35985
      13     F     4.67394  4.67394  0.00000 -0.34788

   Total alpha = 32.00000, Total beta = 32.00000, Total charge =  0.00000
