  ==> Input File <==

--------------------------------------------------------------------------
set {
	reference rhf
	basis 6-31G*
}

set_num_threads( 4 )
memory 2 gb

molecule MOL {
0 1

H	 2.465338	 -2.224223	 0.000000
O	 2.784187	 -1.332015	 0.000000
C	 1.765313	 -0.449364	 0.000000
C	 1.142058	 -0.193439	 -1.217374
C	 1.335369	 0.190503	 1.146234
H	 1.494640	 -0.703392	 -2.094010
C	 0.093077	 0.700141	 -1.282327
H	 1.797173	 0.012314	 2.097293
C	 0.279315	 1.081754	 1.045040
H	 -0.382351	 0.891782	 -2.226307
C	 -0.357487	 1.355922	 -0.144440
N	 -0.171575	 1.755946	 2.260627
H	 -1.169950	 2.051707	 -0.178956
O	 0.397162	 1.500874	 3.279208
O	 -1.081017	 2.521462	 2.164891

	symmetry c1
}
set optking {
	frozen_dihedral = ("
		4 3 2 1
	")
}

ee = optimize('scf')
oeprop('DIPOLE', 'QUADRUPOLE', 'MULLIKEN_CHARGES')
f=open( 'psi4out.xyz', 'w' )
f.write( "15  " )
f.write( str(ee) + "\n" )
f.write( MOL.save_string_xyz() )
f.close()
--------------------------------------------------------------------------

    Molecular point group: c1
  Charge       = 0
  Multiplicity = 1
  Basis Set: 6-31G*
  Basis Set:
  @DF-RHF Final Energy:  -509.02219554778077
    Total Energy =                       -509.0221955477809388
    Molecular point group: c1
  Basis Set: 6-31G*
  Basis Set:
  Basis Set: 6-31G*
  Basis Set:
  @DF-RHF Final Energy:  -509.02321818247918
    Total Energy =                       -509.0232181824791269
  Basis Set: 6-31G*
  Basis Set:
  Basis Set: 6-31G*
  Basis Set:
  @DF-RHF Final Energy:  -509.00848725826000
    Total Energy =                       -509.0084872582594926
  Basis Set: 6-31G*
  Basis Set:
  Basis Set: 6-31G*
  Basis Set:
  @DF-RHF Final Energy:  -509.02298969964079
    Total Energy =                       -509.0229896996406751
  Basis Set: 6-31G*
  Basis Set:
  Basis Set: 6-31G*
  Basis Set:
  @DF-RHF Final Energy:  -509.02344829942314
    Total Energy =                       -509.0234482994230802
  Basis Set: 6-31G*
  Basis Set:
  Basis Set: 6-31G*
  Basis Set:
  @DF-RHF Final Energy:  -509.02345705297182
    Total Energy =                       -509.0234570529715938
  Basis Set: 6-31G*
  Basis Set:
  Charge       = 0
  Multiplicity = 1
  Basis Set: 6-31G*
  Basis Set:

    Orbital Energies (a.u.)
    -----------------------

    Doubly Occupied:

       1A    -20.603218     2A    -20.602975     3A    -20.601615
       4A    -15.857994     5A    -11.321258     6A    -11.308877
       7A    -11.269441     8A    -11.267325     9A    -11.266908
      10A    -11.265666    11A     -1.636718    12A     -1.420017
      13A     -1.418769    14A     -1.200589    15A     -1.094499
      16A     -1.046651    17A     -0.963975    18A     -0.866360
      19A     -0.834897    20A     -0.792589    21A     -0.735971
      22A     -0.733827    23A     -0.719551    24A     -0.710455
      25A     -0.680827    26A     -0.642358    27A     -0.624582
      28A     -0.568135    29A     -0.556926    30A     -0.528022
      31A     -0.511358    32A     -0.489607    33A     -0.484732
      34A     -0.453301    35A     -0.377391    36A     -0.357867

  @DF-RHF Final Energy:  -509.02345950413581

   => Energetics <=

    Nuclear Repulsion Energy =            502.7620099029066409
    One-Electron Energy =               -1691.9404402549907900
    Two-Electron Energy =                 680.1549708479483343
    DFT Exchange-Correlation Energy =       0.0000000000000000
    Empirical Dispersion Energy =           0.0000000000000000
    PCM Polarization Energy =               0.0000000000000000
    EFP Energy =                            0.0000000000000000
    Total Energy =                       -509.0234595041358716
    Molecular point group: c1
  Basis Set: 6-31G*
  Basis Set:

  -Total Gradient:
     Atom            X                  Y                   Z
    ------   -----------------  -----------------  -----------------
       1       -0.000029819787     0.000006709902     0.000501074798
       2        0.000207975238     0.000109107891    -0.000681809574
       3       -0.000400465091    -0.000368624183     0.000523299891
       4        0.000070414321     0.000403127947    -0.000202743399
       5        0.000171175794    -0.000182380431    -0.000122977062
       6        0.000009826049     0.000007342117     0.000019445599
       7        0.000120249796    -0.000169892954    -0.000111845339
       8       -0.000001630385     0.000004506819    -0.000000558902
       9       -0.000183699824     0.000119266886    -0.000140347322
      10       -0.000019340520     0.000023521503     0.000002696222
      11        0.000051858898     0.000038991239     0.000204942609
      12        0.000069788822     0.000017378877    -0.000033569440
      13        0.000001924866    -0.000015997306    -0.000030982073
      14       -0.000096064782     0.000044257121    -0.000030920001
      15        0.000027806605    -0.000037315422     0.000104293986

  **** Optimization is complete! (in 7 steps) ****
    Final optimized geometry and variables:
    Molecular point group: c1

    Geometry (in Angstrom), charge = 0, multiplicity = 1:

    H            1.887342657009    -2.939082750781    -0.756859615812
    O            2.183350513934    -2.038061203568    -0.749867922870
    C            1.122027477877    -1.181430050189    -0.811683112065
    C            0.505513011549    -0.912746982714    -2.024684210367
    C            0.704912402183    -0.540145529703     0.339101815883
    H            0.859677369394    -1.407693316278    -2.910390054686
    C           -0.543148313138    -0.010933859856    -2.088186028115
    H            1.187176726028    -0.733660037199     1.275046538676
    C           -0.341309151812     0.359757830453     0.245864385539
    H           -1.017721204680     0.192343375388    -3.030083558243
    C           -0.980049770502     0.639187440857    -0.946737332742
    N           -0.787651368087     1.037596271202     1.459992378610
    H           -1.786176336802     1.342962731132    -0.975459337738
    O           -0.230789817529     0.770364942334     2.480868518179
    O           -1.685285203753     1.817812807902     1.359939383421

  Mulliken Charges: (a.u.)
   Center  Symbol    Alpha    Beta     Spin     Total
       1     H     0.26774  0.26774  0.00000  0.46451
       2     O     4.38415  4.38415  0.00000 -0.76829
       3     C     2.82049  2.82049  0.00000  0.35901
       4     C     3.10493  3.10493  0.00000 -0.20986
       5     C     3.10707  3.10707  0.00000 -0.21414
       6     H     0.38486  0.38486  0.00000  0.23027
       7     C     3.10555  3.10555  0.00000 -0.21110
       8     H     0.35900  0.35900  0.00000  0.28200
       9     C     2.91799  2.91799  0.00000  0.16402
      10     H     0.38661  0.38661  0.00000  0.22677
      11     C     3.09027  3.09027  0.00000 -0.18055
      12     N     3.24081  3.24081  0.00000  0.51839
      13     H     0.36403  0.36403  0.00000  0.27194
      14     O     4.23273  4.23273  0.00000 -0.46546
      15     O     4.23376  4.23376  0.00000 -0.46751

   Total alpha = 36.00000, Total beta = 36.00000, Total charge = -0.00000
