  ==> Input File <==

--------------------------------------------------------------------------
set {
	reference rhf
	basis 6-31G*
}

set_num_threads( 1 )
memory 2 gb

molecule MOL {
0 1

H	 -3.261111	 -0.295142	 1.469456
C	 -3.306842	 -0.277400	 0.373456
C	 -2.660244	 0.921717	 -0.272021
O	 -3.838538	 -1.161155	 -0.216482
C	 -1.220012	 1.144545	 0.209990
H	 -2.705793	 0.797307	 -1.347733
H	 -3.263782	 1.790044	 -0.010477
C	 -0.252658	 0.041456	 -0.226725
H	 -0.873521	 2.100229	 -0.171974
H	 -1.211708	 1.231594	 1.295398
C	 1.180775	 0.282413	 0.250794
H	 -0.266029	 -0.034465	 -1.312038
H	 -0.597733	 -0.921000	 0.146291
C	 2.148627	 -0.814315	 -0.201312
H	 1.516199	 1.249228	 -0.115937
H	 1.192670	 0.346017	 1.338083
C	 3.580890	 -0.659131	 0.322722
H	 2.166869	 -0.852443	 -1.289387
H	 1.762857	 -1.776509	 0.128956
C	 4.579254	 -0.123698	 -0.704995
H	 3.926056	 -1.629793	 0.670032
H	 3.576717	 -0.009290	 1.195425
H	 4.592928	 -0.745439	 -1.596353
H	 4.342660	 0.889603	 -1.011946
H	 5.584763	 -0.112571	 -0.295333

	symmetry c1
}
set optking {
	frozen_dihedral = ("
		6 3 5 8,
		6 3 2 4,
		3 5 8 12,
		12 8 11 14,
		8 11 14 18
	")
}

ee = energy('scf')
oeprop('DIPOLE', 'QUADRUPOLE', 'MULLIKEN_CHARGES')
f=open( 'psi4out.xyz', 'w' )
f.write( "25  " )
f.write( str(ee) + "\n" )
f.write( MOL.save_string_xyz() )
f.close()
--------------------------------------------------------------------------

    Molecular point group: c1

    Geometry (in Angstrom), charge = 0, multiplicity = 1:

       Center              X                  Y                   Z               Mass
    ------------   -----------------  -----------------  -----------------  -----------------
           H         -3.290859700501    -0.214418556698     1.526857927911     1.007825032070
           C         -3.336590700501    -0.196676556698     0.430857927911    12.000000000000
           C         -2.689992700501     1.002440443302    -0.214619072089    12.000000000000
           O         -3.868286700501    -1.080431556698    -0.159080072089    15.994914619560
           C         -1.249760700501     1.225268443302     0.267391927911    12.000000000000
           H         -2.735541700501     0.878030443302    -1.290331072089     1.007825032070
           H         -3.293530700501     1.870767443302     0.046924927911     1.007825032070
           C         -0.282406700501     0.122179443302    -0.169323072089    12.000000000000
           H         -0.903269700501     2.180952443302    -0.114572072089     1.007825032070
           H         -1.241456700501     1.312317443302     1.352799927911     1.007825032070
           C          1.151026299499     0.363136443302     0.308195927911    12.000000000000
           H         -0.295777700501     0.046258443302    -1.254636072089     1.007825032070
           H         -0.627481700501    -0.840276556698     0.203692927911     1.007825032070
           C          2.118878299499    -0.733591556698    -0.143910072089    12.000000000000
           H          1.486450299499     1.329951443302    -0.058535072089     1.007825032070
           H          1.162921299499     0.426740443302     1.395484927911     1.007825032070
           C          3.551141299499    -0.578407556698     0.380123927911    12.000000000000
           H          2.137120299499    -0.771719556698    -1.231985072089     1.007825032070
           H          1.733108299499    -1.695785556698     0.186357927911     1.007825032070
           C          4.549505299499    -0.042974556698    -0.647593072089    12.000000000000
           H          3.896307299499    -1.549069556698     0.727433927911     1.007825032070
           H          3.546968299499     0.071433443302     1.252826927911     1.007825032070
           H          4.563179299499    -0.664715556698    -1.538951072089     1.007825032070
           H          4.312911299499     0.970326443302    -0.954544072089     1.007825032070
           H          5.555014299499    -0.031847556698    -0.237931072089     1.007825032070

  Charge       = 0
  Multiplicity = 1
  Basis Set: 6-31G*
  Basis Set:

    Orbital Energies (a.u.)
    -----------------------

    Doubly Occupied:

       1A    -20.561986     2A    -11.326131     3A    -11.235347
       4A    -11.234637     5A    -11.223708     6A    -11.220571
       7A    -11.216702     8A    -11.215745     9A    -11.210748
      10A     -1.401972    11A     -1.103763    12A     -1.069163
      13A     -1.014439    14A     -0.943113    15A     -0.871549
      16A     -0.817720    17A     -0.790080    18A     -0.786136
      19A     -0.664421    20A     -0.661553    21A     -0.632521
      22A     -0.622518    23A     -0.605507    24A     -0.592637
      25A     -0.573969    26A     -0.551942    27A     -0.532742
      28A     -0.524451    29A     -0.509799    30A     -0.498027
      31A     -0.486897    32A     -0.480765    33A     -0.466902
      34A     -0.456237    35A     -0.439842    36A     -0.409537

  @DF-RHF Final Energy:  -387.11842767114581

   => Energetics <=

    Nuclear Repulsion Energy =            436.8942030023845291
    One-Electron Energy =               -1390.1174791833650488
    Two-Electron Energy =                 566.1048485098357332
    DFT Exchange-Correlation Energy =       0.0000000000000000
    Empirical Dispersion Energy =           0.0000000000000000
    PCM Polarization Energy =               0.0000000000000000
    EFP Energy =                            0.0000000000000000
    Total Energy =                       -387.1184276711447865

  Mulliken Charges: (a.u.)
   Center  Symbol    Alpha    Beta     Spin     Total
       1     H     0.43261  0.43261  0.00000  0.13479
       2     C     2.83085  2.83085  0.00000  0.33831
       3     C     3.20807  3.20807  0.00000 -0.41614
       4     O     4.23776  4.23776  0.00000 -0.47552
       5     C     3.16660  3.16660  0.00000 -0.33320
       6     H     0.39969  0.39969  0.00000  0.20062
       7     H     0.40670  0.40670  0.00000  0.18659
       8     C     3.15566  3.15566  0.00000 -0.31131
       9     H     0.41286  0.41286  0.00000  0.17428
      10     H     0.41964  0.41964  0.00000  0.16072
      11     C     3.15360  3.15360  0.00000 -0.30720
      12     H     0.41792  0.41792  0.00000  0.16417
      13     H     0.41828  0.41828  0.00000  0.16344
      14     C     3.15490  3.15490  0.00000 -0.30981
      15     H     0.42246  0.42246  0.00000  0.15508
      16     H     0.42298  0.42298  0.00000  0.15404
      17     C     3.15508  3.15508  0.00000 -0.31016
      18     H     0.42070  0.42070  0.00000  0.15861
      19     H     0.42006  0.42006  0.00000  0.15988
      20     C     3.23971  3.23971  0.00000 -0.47941
      21     H     0.41978  0.41978  0.00000  0.16044
      22     H     0.42137  0.42137  0.00000  0.15725
      23     H     0.42106  0.42106  0.00000  0.15787
      24     H     0.42193  0.42193  0.00000  0.15614
      25     H     0.41974  0.41974  0.00000  0.16051

   Total alpha = 36.00000, Total beta = 36.00000, Total charge =  0.00000
