  ==> Input File <==

--------------------------------------------------------------------------
set {
	reference rhf
	basis 6-31G*
}

set_num_threads( 4 )
memory 2 gb

molecule MOL {
0 1

H	 -0.523538	 0.859076	 4.530027
C	 -1.164125	 0.071569	 4.113970
C	 -1.810976	 0.407160	 2.794283
O	 -1.306888	 -0.953054	 4.698366
C	 -0.796437	 0.885086	 1.746165
H	 -2.359014	 -0.462599	 2.450945
H	 -2.531175	 1.202109	 2.984086
C	 0.183211	 -0.204735	 1.303585
H	 -1.341938	 1.252380	 0.881984
H	 -0.244382	 1.737095	 2.139959
C	 1.180775	 0.282413	 0.250794
H	 -0.378239	 -1.048984	 0.908787
H	 0.728528	 -0.583214	 2.166094
C	 2.148627	 -0.814315	 -0.201312
H	 0.630545	 0.668635	 -0.603497
H	 1.749456	 1.119721	 0.653163
C	 3.580890	 -0.659131	 0.322722
H	 2.166869	 -0.852443	 -1.289387
H	 1.762857	 -1.776509	 0.128956
C	 4.324889	 0.564933	 -0.213704
H	 4.142010	 -1.551473	 0.056605
H	 3.564836	 -0.624694	 1.410140
H	 4.342616	 0.565491	 -1.300421
H	 3.866655	 1.493402	 0.110242
H	 5.353900	 0.572371	 0.132816

	symmetry c1
}
set optking {
	frozen_dihedral = ("
		8 11 14 18
	")
}

ee = optimize('scf')
oeprop('DIPOLE', 'QUADRUPOLE', 'MULLIKEN_CHARGES')
f=open( 'psi4out.xyz', 'w' )
f.write( "25  " )
f.write( str(ee) + "\n" )
f.write( MOL.save_string_xyz() )
f.close()
--------------------------------------------------------------------------

    Molecular point group: c1
  Charge       = 0
  Multiplicity = 1
  Basis Set: 6-31G*
  Basis Set:
  @DF-RHF Final Energy:  -387.11679153866470
    Total Energy =                       -387.1167915386647564
    Molecular point group: c1
  Basis Set: 6-31G*
  Basis Set:
  Basis Set: 6-31G*
  Basis Set:
  @DF-RHF Final Energy:  -387.11692834235112
    Total Energy =                       -387.1169283423507750
  Basis Set: 6-31G*
  Basis Set:
  Basis Set: 6-31G*
  Basis Set:
  @DF-RHF Final Energy:  -387.11459985870022
    Total Energy =                       -387.1145998587001031
  Basis Set: 6-31G*
  Basis Set:
  Basis Set: 6-31G*
  Basis Set:
  @DF-RHF Final Energy:  -387.11722938698756
    Total Energy =                       -387.1172293869880150
  Basis Set: 6-31G*
  Basis Set:
  @DF-RHF Final Energy:  -387.11731936979226
    Total Energy =                       -387.1173193697925399
  @DF-RHF Final Energy:  -387.11732166445614
    Total Energy =                       -387.1173216644566537
  @DF-RHF Final Energy:  -387.11732848921207
    Total Energy =                       -387.1173284892120137
  Basis Set: 6-31G*
  Basis Set:
  @DF-RHF Final Energy:  -387.11732150097544
    Total Energy =                       -387.1173215009750948
  Basis Set: 6-31G*
  Basis Set:
  Basis Set: 6-31G*
  Basis Set:
  @DF-RHF Final Energy:  -387.11732736015773
    Total Energy =                       -387.1173273601580149
  Basis Set: 6-31G*
  Basis Set:
  Basis Set: 6-31G*
  Basis Set:
  @DF-RHF Final Energy:  -387.11733039232337
    Total Energy =                       -387.1173303923233107
  Basis Set: 6-31G*
  Basis Set:
  Charge       = 0
  Multiplicity = 1
  Basis Set: 6-31G*
  Basis Set:

    Orbital Energies (a.u.)
    -----------------------

    Doubly Occupied:

       1A    -20.562097     2A    -11.326257     3A    -11.235292
       4A    -11.234697     5A    -11.224251     6A    -11.219859
       7A    -11.218190     8A    -11.216619     9A    -11.210583
      10A     -1.402034    11A     -1.103338    12A     -1.068696
      13A     -1.012543    14A     -0.941681    15A     -0.874707
      16A     -0.824316    17A     -0.788121    18A     -0.779529
      19A     -0.665151    20A     -0.659587    21A     -0.632618
      22A     -0.623280    23A     -0.607535    24A     -0.590433
      25A     -0.572084    26A     -0.555821    27A     -0.533401
      28A     -0.521848    29A     -0.513473    30A     -0.494717
      31A     -0.489139    32A     -0.483273    33A     -0.459449
      34A     -0.455178    35A     -0.443136    36A     -0.409639

  @DF-RHF Final Energy:  -387.11733095647975

   => Energetics <=

    Nuclear Repulsion Energy =            442.1273897509512949
    One-Electron Energy =               -1400.5842991233037083
    Two-Electron Energy =                 571.3395784158724382
    DFT Exchange-Correlation Energy =       0.0000000000000000
    Empirical Dispersion Energy =           0.0000000000000000
    PCM Polarization Energy =               0.0000000000000000
    EFP Energy =                            0.0000000000000000
    Total Energy =                       -387.1173309564799183
    Molecular point group: c1
  Basis Set: 6-31G*
  Basis Set:

  -Total Gradient:
     Atom            X                  Y                   Z
    ------   -----------------  -----------------  -----------------
       1       -0.000003426305     0.000001476988    -0.000004052459
       2       -0.000005782412    -0.000006595596    -0.000009374378
       3        0.000015042715     0.000011823798     0.000029008806
       4        0.000001156495    -0.000009857441     0.000010601796
       5       -0.000015172109    -0.000015311958    -0.000029495913
       6        0.000012651190     0.000000902429     0.000003175216
       7       -0.000003197686     0.000005087541    -0.000008389265
       8       -0.000846213748    -0.000349739150    -0.000958017521
       9       -0.000002602121     0.000011569584    -0.000012707752
      10        0.000002144065    -0.000021804602    -0.000000669405
      11        0.000846569396     0.000225825030     0.001370687291
      12       -0.000001717429     0.000004413995    -0.000003381663
      13       -0.000001526676    -0.000001722142     0.000007979196
      14        0.001370946425     0.001407959497    -0.000403702329
      15        0.000000033435     0.000005637271     0.000005311799
      16       -0.000007719511     0.000005134373    -0.000005125754
      17        0.000000374656    -0.000003380215     0.000000431644
      18       -0.001369943882    -0.001262911989     0.000015376367
      19        0.000005995177    -0.000003898490    -0.000009331846
      20       -0.000003033673    -0.000005878605    -0.000003038882
      21       -0.000001867178     0.000003909297    -0.000005784500
      22        0.000008340458    -0.000002436763     0.000007900905
      23        0.000007904943    -0.000000392265    -0.000001735564
      24       -0.000006409031    -0.000001453796    -0.000002756625
      25       -0.000002547189     0.000001643212     0.000007090832

  **** Optimization is complete! (in 11 steps) ****
    Final optimized geometry and variables:
    Molecular point group: c1

    Geometry (in Angstrom), charge = 0, multiplicity = 1:

    H           -1.255736216780     0.839586059887     2.910814083686
    C           -1.903127423842     0.074814949990     2.463795562447
    C           -2.534341648210     0.462486646444     1.150771928946
    O           -2.068780473228    -0.964120543999     3.016100572252
    C           -1.503656193492     0.953623139010     0.124496629600
    H           -3.094990370676    -0.386568471823     0.777188176527
    H           -3.241776980114     1.263912198015     1.359869603079
    C           -0.543081133280    -0.139999449523    -0.347845095061
    H           -2.035860654139     1.360277017699    -0.730707709106
    H           -0.937333378125     1.780879300496     0.549165755586
    C            0.457526224983     0.355189691983    -1.395459536838
    H           -1.118018050146    -0.965072200940    -0.762538010229
    H           -0.000774547730    -0.549159874852     0.503284210999
    C            1.452373663395    -0.736959944193    -1.847199352627
    H           -0.097429264423     0.729328281841    -2.252113142960
    H            0.996004374960     1.210404952377    -0.995336483044
    C            2.875834251818    -0.568787642794    -1.302388972085
    H            1.486845670678    -0.784147765865    -2.932673119690
    H            1.075034659236    -1.706070574429    -1.529981399614
    C            3.650022237609     0.588966887715    -1.934493744335
    H            3.427621331419    -1.489825789065    -1.472212176333
    H            2.834983819052    -0.434952422305    -0.222976878391
    H            3.752026825277     0.445917713951    -3.006686236877
    H            3.157204909295     1.543112138053    -1.775925212158
    H            4.648473991930     0.663838348683    -1.514748393881

  Mulliken Charges: (a.u.)
   Center  Symbol    Alpha    Beta     Spin     Total
       1     H     0.43264  0.43264  0.00000  0.13472
       2     C     2.83082  2.83082  0.00000  0.33835
       3     C     3.20809  3.20809  0.00000 -0.41618
       4     O     4.23776  4.23776  0.00000 -0.47552
       5     C     3.16716  3.16716  0.00000 -0.33432
       6     H     0.39970  0.39970  0.00000  0.20059
       7     H     0.40663  0.40663  0.00000  0.18675
       8     C     3.15685  3.15685  0.00000 -0.31371
       9     H     0.41280  0.41280  0.00000  0.17441
      10     H     0.41963  0.41963  0.00000  0.16074
      11     C     3.15566  3.15566  0.00000 -0.31133
      12     H     0.41748  0.41748  0.00000  0.16504
      13     H     0.41839  0.41839  0.00000  0.16322
      14     C     3.15817  3.15817  0.00000 -0.31634
      15     H     0.42021  0.42021  0.00000  0.15959
      16     H     0.42077  0.42077  0.00000  0.15846
      17     C     3.15394  3.15394  0.00000 -0.30787
      18     H     0.42029  0.42029  0.00000  0.15942
      19     H     0.41779  0.41779  0.00000  0.16442
      20     C     3.24031  3.24031  0.00000 -0.48063
      21     H     0.42002  0.42002  0.00000  0.15997
      22     H     0.42327  0.42327  0.00000  0.15346
      23     H     0.42156  0.42156  0.00000  0.15687
      24     H     0.42128  0.42128  0.00000  0.15744
      25     H     0.41878  0.41878  0.00000  0.16245

   Total alpha = 36.00000, Total beta = 36.00000, Total charge = -0.00000
