  ==> Input File <==

--------------------------------------------------------------------------
set {
	reference rhf
	basis 6-31G*
}

set_num_threads( 4 )
memory 2 gb

molecule MOL {
0 1

H	 1.965324	 3.464140	 3.538673
C	 1.677461	 2.577766	 4.117550
C	 0.367448	 1.950627	 3.713601
O	 2.379589	 2.180129	 4.989703
C	 0.294607	 1.657273	 2.208645
H	 0.222338	 1.052238	 4.302285
H	 -0.419826	 2.654946	 3.979663
C	 1.272405	 0.572339	 1.750248
H	 -0.719697	 1.354648	 1.965973
H	 0.477680	 2.575310	 1.652363
C	 1.180775	 0.282413	 0.250794
H	 1.078487	 -0.340757	 2.309262
H	 2.291092	 0.865405	 1.997084
C	 2.148627	 -0.814315	 -0.201312
H	 0.159248	 0.000430	 0.008512
H	 1.387091	 1.195417	 -0.306200
C	 3.580890	 -0.659131	 0.322722
H	 2.166869	 -0.852443	 -1.289387
H	 1.762857	 -1.776509	 0.128956
C	 4.324889	 0.564933	 -0.213704
H	 4.142010	 -1.551473	 0.056605
H	 3.564836	 -0.624694	 1.410140
H	 4.342616	 0.565491	 -1.300421
H	 3.866655	 1.493402	 0.110242
H	 5.353900	 0.572371	 0.132816

	symmetry c1
}
set optking {
	frozen_dihedral = ("
		8 11 14 18
	")
}

ee = optimize('scf')
oeprop('DIPOLE', 'QUADRUPOLE', 'MULLIKEN_CHARGES')
f=open( 'psi4out.xyz', 'w' )
f.write( "25  " )
f.write( str(ee) + "\n" )
f.write( MOL.save_string_xyz() )
f.close()
--------------------------------------------------------------------------

    Molecular point group: c1
  Charge       = 0
  Multiplicity = 1
  Basis Set: 6-31G*
  Basis Set:
  @DF-RHF Final Energy:  -387.11808391062800
    Total Energy =                       -387.1180839106275471
    Molecular point group: c1
  Basis Set: 6-31G*
  Basis Set:
  Basis Set: 6-31G*
  Basis Set:
  @DF-RHF Final Energy:  -387.11890790530742
    Total Energy =                       -387.1189079053075375
  Basis Set: 6-31G*
  Basis Set:
  Basis Set: 6-31G*
  Basis Set:
  @DF-RHF Final Energy:  -387.11941895672356
    Total Energy =                       -387.1194189567231660
  Basis Set: 6-31G*
  Basis Set:
  Basis Set: 6-31G*
  Basis Set:
  @DF-RHF Final Energy:  -387.11942858395355
    Total Energy =                       -387.1194285839536633
  Basis Set: 6-31G*
  Basis Set:
  @DF-RHF Final Energy:  -387.11961794666649
    Total Energy =                       -387.1196179466663807
  @DF-RHF Final Energy:  -387.11963124416525
    Total Energy =                       -387.1196312441651344
  Basis Set: 6-31G*
  Basis Set:
  @DF-RHF Final Energy:  -387.11962375269161
    Total Energy =                       -387.1196237526918367
  Basis Set: 6-31G*
  Basis Set:
  Basis Set: 6-31G*
  Basis Set:
  @DF-RHF Final Energy:  -387.11962971899408
    Total Energy =                       -387.1196297189942470
  Basis Set: 6-31G*
  Basis Set:
  Basis Set: 6-31G*
  Basis Set:
  @DF-RHF Final Energy:  -387.11963758159987
    Total Energy =                       -387.1196375816000455
  Basis Set: 6-31G*
  Basis Set:
  Charge       = 0
  Multiplicity = 1
  Basis Set: 6-31G*
  Basis Set:

    Orbital Energies (a.u.)
    -----------------------

    Doubly Occupied:

       1A    -20.562319     2A    -11.326415     3A    -11.235505
       4A    -11.234783     5A    -11.223640     6A    -11.220185
       7A    -11.217428     8A    -11.216089     9A    -11.210125
      10A     -1.402239    11A     -1.104139    12A     -1.068359
      13A     -1.009931    14A     -0.944719    15A     -0.875058
      16A     -0.830903    17A     -0.788825    18A     -0.766368
      19A     -0.665780    20A     -0.661632    21A     -0.631451
      22A     -0.627581    23A     -0.609987    24A     -0.589258
      25A     -0.563741    26A     -0.558378    27A     -0.538156
      28A     -0.521814    29A     -0.513563    30A     -0.499855
      31A     -0.487112    32A     -0.481654    33A     -0.457171
      34A     -0.451558    35A     -0.445780    36A     -0.409770

  @DF-RHF Final Energy:  -387.11963764281711

   => Energetics <=

    Nuclear Repulsion Energy =            451.3682383387546224
    One-Electron Energy =               -1419.0732048492077411
    Two-Electron Energy =                 580.5853288676357806
    DFT Exchange-Correlation Energy =       0.0000000000000000
    Empirical Dispersion Energy =           0.0000000000000000
    PCM Polarization Energy =               0.0000000000000000
    EFP Energy =                            0.0000000000000000
    Total Energy =                       -387.1196376428173380
    Molecular point group: c1
  Basis Set: 6-31G*
  Basis Set:

  -Total Gradient:
     Atom            X                  Y                   Z
    ------   -----------------  -----------------  -----------------
       1        0.000003111448     0.000000407972     0.000000334688
       2        0.000006884195    -0.000004704745    -0.000003199682
       3        0.000003584384    -0.000014482318    -0.000025528449
       4       -0.000005054012     0.000006507699     0.000005842255
       5       -0.000002648510     0.000002973080     0.000009394435
       6        0.000000037353    -0.000000101993     0.000003559775
       7       -0.000005187091    -0.000001359339     0.000007289517
       8        0.002142447603     0.001922926488    -0.000464504972
       9        0.000001903434    -0.000000232321    -0.000006370539
      10        0.000006145884    -0.000001341844     0.000000762988
      11       -0.002341485759    -0.002169554053     0.000654312691
      12       -0.000009225626     0.000010748986     0.000008201790
      13       -0.000000070322    -0.000006360553     0.000011661324
      14       -0.002788201105    -0.002171729945    -0.000196539742
      15        0.000008779964    -0.000021876123    -0.000028407218
      16       -0.000009688767     0.000012500211     0.000013258357
      17        0.000002197128     0.000008088116    -0.000015589006
      18        0.003009193332     0.002439616743     0.000019745607
      19        0.000011503477    -0.000016286497     0.000004260252
      20       -0.000017758188     0.000007923247     0.000012566029
      21       -0.000016922579    -0.000009630735    -0.000004321471
      22        0.000004169767     0.000006350854    -0.000002569925
      23        0.000003921880    -0.000005437846     0.000000525305
      24       -0.000000101266     0.000006914128    -0.000008956901
      25       -0.000007536626    -0.000001859214     0.000004272891

  **** Optimization is complete! (in 10 steps) ****
    Final optimized geometry and variables:
    Molecular point group: c1

    Geometry (in Angstrom), charge = 0, multiplicity = 1:

    H           -0.110372687616     2.619619035939     1.673902906235
    C           -0.342612855020     1.714609450714     2.249127888046
    C           -1.611955636812     1.009927275200     1.843206029406
    O            0.381290812470     1.360278673863     3.122248721232
    C           -1.658720450479     0.701838020977     0.339968405994
    H           -1.707687698665     0.108488224857     2.437396436879
    H           -2.440396053440     1.668940172853     2.099800037651
    C           -0.622094038995    -0.334290185947    -0.103575935722
    H           -2.654406861772     0.346023996654     0.092201370440
    H           -1.518825958862     1.623932030280    -0.222067007315
    C           -0.692753420695    -0.623313630651    -1.605381487546
    H           -0.779908340721    -1.254610541104     0.456210564124
    H            0.373055848832     0.011773683547     0.160536931376
    C            0.221772448779    -1.755530319325    -2.098972407330
    H           -1.716872645819    -0.873669186038    -1.873204275847
    H           -0.460354343547     0.292018498298    -2.145700674617
    C            1.688399075130    -1.687050574816    -1.650721548818
    H            0.215626933694    -1.743256556936    -3.186960537625
    H           -0.193235061200    -2.711127906276    -1.787773523681
    C            2.437642185506    -0.450464502328    -2.150154475791
    H            2.193371054292    -2.574270014236    -2.024734004322
    H            1.755571262179    -1.741541698016    -0.567997989903
    H            2.400806125222    -0.383886890508    -3.234242111265
    H            2.019885895327     0.468213183285    -1.750458365552
    H            3.482183524171    -0.486663649404    -1.857179356779

  Mulliken Charges: (a.u.)
   Center  Symbol    Alpha    Beta     Spin     Total
       1     H     0.43260  0.43260  0.00000  0.13480
       2     C     2.83104  2.83104  0.00000  0.33792
       3     C     3.20784  3.20784  0.00000 -0.41569
       4     O     4.23779  4.23779  0.00000 -0.47558
       5     C     3.16640  3.16640  0.00000 -0.33280
       6     H     0.39976  0.39976  0.00000  0.20049
       7     H     0.40673  0.40673  0.00000  0.18655
       8     C     3.15800  3.15800  0.00000 -0.31600
       9     H     0.41272  0.41272  0.00000  0.17456
      10     H     0.41975  0.41975  0.00000  0.16050
      11     C     3.15577  3.15577  0.00000 -0.31155
      12     H     0.41864  0.41864  0.00000  0.16273
      13     H     0.41569  0.41569  0.00000  0.16862
      14     C     3.15258  3.15258  0.00000 -0.30516
      15     H     0.42071  0.42071  0.00000  0.15857
      16     H     0.42216  0.42216  0.00000  0.15569
      17     C     3.15743  3.15743  0.00000 -0.31485
      18     H     0.42199  0.42199  0.00000  0.15602
      19     H     0.42109  0.42109  0.00000  0.15781
      20     C     3.24103  3.24103  0.00000 -0.48205
      21     H     0.41987  0.41987  0.00000  0.16026
      22     H     0.41872  0.41872  0.00000  0.16257
      23     H     0.42220  0.42220  0.00000  0.15561
      24     H     0.42207  0.42207  0.00000  0.15585
      25     H     0.41743  0.41743  0.00000  0.16513

   Total alpha = 36.00000, Total beta = 36.00000, Total charge = -0.00000
