  ==> Input File <==

--------------------------------------------------------------------------
set {
	reference rhf
	basis cc-pvtz
}

set_num_threads( 4 )
memory 2 gb

molecule MOL {
0 1

H	 -3.436473	 1.252944	 -1.023892
O	 -3.458596	 0.315260	 -0.960865
C	 -3.176635	 -0.080824	 0.355601
C	 -1.763371	 0.265266	 0.799691
H	 -3.321825	 -1.153438	 0.379502
H	 -3.895468	 0.357385	 1.043382
C	 -0.673390	 -0.426948	 -0.013392
H	 -1.631049	 1.344913	 0.747560
H	 -1.664587	 -0.001624	 1.849167
C	 0.737842	 -0.043159	 0.423759
H	 -0.806103	 -0.190518	 -1.063345
H	 -0.797221	 -1.503753	 0.074146
C	 1.824000	 -0.743224	 -0.390623
H	 0.850588	 1.033777	 0.343840
H	 0.868587	 -0.286314	 1.476203
C	 3.255957	 -0.453067	 0.062319
H	 1.718250	 -0.470599	 -1.438164
H	 1.658105	 -1.815850	 -0.339904
C	 3.957236	 -1.622063	 0.749923
H	 3.235015	 0.389867	 0.746278
H	 3.844697	 -0.133037	 -0.793477
H	 3.387870	 -1.967663	 1.606930
H	 4.938541	 -1.327185	 1.103941
H	 4.092666	 -2.464013	 0.081803

	symmetry c1
}
set optking {
	frozen_dihedral = ("
		20 16 13 17
	")
}

ee = optimize('scf')
oeprop('DIPOLE', 'QUADRUPOLE', 'MULLIKEN_CHARGES')
f=open( 'psi4out.xyz', 'w' )
f.write( "24  " )
f.write( str(ee) + "\n" )
f.write( MOL.save_string_xyz() )
f.close()
--------------------------------------------------------------------------

    Molecular point group: c1
  Charge       = 0
  Multiplicity = 1
  Basis Set: CC-PVTZ
  Basis Set:
  @DF-RHF Final Energy:  -349.37649203196918
    Total Energy =                       -349.3764920319686667
    Molecular point group: c1
  Basis Set: CC-PVTZ
  Basis Set:
  Basis Set: CC-PVTZ
  Basis Set:
  @DF-RHF Final Energy:  -349.37687419660637
    Total Energy =                       -349.3768741966063658
  Basis Set: CC-PVTZ
  Basis Set:
  Basis Set: CC-PVTZ
  Basis Set:
  @DF-RHF Final Energy:  -349.37692160959966
    Total Energy =                       -349.3769216095996626
  Basis Set: CC-PVTZ
  Basis Set:
  Basis Set: CC-PVTZ
  Basis Set:
  @DF-RHF Final Energy:  -349.37692176145430
    Total Energy =                       -349.3769217614543550
  Basis Set: CC-PVTZ
  Basis Set:
  Basis Set: CC-PVTZ
  Basis Set:
  @DF-RHF Final Energy:  -349.37692582662106
    Total Energy =                       -349.3769258266212319
  Basis Set: CC-PVTZ
  Basis Set:
  Charge       = 0
  Multiplicity = 1
  Basis Set: CC-PVTZ
  Basis Set:

    Orbital Energies (a.u.)
    -----------------------

    Doubly Occupied:

       1A    -20.546350     2A    -11.265602     3A    -11.215337
       4A    -11.211495     5A    -11.211208     6A    -11.208999
       7A    -11.208871     8A    -11.205767     9A     -1.364212
      10A     -1.089069    11A     -1.048844    12A     -0.988370
      13A     -0.914481    14A     -0.845237    15A     -0.799690
      16A     -0.786320    17A     -0.681764    18A     -0.655224
      19A     -0.626778    20A     -0.617405    21A     -0.598072
      22A     -0.586268    23A     -0.557511    24A     -0.537528
      25A     -0.523328    26A     -0.510329    27A     -0.494232
      28A     -0.473051    29A     -0.467296    30A     -0.461088
      31A     -0.457144    32A     -0.451642    33A     -0.420558

  @DF-RHF Final Energy:  -349.37692583543600

   => Energetics <=

    Nuclear Repulsion Energy =            382.4329687637809343
    One-Electron Energy =               -1231.5616494307175799
    Two-Electron Energy =                 499.7517548315009321
    DFT Exchange-Correlation Energy =       0.0000000000000000
    Empirical Dispersion Energy =           0.0000000000000000
    PCM Polarization Energy =               0.0000000000000000
    EFP Energy =                            0.0000000000000000
    Total Energy =                       -349.3769258354356566
    Molecular point group: c1
  Basis Set: CC-PVTZ
  Basis Set:

  -Total Gradient:
     Atom            X                  Y                   Z
    ------   -----------------  -----------------  -----------------
       1        0.000000154298     0.000000132657    -0.000000261602
       2        0.000000933286     0.000000490160     0.000000203981
       3        0.000000224604    -0.000002156698    -0.000000276917
       4        0.000003202453    -0.000000736485     0.000001081679
       5       -0.000000196500    -0.000000253453     0.000000496999
       6        0.000000722553     0.000000518898    -0.000000439358
       7       -0.000001981113     0.000002511977    -0.000003530479
       8       -0.000000839092    -0.000000628359    -0.000000439166
       9       -0.000000203380     0.000000736759     0.000001549141
      10       -0.000002723699     0.000000178713    -0.000002485612
      11        0.000000238335     0.000001283634    -0.000001326458
      12        0.000001194395     0.000000745650     0.000000027458
      13       -0.000832631362     0.002100735023     0.001087866195
      14        0.000002780435    -0.000000564105     0.000000260250
      15       -0.000001364545    -0.000003491348    -0.000002504529
      16        0.000437968424     0.001158616859    -0.002156824108
      17        0.000622327474    -0.001948447693    -0.000553308749
      18       -0.000008219003     0.000001179271    -0.000000557992
      19       -0.000003346239     0.000008376761     0.000001515089
      20       -0.000217769798    -0.001324388997     0.001631492935
      21        0.000002364502    -0.000000666670    -0.000002044865
      22       -0.000004337657    -0.000004716917     0.000000466473
      23       -0.000004811724     0.000002840991     0.000002882498
      24        0.000006313351     0.000007703371    -0.000003842863

  **** Optimization is complete! (in 6 steps) ****
    Final optimized geometry and variables:
    Molecular point group: c1

    Geometry (in Angstrom), charge = 0, multiplicity = 1:

    H           -3.461688750524     1.607324999684    -1.120304527487
    O           -3.490340387110     0.669331867011    -1.065253452759
    C           -3.206507376904     0.260098821024     0.246674114191
    C           -1.789000065876     0.591888219011     0.688197861179
    H           -3.359630574737    -0.811576573723     0.261743336804
    H           -3.919539688023     0.697629926151     0.940899947642
    C           -0.707218007016    -0.099411140970    -0.136648082018
    H           -1.649295952328     1.671043365601     0.646440191138
    H           -1.687659608351     0.313674350570     1.734476689034
    C            0.707748161209     0.268339118284     0.299082383531
    H           -0.841833101486     0.149465402941    -1.183522644170
    H           -0.838679472749    -1.176230202320    -0.060495997848
    C            1.793515972947    -0.422074925157    -0.522325031910
    H            0.838134149960     1.345565836524     0.226974054152
    H            0.840259992575     0.017408368608     1.349520428763
    C            3.226716970398    -0.096295776263    -0.057458275418
    H            1.673568591996    -0.162771878883    -1.569446725235
    H            1.638143956647    -1.496507757872    -0.474266218348
    C            3.911247939613    -1.262353131498     0.652331266103
    H            3.201825940010     0.748513456125     0.623919739007
    H            3.834065806823     0.207943736939    -0.902403124774
    H            3.337094731309    -1.586053219406     1.514652022673
    H            4.900903928121    -0.986587534012     0.999146092212
    H            4.017290960861    -2.114711329212    -0.010241901768

  Mulliken Charges: (a.u.)
   Center  Symbol    Alpha    Beta     Spin     Total
       1     H     0.39531  0.39531  0.00000  0.20937
       2     O     4.20369  4.20369  0.00000 -0.40738
       3     C     2.97766  2.97766  0.00000  0.04469
       4     C     3.10212  3.10212  0.00000 -0.20425
       5     H     0.45888  0.45888  0.00000  0.08223
       6     H     0.46026  0.46026  0.00000  0.07947
       7     C     3.08866  3.08866  0.00000 -0.17731
       8     H     0.45909  0.45909  0.00000  0.08182
       9     H     0.45335  0.45335  0.00000  0.09330
      10     C     3.08915  3.08915  0.00000 -0.17831
      11     H     0.44644  0.44644  0.00000  0.10711
      12     H     0.45492  0.45492  0.00000  0.09015
      13     C     3.09529  3.09529  0.00000 -0.19058
      14     H     0.45438  0.45438  0.00000  0.09125
      15     H     0.45550  0.45550  0.00000  0.08899
      16     C     3.09055  3.09055  0.00000 -0.18109
      17     H     0.44790  0.44790  0.00000  0.10420
      18     H     0.45533  0.45533  0.00000  0.08934
      19     C     3.14723  3.14723  0.00000 -0.29445
      20     H     0.45544  0.45544  0.00000  0.08913
      21     H     0.44853  0.44853  0.00000  0.10293
      22     H     0.45568  0.45568  0.00000  0.08865
      23     H     0.44985  0.44985  0.00000  0.10030
      24     H     0.45478  0.45478  0.00000  0.09043

   Total alpha = 33.00000, Total beta = 33.00000, Total charge = -0.00000
