                              Psi4 1.0.54 Driver

  ==> Input File <==

--------------------------------------------------------------------------
set {
	reference rhf
	basis cc-pvtz
}

set_num_threads( 4 )
memory 2 gb

molecule MOL {
0 1

H	 -4.120677	 0.786598	 -0.590964
O	 -3.449308	 0.129784	 -0.583618
C	 -2.230764	 0.689441	 -0.170878
C	 -1.175688	 -0.398187	 -0.171891
H	 -1.934667	 1.493538	 -0.841346
H	 -2.324978	 1.113075	 0.826864
C	 0.196029	 0.106276	 0.266738
H	 -1.116020	 -0.818173	 -1.171027
H	 -1.506022	 -1.198163	 0.482964
C	 1.330220	 -0.826136	 -0.155230
H	 0.359542	 1.097229	 -0.145561
H	 0.212134	 0.218135	 1.348778
C	 2.719700	 -0.407669	 0.328325
H	 1.339388	 -0.911200	 -1.239363
H	 1.119001	 -1.821953	 0.224128
C	 3.241564	 0.893452	 -0.276737
H	 3.418299	 -1.204729	 0.093035
H	 2.711776	 -0.323368	 1.411960
H	 3.254204	 0.841071	 -1.360784
H	 2.634460	 1.745075	 0.005842
H	 4.254264	 1.092401	 0.054971

	symmetry c1
}
set optking {
	frozen_dihedral = ("
		8 4 7 10
	")
}

ee,wfn = optimize('scf', return_wfn=True)
oeprop( wfn, 'DIPOLE', 'QUADRUPOLE', 'MULLIKEN_CHARGES')
f=open( 'psi4out.xyz', 'w' )
f.write( "21  " )
f.write( str(ee) + "\n" )
f.write( MOL.save_string_xyz() )
f.close()
--------------------------------------------------------------------------

    Molecular point group: c1
  Charge       = 0
  Multiplicity = 1
  Basis Set: CC-PVTZ
  Basis Set:
  @DF-RHF Final Energy:  -310.33197234284330
    Total Energy =                       -310.3319723428431871
    Molecular point group: c1
  Basis Set: CC-PVTZ
  Basis Set:
  Basis Set: CC-PVTZ
  Basis Set:
  @DF-RHF Final Energy:  -310.33205540934301
    Total Energy =                       -310.3320554093432975
  Basis Set: CC-PVTZ
  Basis Set:
  Basis Set: CC-PVTZ
  Basis Set:
  @DF-RHF Final Energy:  -310.33210935437569
    Total Energy =                       -310.3321093543758025
  Basis Set: CC-PVTZ
  Basis Set:
  Basis Set: CC-PVTZ
  Basis Set:
  @DF-RHF Final Energy:  -310.33211741210943
    Total Energy =                       -310.3321174121092554
  Basis Set: CC-PVTZ
  Basis Set:
  Basis Set: CC-PVTZ
  Basis Set:
  @DF-RHF Final Energy:  -310.33211926813198
    Total Energy =                       -310.3321192681320326
  Basis Set: CC-PVTZ
  Basis Set:
  Charge       = 0
  Multiplicity = 1
  Basis Set: CC-PVTZ
  Basis Set:

    Orbital Energies (a.u.)
    -----------------------

    Doubly Occupied:

       1A    -20.545532     2A    -11.265290     3A    -11.213179
       4A    -11.213051     5A    -11.211448     6A    -11.208828
       7A    -11.206205     8A     -1.363432     9A     -1.087240
      10A     -1.034237    11A     -0.955587    12A     -0.876601
      13A     -0.808390    14A     -0.779238    15A     -0.696783
      16A     -0.659739    17A     -0.625940    18A     -0.607310
      19A     -0.585618    20A     -0.576343    21A     -0.532749
      22A     -0.523775    23A     -0.512721    24A     -0.484002
      25A     -0.482833    26A     -0.461135    27A     -0.455309
      28A     -0.444420    29A     -0.437030

  @DF-RHF Final Energy:  -310.33211937277042

   => Energetics <=

    Nuclear Repulsion Energy =            313.0719764214956058
    One-Electron Energy =               -1041.1002650878272107
    Two-Electron Energy =                 417.6961692935613542
    DFT Exchange-Correlation Energy =       0.0000000000000000
    Empirical Dispersion Energy =           0.0000000000000000
    PCM Polarization Energy =               0.0000000000000000
    EFP Energy =                            0.0000000000000000
    Total Energy =                       -310.3321193727702507
    Molecular point group: c1
  Basis Set: CC-PVTZ
  Basis Set:

  -Total Gradient:
     Atom            X                  Y                   Z
    ------   -----------------  -----------------  -----------------
       1       -0.000015422444    -0.000009683316    -0.000001074249
       2       -0.000058299243    -0.000007786001    -0.000022157124
       3        0.000011817944    -0.000026438972    -0.000003015024
       4       -0.000636981489     0.003563640152    -0.002181307705
       5        0.000024831392     0.000023534790    -0.000016377775
       6        0.000019618987     0.000004606773     0.000023395060
       7       -0.000121118592    -0.002008519063     0.002792791259
       8        0.000583965668    -0.002544958147     0.001195090845
       9       -0.000011093568     0.000002343322     0.000014577826
      10        0.000185605007     0.000987909613    -0.001818336973
      11        0.000003769462     0.000014769618    -0.000003866314
      12        0.000004795039    -0.000007018679     0.000017300478
      13        0.000002324666     0.000002620800    -0.000001185131
      14       -0.000007471259    -0.000000704536    -0.000009282556
      15       -0.000007358324     0.000002710802     0.000003102711
      16        0.000007626352    -0.000003216197     0.000003930870
      17        0.000003897369     0.000002164748    -0.000000146448
      18        0.000008861085    -0.000001148215     0.000009979588
      19        0.000001041686     0.000002214005    -0.000005404202
      20       -0.000004328168    -0.000001016244    -0.000000920900
      21        0.000003918425     0.000003974748     0.000002905764

  **** Optimization is complete! (in 6 steps) ****
    Final optimized geometry and variables:
    Molecular point group: c1

    Geometry (in Angstrom), charge = 0, multiplicity = 1:

    H           -4.164333861740     0.710736113211    -0.431112364320
    O           -3.489050580714     0.058114977886    -0.416651461118
    C           -2.258260701663     0.643565154736    -0.084902813747
    C           -1.194661563593    -0.434246829539    -0.080773372686
    H           -1.997596389553     1.416600236712    -0.804684616818
    H           -2.311256604287     1.113778269630     0.895236214992
    C            0.180192143392     0.082554994421     0.342797064619
    H           -1.139378453038    -0.888414353937    -1.064891660681
    H           -1.512728975953    -1.224970576366     0.591619764665
    C            1.312545161906    -0.866084881257    -0.046730033472
    H            0.353342933254     1.052408150020    -0.114940714343
    H            0.192978452332     0.246788321187     1.417144860965
    C            2.694665559803    -0.465554665049     0.471281719176
    H            1.345874216879    -0.950870107993    -1.130097935089
    H            1.079747938932    -1.859704422179     0.327025347053
    C            3.239477499946     0.838595902319    -0.106340035355
    H            3.391646841678    -1.265537704144     0.241203789034
    H            2.664199651711    -0.394102006544     1.555370337355
    H            3.272402446685     0.800612139833    -1.190597164805
    H            2.634317604069     1.691613895677     0.176224849992
    H            4.247310566190     1.024035761359     0.247220777745

  Mulliken Charges: (a.u.)
   Center  Symbol    Alpha    Beta     Spin     Total
       1     H     0.39755  0.39755  0.00000  0.20491
       2     O     4.19440  4.19440  0.00000 -0.38879
       3     C     2.96266  2.96266  0.00000  0.07468
       4     C     3.08412  3.08412  0.00000 -0.16824
       5     H     0.47471  0.47471  0.00000  0.05058
       6     H     0.47504  0.47504  0.00000  0.04993
       7     C     3.10394  3.10394  0.00000 -0.20788
       8     H     0.45172  0.45172  0.00000  0.09656
       9     H     0.44984  0.44984  0.00000  0.10033
      10     C     3.09424  3.09424  0.00000 -0.18848
      11     H     0.45603  0.45603  0.00000  0.08794
      12     H     0.45283  0.45283  0.00000  0.09434
      13     C     3.08980  3.08980  0.00000 -0.17959
      14     H     0.45325  0.45325  0.00000  0.09351
      15     H     0.44871  0.44871  0.00000  0.10257
      16     C     3.15285  3.15285  0.00000 -0.30571
      17     H     0.44853  0.44853  0.00000  0.10293
      18     H     0.45472  0.45472  0.00000  0.09056
      19     H     0.45475  0.45475  0.00000  0.09049
      20     H     0.45404  0.45404  0.00000  0.09193
      21     H     0.44628  0.44628  0.00000  0.10744

   Total alpha = 29.00000, Total beta = 29.00000, Total charge = -0.00000

*** Psi4 exiting successfully. Buy a developer a beer!
