  ==> Input File <==

--------------------------------------------------------------------------
set {
	reference rhf
	basis 6-31G*
}

set_num_threads( 4 )
memory 2 gb

molecule MOL {
0 1

H	 -1.653724	 2.219891	 -0.617842
C	 -1.212038	 2.241812	 0.370985
C	 0.117106	 1.496383	 0.392630
H	 -1.920837	 1.792049	 1.055528
H	 -1.068218	 3.278025	 0.658833
C	 -0.000005	 0.033229	 -0.000001
H	 0.569453	 1.542648	 1.381386
H	 0.834286	 1.966777	 -0.277280
C	 1.290528	 -0.768786	 0.000276
O	 -1.046938	 -0.458506	 -0.292083
C	 2.545731	 0.095645	 -0.000061
H	 1.275672	 -1.427874	 -0.865626
H	 1.275566	 -1.427086	 0.866768
H	 2.577157	 0.734767	 -0.874036
H	 3.433520	 -0.528139	 0.000137
H	 2.577172	 0.735117	 0.873581

	symmetry c1
}
set optking {
	frozen_dihedral = ("
		3 6 9 12
	")
}

ee = optimize('scf')
oeprop('DIPOLE', 'QUADRUPOLE', 'MULLIKEN_CHARGES')
f=open( 'psi4out.xyz', 'w' )
f.write( "16  " )
f.write( str(ee) + "\n" )
f.write( MOL.save_string_xyz() )
f.close()
--------------------------------------------------------------------------

    Molecular point group: c1
  Charge       = 0
  Multiplicity = 1
  Basis Set: 6-31G*
  Basis Set:
  @DF-RHF Final Energy:  -270.02651944891227
    Total Energy =                       -270.0265194489121541
    Molecular point group: c1
  Basis Set: 6-31G*
  Basis Set:
  Basis Set: 6-31G*
  Basis Set:
  @DF-RHF Final Energy:  -270.02798360270469
    Total Energy =                       -270.0279836027046940
  Basis Set: 6-31G*
  Basis Set:
  Basis Set: 6-31G*
  Basis Set:
  @DF-RHF Final Energy:  -270.02901083675124
    Total Energy =                       -270.0290108367511266
  Basis Set: 6-31G*
  Basis Set:
  Basis Set: 6-31G*
  Basis Set:
  @DF-RHF Final Energy:  -270.02876784181558
    Total Energy =                       -270.0287678418153519
  Basis Set: 6-31G*
  Basis Set:
  Basis Set: 6-31G*
  Basis Set:
  @DF-RHF Final Energy:  -270.02903961220511
    Total Energy =                       -270.0290396122051106
  Basis Set: 6-31G*
  Basis Set:
  Charge       = 0
  Multiplicity = 1
  Basis Set: 6-31G*
  Basis Set:

    Orbital Energies (a.u.)
    -----------------------

    Doubly Occupied:

       1A    -20.546429     2A    -11.324036     3A    -11.233743
       4A    -11.233572     5A    -11.227704     6A    -11.212633
       7A     -1.393466     8A     -1.071861     9A     -1.035036
      10A     -0.906755    11A     -0.866990    12A     -0.721813
      13A     -0.655421    14A     -0.646591    15A     -0.629518
      16A     -0.609424    17A     -0.552403    18A     -0.541518
      19A     -0.536060    20A     -0.510407    21A     -0.506158
      22A     -0.502322    23A     -0.471621    24A     -0.396128

  @DF-RHF Final Energy:  -270.02909792086155

   => Energetics <=

    Nuclear Repulsion Energy =            240.4216913815576788
    One-Electron Energy =                -842.2383610196789050
    Two-Electron Energy =                 331.7875717172596524
    DFT Exchange-Correlation Energy =       0.0000000000000000
    Empirical Dispersion Energy =           0.0000000000000000
    PCM Polarization Energy =               0.0000000000000000
    EFP Energy =                            0.0000000000000000
    Total Energy =                       -270.0290979208615454
    Molecular point group: c1
  Basis Set: 6-31G*
  Basis Set:

  -Total Gradient:
     Atom            X                  Y                   Z
    ------   -----------------  -----------------  -----------------
       1        0.000020291392    -0.000006615085     0.000008255795
       2        0.000011931248     0.000024242470    -0.000006205974
       3        0.000139801791     0.000271043472    -0.000902763487
       4        0.000002570341    -0.000003007792     0.000003806867
       5        0.000000330584    -0.000001564703     0.000004744769
       6       -0.000094033810    -0.000191376252     0.001299987888
       7       -0.000013718209     0.000034229903    -0.000011709168
       8       -0.000010592148     0.000023278387     0.000006802881
       9       -0.000634639689    -0.000937133865     0.000318884815
      10       -0.000010322827    -0.000064101874    -0.000042673899
      11        0.000010045235     0.000028128873    -0.000011836587
      12        0.000564906039     0.000835439597    -0.000670833935
      13       -0.000009697126    -0.000014924185     0.000005308242
      14        0.000027922391    -0.000003185168     0.000006322237
      15       -0.000023789925     0.000008251110     0.000001694546
      16        0.000018994719    -0.000002704887    -0.000009784990

  **** Optimization is complete! (in 6 steps) ****
    Final optimized geometry and variables:
    Molecular point group: c1

    Geometry (in Angstrom), charge = 0, multiplicity = 1:

    H           -2.040073132358     1.717393653004    -0.669324884207
    C           -1.576090066676     1.770268434473     0.307762835574
    C           -0.209118714937     1.096702541525     0.300378760697
    H           -2.243195866546     1.288964733370     1.012390380126
    H           -1.479342298072     2.814710123798     0.585691639461
    C           -0.266422810569    -0.370804562368    -0.083022426137
    H            0.263679997583     1.174477091248     1.277536355275
    H            0.464097232963     1.601967752272    -0.388184903861
    C            1.016187772060    -1.197205818405    -0.084224564109
    O           -1.298195207621    -0.898589834485    -0.369513120475
    C            2.348375168684    -0.446462426760    -0.069155526276
    H            0.960228618551    -1.838943101816    -0.956522599692
    H            0.952177703572    -1.854069704912     0.780273260029
    H            2.459559999307     0.193954660121    -0.938261029516
    H            3.168598663854    -1.155946623336    -0.082089141786
    H            2.464720462357     0.168214535044     0.816698757572

  Mulliken Charges: (a.u.)
   Center  Symbol    Alpha    Beta     Spin     Total
       1     H     0.41003  0.41003  0.00000  0.17993
       2     C     3.23388  3.23388  0.00000 -0.46777
       3     C     3.21106  3.21106  0.00000 -0.42213
       4     H     0.41080  0.41080  0.00000  0.17840
       5     H     0.42059  0.42059  0.00000  0.15882
       6     C     2.73703  2.73703  0.00000  0.52593
       7     H     0.40892  0.40892  0.00000  0.18216
       8     H     0.40691  0.40691  0.00000  0.18619
       9     C     3.19981  3.19981  0.00000 -0.39962
      10     O     4.26582  4.26582  0.00000 -0.53165
      11     C     3.24995  3.24995  0.00000 -0.49990
      12     H     0.39854  0.39854  0.00000  0.20292
      13     H     0.40177  0.40177  0.00000  0.19646
      14     H     0.41645  0.41645  0.00000  0.16710
      15     H     0.41140  0.41140  0.00000  0.17720
      16     H     0.41703  0.41703  0.00000  0.16594

   Total alpha = 24.00000, Total beta = 24.00000, Total charge = -0.00000
