                              Psi4 1.0.54 Driver

  ==> Input File <==

--------------------------------------------------------------------------
set {
	reference rhf
	basis cc-pvtz
}

set_num_threads( 4 )
memory 2 gb

molecule MOL {
0 1

O	 -0.628129	 -0.408869	 -2.205768
C	 -0.178030	 -0.758654	 -1.168026
C	 1.040053	 -1.631315	 -0.998915
O	 -0.695554	 -0.422406	 0.000602
C	 1.674400	 -2.046000	 -2.316721
H	 0.737741	 -2.495046	 -0.417084
H	 1.741623	 -1.086155	 -0.377195
H	 0.976319	 -2.603656	 -2.926575
H	 2.541241	 -2.668867	 -2.132404
H	 1.989330	 -1.181957	 -2.886347
C	 -1.852370	 0.402254	 0.000718
C	 -3.063338	 -0.501097	 -0.000437
H	 -1.831732	 1.039442	 -0.872158
H	 -1.832493	 1.038301	 0.874430
H	 -3.071944	 -1.133732	 -0.879113
H	 -3.966302	 0.097976	 -0.000483
H	 -3.072764	 -1.134834	 0.877435

	symmetry c1
}
set optking {
	frozen_dihedral = ("
		2 4 11 13
	")
}

ee,wfn = optimize('scf', return_wfn=True)
oeprop( wfn, 'DIPOLE', 'QUADRUPOLE', 'MULLIKEN_CHARGES')
f=open( 'psi4out.xyz', 'w' )
f.write( "17  " )
f.write( str(ee) + "\n" )
f.write( MOL.save_string_xyz() )
f.close()
--------------------------------------------------------------------------

    Molecular point group: c1
  Charge       = 0
  Multiplicity = 1
  Basis Set: CC-PVTZ
  Basis Set:
  @DF-RHF Final Energy:  -345.03813646065555
    Total Energy =                       -345.0381364606554371
    Molecular point group: c1
  Basis Set: CC-PVTZ
  Basis Set:
  Basis Set: CC-PVTZ
  Basis Set:
  @DF-RHF Final Energy:  -345.03908955749108
    Total Energy =                       -345.0390895574911383
  Basis Set: CC-PVTZ
  Basis Set:
  Basis Set: CC-PVTZ
  Basis Set:
  @DF-RHF Final Energy:  -345.03602361447616
    Total Energy =                       -345.0360236144760506
  Basis Set: CC-PVTZ
  Basis Set:
  Basis Set: CC-PVTZ
  Basis Set:
  @DF-RHF Final Energy:  -345.03943308671057
    Total Energy =                       -345.0394330867105737
  Basis Set: CC-PVTZ
  Basis Set:
  Basis Set: CC-PVTZ
  Basis Set:
  @DF-RHF Final Energy:  -345.03946977090845
    Total Energy =                       -345.0394697709084539
  Basis Set: CC-PVTZ
  Basis Set:
  Charge       = 0
  Multiplicity = 1
  Basis Set: CC-PVTZ
  Basis Set:

    Orbital Energies (a.u.)
    -----------------------

    Doubly Occupied:

       1A    -20.592625     2A    -20.532766     3A    -11.364663
       4A    -11.281896     5A    -11.235624     6A    -11.217321
       7A    -11.213698     8A     -1.469037     9A     -1.365032
      10A     -1.069852    11A     -1.029528    12A     -0.916000
      13A     -0.853352    14A     -0.763602    15A     -0.704599
      16A     -0.683274    17A     -0.662580    18A     -0.622930
      19A     -0.608592    20A     -0.570245    21A     -0.550282
      22A     -0.533504    23A     -0.521527    24A     -0.516066
      25A     -0.497496    26A     -0.492434    27A     -0.452333
      28A     -0.439707

  @DF-RHF Final Energy:  -345.03947039339857

   => Energetics <=

    Nuclear Repulsion Energy =            318.1740369341005135
    One-Electron Energy =               -1100.9058893049068502
    Two-Electron Energy =                 437.6923819774075923
    DFT Exchange-Correlation Energy =       0.0000000000000000
    Empirical Dispersion Energy =           0.0000000000000000
    PCM Polarization Energy =               0.0000000000000000
    EFP Energy =                            0.0000000000000000
    Total Energy =                       -345.0394703933987444
    Molecular point group: c1
  Basis Set: CC-PVTZ
  Basis Set:

  -Total Gradient:
     Atom            X                  Y                   Z
    ------   -----------------  -----------------  -----------------
       1       -0.000007108421    -0.000010868284    -0.000050842405
       2        0.000490592934     0.000674629789     0.000083319381
       3       -0.000011525125     0.000009800461    -0.000005618124
       4       -0.000810409836    -0.001234272347    -0.000149161815
       5        0.000011457897     0.000003294956    -0.000018435161
       6        0.000001881646     0.000000939487     0.000001488008
       7        0.000002987933    -0.000005390497    -0.000000298353
       8        0.000000196998     0.000002992624     0.000005662637
       9        0.000005954070    -0.000002265714    -0.000000679356
      10        0.000000355303    -0.000007606554     0.000001851385
      11        0.000781593069     0.001258287333     0.000615957927
      12        0.000049072750    -0.000007214583    -0.000011656249
      13       -0.000519106260    -0.000659687395    -0.000476183725
      14       -0.000005871815    -0.000012307970     0.000006032585
      15       -0.000004411769    -0.000003331549    -0.000004936259
      16        0.000022692397     0.000000019536    -0.000000290492
      17       -0.000008351771    -0.000007019293     0.000003790014

  **** Optimization is complete! (in 6 steps) ****
    Final optimized geometry and variables:
    Molecular point group: c1

    Geometry (in Angstrom), charge = 0, multiplicity = 1:

    O           -0.086591134405     0.314623243161    -1.271635945892
    C            0.370007404238    -0.006486960139    -0.227291148726
    C            1.610217244619    -0.845446060583    -0.046656146503
    O           -0.151351009101     0.329825481247     0.940299820510
    C            2.251886966922    -1.268167447421    -1.358367505269
    H            1.330775558715    -1.705544349569     0.551673223198
    H            2.299181249930    -0.271771025418     0.563310315892
    H            1.567021389811    -1.854752406739    -1.955967087678
    H            3.134738995622    -1.865235392855    -1.164794829159
    H            2.543497043208    -0.407174324566    -1.944707526117
    C           -1.315019347118     1.147476591607     0.968600801708
    C           -2.572183994652     0.304037394411     1.013533216253
    H           -1.318293898899     1.794044650848     0.106081173792
    H           -1.217389129980     1.744852969383     1.862826165331
    H           -2.670490195215    -0.286394712391     0.111917859474
    H           -3.441415343334     0.946776430858     1.095324087558
    H           -2.558074912275    -0.361926057947     1.867643879616

  Mulliken Charges: (a.u.)
   Center  Symbol    Alpha    Beta     Spin     Total
       1     O     4.19927  4.19927  0.00000 -0.39855
       2     C     2.80165  2.80165  0.00000  0.39670
       3     C     3.09438  3.09438  0.00000 -0.18877
       4     O     4.15729  4.15729  0.00000 -0.31458
       5     C     3.13994  3.13994  0.00000 -0.27989
       6     H     0.44193  0.44193  0.00000  0.11614
       7     H     0.44176  0.44176  0.00000  0.11649
       8     H     0.44867  0.44867  0.00000  0.10266
       9     H     0.45058  0.45058  0.00000  0.09884
      10     H     0.44846  0.44846  0.00000  0.10308
      11     C     2.98815  2.98815  0.00000  0.02369
      12     C     3.14616  3.14616  0.00000 -0.29231
      13     H     0.44763  0.44763  0.00000  0.10475
      14     H     0.44541  0.44541  0.00000  0.10917
      15     H     0.44495  0.44495  0.00000  0.11011
      16     H     0.45172  0.45172  0.00000  0.09657
      17     H     0.45205  0.45205  0.00000  0.09589

   Total alpha = 28.00000, Total beta = 28.00000, Total charge = -0.00000

*** Psi4 exiting successfully. Buy a developer a beer!
