                              Psi4 1.0.54 Driver

  ==> Input File <==

--------------------------------------------------------------------------
set {
	reference rhf
	basis cc-pvtz
}

set_num_threads( 4 )
memory 2 gb

molecule MOL {
0 1

H	 -1.759479	 -1.551877	 -0.011510
O	 -2.321472	 -0.864941	 -0.318626
C	 -2.021813	 0.336996	 0.342658
C	 -0.669613	 0.837286	 -0.127252
H	 -2.780861	 1.084746	 0.127159
H	 -2.006390	 0.184138	 1.420053
C	 0.490865	 -0.082543	 0.241244
H	 -0.708709	 0.967192	 -1.204587
H	 -0.507562	 1.822272	 0.303070
C	 1.839800	 0.429565	 -0.255472
H	 0.305636	 -1.070211	 -0.165276
H	 0.527397	 -0.195943	 1.322876
C	 3.001144	 -0.485193	 0.119072
H	 1.804373	 0.541073	 -1.335756
H	 2.020437	 1.423114	 0.146921
H	 2.866892	 -1.477297	 -0.298806
H	 3.943543	 -0.095749	 -0.249061
H	 3.085064	 -0.590459	 1.195790

	symmetry c1
}
set optking {
	frozen_dihedral = ("
		1 2 3 4
	")
}

ee,wfn = optimize('scf', return_wfn=True)
oeprop( wfn, 'DIPOLE', 'QUADRUPOLE', 'MULLIKEN_CHARGES')
f=open( 'psi4out.xyz', 'w' )
f.write( "18  " )
f.write( str(ee) + "\n" )
f.write( MOL.save_string_xyz() )
f.close()
--------------------------------------------------------------------------

    Molecular point group: c1
  Charge       = 0
  Multiplicity = 1
  Basis Set: CC-PVTZ
  Basis Set:
  @DF-RHF Final Energy:  -271.28423745623638
    Total Energy =                       -271.2842374562363830
    Molecular point group: c1
  Basis Set: CC-PVTZ
  Basis Set:
  Basis Set: CC-PVTZ
  Basis Set:
  @DF-RHF Final Energy:  -271.28564488999348
    Total Energy =                       -271.2856448899938187
  Basis Set: CC-PVTZ
  Basis Set:
  Basis Set: CC-PVTZ
  Basis Set:
  @DF-RHF Final Energy:  -271.28618442889194
    Total Energy =                       -271.2861844288918292
  Basis Set: CC-PVTZ
  Basis Set:
  Basis Set: CC-PVTZ
  Basis Set:
  @DF-RHF Final Energy:  -271.28621540491281
    Total Energy =                       -271.2862154049128094
  Basis Set: CC-PVTZ
  Basis Set:
  Basis Set: CC-PVTZ
  Basis Set:
  @DF-RHF Final Energy:  -271.28621859816406
    Total Energy =                       -271.2862185981638277
  Basis Set: CC-PVTZ
  Basis Set:
  Charge       = 0
  Multiplicity = 1
  Basis Set: CC-PVTZ
  Basis Set:

    Orbital Energies (a.u.)
    -----------------------

    Doubly Occupied:

       1A    -20.545455     2A    -11.265310     3A    -11.218480
       4A    -11.217439     5A    -11.214113     6A    -11.210008
       7A     -1.363505     8A     -1.084013     9A     -1.013676
      10A     -0.922659    11A     -0.830455    12A     -0.793170
      13A     -0.696196    14A     -0.649829    15A     -0.619757
      16A     -0.604453    17A     -0.577303    18A     -0.565216
      19A     -0.526080    20A     -0.513657    21A     -0.493369
      22A     -0.476149    23A     -0.469852    24A     -0.455865
      25A     -0.429082

  @DF-RHF Final Energy:  -271.28621953167504

   => Energetics <=

    Nuclear Repulsion Energy =            249.0364822173582411
    One-Electron Energy =                -861.1352320575423391
    Two-Electron Energy =                 340.8125303085090536
    DFT Exchange-Correlation Energy =       0.0000000000000000
    Empirical Dispersion Energy =           0.0000000000000000
    PCM Polarization Energy =               0.0000000000000000
    EFP Energy =                            0.0000000000000000
    Total Energy =                       -271.2862195316751013
    Molecular point group: c1
  Basis Set: CC-PVTZ
  Basis Set:

  -Total Gradient:
     Atom            X                  Y                   Z
    ------   -----------------  -----------------  -----------------
       1        0.000085052028     0.000050262833    -0.000148413237
       2       -0.000053039069    -0.000083691367     0.000193666993
       3       -0.000063097508     0.000107208104    -0.000080695509
       4        0.000011707292    -0.000092390312     0.000015275863
       5        0.000030187687     0.000003869881     0.000006689890
       6       -0.000002970909     0.000003089855    -0.000011308597
       7       -0.000010785043    -0.000032084501     0.000006304563
       8        0.000018766475     0.000017866198    -0.000012500944
       9       -0.000009632193    -0.000011795796    -0.000000653992
      10        0.000006612749     0.000036071758     0.000012453319
      11       -0.000012369151     0.000006008165     0.000007455657
      12        0.000011372095     0.000000137708     0.000017093114
      13       -0.000019718252    -0.000014542101    -0.000002556815
      14       -0.000001432895     0.000003070458     0.000005327160
      15        0.000012069680    -0.000000406939    -0.000000406754
      16        0.000002431411     0.000000323994     0.000002909141
      17       -0.000005990765     0.000001769219    -0.000006970727
      18        0.000000836370     0.000005232843    -0.000003669127

  **** Optimization is complete! (in 6 steps) ****
    Final optimized geometry and variables:
    Molecular point group: c1

    Geometry (in Angstrom), charge = 0, multiplicity = 1:

    H           -1.885182465594    -1.597090206842     0.077920210430
    O           -2.425836801566    -0.895818553598    -0.234503029343
    C           -2.024221965757     0.319766053925     0.339350114876
    C           -0.677579903216     0.814736282431    -0.166739616169
    H           -2.793191032481     1.035511677021     0.082262304127
    H           -2.008020763528     0.239804247376     1.424637469132
    C            0.501784120840    -0.077178163365     0.212711106372
    H           -0.728771001821     0.914135038579    -1.246773000628
    H           -0.516194220788     1.812234779302     0.234907441997
    C            1.845202775650     0.465862004224    -0.267053041524
    H            0.360463837720    -1.070628353840    -0.205499525410
    H            0.530715509944    -0.197040817203     1.294070792544
    C            3.021721452326    -0.430134059815     0.104594074008
    H            1.814392091845     0.591883807842    -1.345543427429
    H            2.000428131574     1.456571584414     0.151003069962
    H            2.912985562406    -1.418926540918    -0.328563270338
    H            3.958036511723    -0.015583449652    -0.250595410863
    H            3.099729695314    -0.548365545195     1.180319351352

  Mulliken Charges: (a.u.)
   Center  Symbol    Alpha    Beta     Spin     Total
       1     H     0.39226  0.39226  0.00000  0.21548
       2     O     4.20561  4.20561  0.00000 -0.41122
       3     C     2.97914  2.97914  0.00000  0.04173
       4     C     3.08891  3.08891  0.00000 -0.17783
       5     H     0.44871  0.44871  0.00000  0.10259
       6     H     0.47019  0.47019  0.00000  0.05963
       7     C     3.09787  3.09787  0.00000 -0.19575
       8     H     0.45077  0.45077  0.00000  0.09845
       9     H     0.45611  0.45611  0.00000  0.08778
      10     C     3.08370  3.08370  0.00000 -0.16739
      11     H     0.45845  0.45845  0.00000  0.08309
      12     H     0.45392  0.45392  0.00000  0.09216
      13     C     3.14979  3.14979  0.00000 -0.29957
      14     H     0.45258  0.45258  0.00000  0.09485
      15     H     0.45394  0.45394  0.00000  0.09211
      16     H     0.45512  0.45512  0.00000  0.08975
      17     H     0.44762  0.44762  0.00000  0.10475
      18     H     0.45530  0.45530  0.00000  0.08940

   Total alpha = 25.00000, Total beta = 25.00000, Total charge =  0.00000

*** Psi4 exiting successfully. Buy a developer a beer!
