  ==> Input File <==

--------------------------------------------------------------------------
set {
	reference rhf
	basis 6-31G*
}

set_num_threads( 4 )
memory 2 gb

molecule MOL {
0 1

O	 -1.487788	 1.240889	 -0.102860
C	 -1.083277	 0.139568	 0.115197
C	 0.323299	 -0.082943	 0.642902
C	 -1.933017	 -1.084621	 -0.143902
C	 1.355627	 -0.005344	 -0.493127
H	 0.396251	 -1.044647	 1.143147
H	 0.528637	 0.693580	 1.371677
C	 0.802520	 0.692080	 -1.734465
H	 2.242292	 0.521967	 -0.148104
H	 1.669827	 -1.013100	 -0.743819
H	 1.547181	 0.728857	 -2.523021
H	 0.503263	 1.712455	 -1.512872
H	 -0.065951	 0.168153	 -2.122157
H	 -1.393885	 -1.806447	 -0.750509
H	 -2.850323	 -0.799888	 -0.640100
H	 -2.169004	 -1.571158	 0.798858

	symmetry c1
}
set optking {
	frozen_dihedral = ("
		9 5 3 2
	")
}

ee = optimize('scf')
oeprop('DIPOLE', 'QUADRUPOLE', 'MULLIKEN_CHARGES')
f=open( 'psi4out.xyz', 'w' )
f.write( "16  " )
f.write( str(ee) + "\n" )
f.write( MOL.save_string_xyz() )
f.close()
--------------------------------------------------------------------------

    Molecular point group: c1
  Charge       = 0
  Multiplicity = 1
  Basis Set: 6-31G*
  Basis Set:
  @DF-RHF Final Energy:  -270.01945301570845
    Total Energy =                       -270.0194530157084500
    Molecular point group: c1
  Basis Set: 6-31G*
  Basis Set:
  Basis Set: 6-31G*
  Basis Set:
  @DF-RHF Final Energy:  -270.02195552804653
    Total Energy =                       -270.0219555280465897
  Basis Set: 6-31G*
  Basis Set:
  Basis Set: 6-31G*
  Basis Set:
  @DF-RHF Final Energy:  -270.02122108410651
    Total Energy =                       -270.0212210841065144
  Basis Set: 6-31G*
  Basis Set:
  Basis Set: 6-31G*
  Basis Set:
  @DF-RHF Final Energy:  -270.02335112481683
    Total Energy =                       -270.0233511248170544
  Basis Set: 6-31G*
  Basis Set:
  @DF-RHF Final Energy:  -270.02348734908571
    Total Energy =                       -270.0234873490857126
  @DF-RHF Final Energy:  -270.02357174476458
    Total Energy =                       -270.0235717447645811
  @DF-RHF Final Energy:  -270.02362469412202
    Total Energy =                       -270.0236246941217360
  Basis Set: 6-31G*
  Basis Set:
  @DF-RHF Final Energy:  -270.02364521535492
    Total Energy =                       -270.0236452153548612
  Basis Set: 6-31G*
  Basis Set:
  Basis Set: 6-31G*
  Basis Set:
  @DF-RHF Final Energy:  -270.02364896786406
    Total Energy =                       -270.0236489678641192
  Basis Set: 6-31G*
  Basis Set:
  Basis Set: 6-31G*
  Basis Set:
  @DF-RHF Final Energy:  -270.02365006762204
    Total Energy =                       -270.0236500676219293
  Basis Set: 6-31G*
  Basis Set:
  Charge       = 0
  Multiplicity = 1
  Basis Set: 6-31G*
  Basis Set:

    Orbital Energies (a.u.)
    -----------------------

    Doubly Occupied:

       1A    -20.548412     2A    -11.324915     3A    -11.234915
       4A    -11.229732     5A    -11.228116     6A    -11.216004
       7A     -1.394176     8A     -1.078517     9A     -1.009548
      10A     -0.950777    11A     -0.834477    12A     -0.725656
      13A     -0.654161    14A     -0.644942    15A     -0.622588
      16A     -0.608761    17A     -0.576261    18A     -0.558532
      19A     -0.538249    20A     -0.506135    21A     -0.504476
      22A     -0.477847    23A     -0.473844    24A     -0.397856

  @DF-RHF Final Energy:  -270.02365019251727

   => Energetics <=

    Nuclear Repulsion Energy =            243.1711784325108283
    One-Electron Energy =                -847.7118648125349409
    Two-Electron Energy =                 334.5170361875068465
    DFT Exchange-Correlation Energy =       0.0000000000000000
    Empirical Dispersion Energy =           0.0000000000000000
    PCM Polarization Energy =               0.0000000000000000
    EFP Energy =                            0.0000000000000000
    Total Energy =                       -270.0236501925172661
    Molecular point group: c1
  Basis Set: 6-31G*
  Basis Set:

  -Total Gradient:
     Atom            X                  Y                   Z
    ------   -----------------  -----------------  -----------------
       1       -0.000006538535     0.000004230734    -0.000000880594
       2        0.000439358484     0.004012633243     0.000383622445
       3       -0.001052860143    -0.004650375963    -0.000909061368
       4        0.000003478691     0.000005014749     0.000002831318
       5        0.002778605568    -0.003934274397     0.002372957055
       6        0.000020921649    -0.000008479770    -0.000015887403
       7       -0.000025450478    -0.000003038262     0.000007198074
       8        0.000007946657    -0.000007393116    -0.000005407800
       9       -0.002160047077     0.004590639747    -0.001848194824
      10       -0.000007356043    -0.000005242695     0.000011473285
      11       -0.000000859109    -0.000000350719     0.000001678951
      12       -0.000000025218    -0.000000357418     0.000001532140
      13       -0.000004217633    -0.000000187146    -0.000000305235
      14        0.000002146470    -0.000001164380    -0.000002574531
      15        0.000003621919     0.000000711671     0.000000852849
      16        0.000001274802    -0.000002366279     0.000000165639

  **** Optimization is complete! (in 11 steps) ****
    Final optimized geometry and variables:
    Molecular point group: c1

    Geometry (in Angstrom), charge = 0, multiplicity = 1:

    O           -1.267451787819     1.083381076281     0.501329737676
    C           -0.759582597958     0.004038353588     0.482218449309
    C            0.687420195794    -0.192557257362     0.900555000592
    C           -1.533254502634    -1.225767532591     0.057025043248
    C            1.703664412034    -0.189192594928    -0.277029188728
    H            0.785275287585    -1.115218803808     1.464356694046
    H            0.913617694599     0.628026655562     1.570131353168
    C            1.218512786974     0.491032255601    -1.562406497242
    H            2.581004620909     0.356222343909     0.052549703714
    H            2.015863728575    -1.203368065940    -0.501991922279
    H            2.022681898431     0.520381201295    -2.290572616438
    H            0.898420182823     1.509311641331    -1.372939454087
    H            0.386510060341    -0.035436303115    -2.019813590520
    H           -0.954662072746    -1.838664217365    -0.627017567530
    H           -2.466547809214    -0.935053458217    -0.405207595710
    H           -1.745223192171    -1.834531686619     0.932449843262

  Mulliken Charges: (a.u.)
   Center  Symbol    Alpha    Beta     Spin     Total
       1     O     4.26179  4.26179  0.00000 -0.52358
       2     C     2.73642  2.73642  0.00000  0.52715
       3     C     3.20457  3.20457  0.00000 -0.40915
       4     C     3.28885  3.28885  0.00000 -0.57771
       5     C     3.15830  3.15830  0.00000 -0.31660
       6     H     0.41343  0.41343  0.00000  0.17314
       7     H     0.39962  0.39962  0.00000  0.20075
       8     C     3.25165  3.25165  0.00000 -0.50331
       9     H     0.41155  0.41155  0.00000  0.17691
      10     H     0.41722  0.41722  0.00000  0.16556
      11     H     0.41604  0.41604  0.00000  0.16791
      12     H     0.40549  0.40549  0.00000  0.18903
      13     H     0.42088  0.42088  0.00000  0.15824
      14     H     0.41105  0.41105  0.00000  0.17790
      15     H     0.39716  0.39716  0.00000  0.20568
      16     H     0.40596  0.40596  0.00000  0.18807

   Total alpha = 24.00000, Total beta = 24.00000, Total charge =  0.00000
