  ==> Input File <==

--------------------------------------------------------------------------
set {
	reference rhf
	basis 6-31G*
}

set_num_threads( 1 )
memory 2 gb

molecule MOL {
0 1

O	 3.225979	 0.970355	 -0.599647
C	 2.701189	 0.057885	 -0.047330
C	 1.245376	 -0.013843	 0.345420
O	 3.347903	 -1.046386	 0.304773
C	 0.455112	 1.231400	 -0.050772
H	 0.838542	 -0.913825	 -0.103701
H	 1.208210	 -0.175333	 1.419774
C	 -0.998893	 1.219485	 0.433193
H	 0.482531	 1.345121	 -1.130325
H	 0.957290	 2.103070	 0.354729
C	 -2.035183	 1.602591	 -0.627206
H	 -1.082105	 1.913060	 1.266710
H	 -1.239419	 0.236022	 0.834388
C	 -3.457055	 1.682803	 -0.067880
H	 -1.764645	 2.564201	 -1.060720
H	 -2.019118	 0.884089	 -1.443581
C	 -4.501808	 2.059781	 -1.119787
H	 -3.484696	 2.410246	 0.741624
H	 -3.724241	 0.724749	 0.375339
C	 -5.918488	 2.141480	 -0.552297
H	 -4.235798	 3.016437	 -1.564412
H	 -4.478699	 1.331376	 -1.927668
H	 -6.635891	 2.410380	 -1.321474
H	 -5.982947	 2.887102	 0.235160
H	 -6.227384	 1.189199	 -0.130377
C	 4.728119	 -1.109107	 -0.004993
H	 4.882018	 -1.033965	 -1.071845
H	 5.068212	 -2.067527	 0.355250
H	 5.265056	 -0.311663	 0.488280

	symmetry c1
}
set optking {
	frozen_dihedral = ("
		21 17 14 11,
		17 14 11 15,
		15 11 8 5,
		6 3 5 9,
		2 4 26 27,
		1 2 4 26,
		6 3 2 1
	")
}

ee = energy('scf')
oeprop('DIPOLE', 'QUADRUPOLE', 'MULLIKEN_CHARGES')
f=open( 'psi4out.xyz', 'w' )
f.write( "29  " )
f.write( str(ee) + "\n" )
f.write( MOL.save_string_xyz() )
f.close()
--------------------------------------------------------------------------

    Molecular point group: c1

    Geometry (in Angstrom), charge = 0, multiplicity = 1:

       Center              X                  Y                   Z               Mass
    ------------   -----------------  -----------------  -----------------  -----------------
           O          3.292869750085     0.186755052369    -0.417974626882    15.994914619560
           C          2.768079750085    -0.725714947631     0.134342373118    12.000000000000
           C          1.312266750085    -0.797442947631     0.527092373118    12.000000000000
           O          3.414793750085    -1.829985947631     0.486445373118    15.994914619560
           C          0.522002750085     0.447800052369     0.130900373118    12.000000000000
           H          0.905432750085    -1.697424947631     0.077971373118     1.007825032070
           H          1.275100750085    -0.958932947631     1.601446373118     1.007825032070
           C         -0.932002249915     0.435885052369     0.614865373118    12.000000000000
           H          0.549421750085     0.561521052369    -0.948652626882     1.007825032070
           H          1.024180750085     1.319470052369     0.536401373118     1.007825032070
           C         -1.968292249915     0.818991052369    -0.445533626882    12.000000000000
           H         -1.015214249915     1.129460052369     1.448382373118     1.007825032070
           H         -1.172528249915    -0.547577947631     1.016060373118     1.007825032070
           C         -3.390164249915     0.899203052369     0.113792373118    12.000000000000
           H         -1.697754249915     1.780601052369    -0.879047626882     1.007825032070
           H         -1.952227249915     0.100489052369    -1.261908626882     1.007825032070
           C         -4.434917249915     1.276181052369    -0.938114626882    12.000000000000
           H         -3.417805249915     1.626646052369     0.923296373118     1.007825032070
           H         -3.657350249915    -0.058850947631     0.557011373118     1.007825032070
           C         -5.851597249915     1.357880052369    -0.370624626882    12.000000000000
           H         -4.168907249915     2.232837052369    -1.382739626882     1.007825032070
           H         -4.411808249915     0.547776052369    -1.745995626882     1.007825032070
           H         -6.569000249915     1.626780052369    -1.139801626882     1.007825032070
           H         -5.916056249915     2.103502052369     0.416832373118     1.007825032070
           H         -6.160493249915     0.405599052369     0.051295373118     1.007825032070
           C          4.795009750085    -1.892706947631     0.176679373118    12.000000000000
           H          4.948908750085    -1.817564947631    -0.890172626882     1.007825032070
           H          5.135102750085    -2.851126947631     0.536922373118     1.007825032070
           H          5.331946750085    -1.095262947631     0.669952373118     1.007825032070

  Charge       = 0
  Multiplicity = 1
  Basis Set: 6-31G*
  Basis Set:

    Orbital Energies (a.u.)
    -----------------------

    Doubly Occupied:

       1A    -20.603395     2A    -20.545291     3A    -11.371854
       4A    -11.280727     5A    -11.235895     6A    -11.217646
       7A    -11.216216     8A    -11.215110     9A    -11.214819
      10A    -11.213168    11A    -11.208291    12A     -1.469117
      13A     -1.362551    14A     -1.096268    15A     -1.067035
      16A     -1.020059    17A     -0.977428    18A     -0.927246
      19A     -0.856955    20A     -0.800346    21A     -0.790145
      22A     -0.766758    23A     -0.698808    24A     -0.682471
      25A     -0.672141    26A     -0.651748    27A     -0.629015
      28A     -0.599854    29A     -0.595694    30A     -0.582684
      31A     -0.565899    32A     -0.548566    33A     -0.530317
      34A     -0.529905    35A     -0.514892    36A     -0.508924
      37A     -0.497527    38A     -0.476932    39A     -0.467227
      40A     -0.461181    41A     -0.459825    42A     -0.455281
      43A     -0.443876    44A     -0.431851

  @DF-RHF Final Energy:  -501.04017857539702

   => Energetics <=

    Nuclear Repulsion Energy =            602.6357405740316153
    One-Electron Energy =               -1876.4299961547069415
    Two-Electron Energy =                 772.7540770052803509
    DFT Exchange-Correlation Energy =       0.0000000000000000
    Empirical Dispersion Energy =           0.0000000000000000
    PCM Polarization Energy =               0.0000000000000000
    EFP Energy =                            0.0000000000000000
    Total Energy =                       -501.0401785753949753

  Mulliken Charges: (a.u.)
   Center  Symbol    Alpha    Beta     Spin     Total
       1     O     4.28583  4.28583  0.00000 -0.57166
       2     C     2.60559  2.60559  0.00000  0.78883
       3     C     3.21018  3.21018  0.00000 -0.42035
       4     O     4.30762  4.30762  0.00000 -0.61524
       5     C     3.15510  3.15510  0.00000 -0.31021
       6     H     0.40022  0.40022  0.00000  0.19956
       7     H     0.40038  0.40038  0.00000  0.19924
       8     C     3.15705  3.15705  0.00000 -0.31409
       9     H     0.41058  0.41058  0.00000  0.17885
      10     H     0.40858  0.40858  0.00000  0.18283
      11     C     3.15382  3.15382  0.00000 -0.30764
      12     H     0.41979  0.41979  0.00000  0.16042
      13     H     0.42256  0.42256  0.00000  0.15488
      14     C     3.15162  3.15162  0.00000 -0.30325
      15     H     0.42119  0.42119  0.00000  0.15761
      16     H     0.42317  0.42317  0.00000  0.15367
      17     C     3.15147  3.15147  0.00000 -0.30294
      18     H     0.42373  0.42373  0.00000  0.15254
      19     H     0.42429  0.42429  0.00000  0.15142
      20     C     3.23924  3.23924  0.00000 -0.47848
      21     H     0.42257  0.42257  0.00000  0.15485
      22     H     0.42323  0.42323  0.00000  0.15354
      23     H     0.41927  0.41927  0.00000  0.16147
      24     H     0.42175  0.42175  0.00000  0.15650
      25     H     0.42202  0.42202  0.00000  0.15595
      26     C     3.09243  3.09243  0.00000 -0.18487
      27     H     0.40908  0.40908  0.00000  0.18184
      28     H     0.40851  0.40851  0.00000  0.18298
      29     H     0.40913  0.40913  0.00000  0.18175

   Total alpha = 44.00000, Total beta = 44.00000, Total charge =  0.00000
