  ==> Input File <==

--------------------------------------------------------------------------
set {
	reference rhf
	basis cc-pvtz
}

set_num_threads( 4 )
memory 2 gb

molecule MOL {
0 1

H	 -2.149496	 -2.244167	 0.000000
O	 -2.454378	 -1.354528	 0.000000
C	 -1.430628	 -0.482077	 0.000000
C	 -0.332220	 -0.785175	 -0.791393
C	 -1.442629	 0.676985	 0.746761
H	 -0.342214	 -1.691004	 -1.364457
C	 0.744108	 0.071464	 -0.830107
H	 -2.285812	 0.923764	 1.363277
C	 -0.348744	 1.530519	 0.696509
H	 1.589336	 -0.170266	 -1.444512
C	 0.749598	 1.239311	 -0.087254
C	 -0.369762	 2.741044	 1.481044
H	 1.585859	 1.907776	 -0.115487
N	 -0.389514	 3.686769	 2.095778

	symmetry c1
}
set optking {
	frozen_dihedral = ("
		5 3 2 1
	")
}

ee = optimize('scf')
oeprop('DIPOLE', 'QUADRUPOLE', 'MULLIKEN_CHARGES')
f=open( 'psi4out.xyz', 'w' )
f.write( "14  " )
f.write( str(ee) + "\n" )
f.write( MOL.save_string_xyz() )
f.close()
--------------------------------------------------------------------------

    Molecular point group: c1
  Charge       = 0
  Multiplicity = 1
  Basis Set: CC-PVTZ
  Basis Set:
  @DF-RHF Final Energy:  -397.42898780066338
    Total Energy =                       -397.4289878006630943
    Molecular point group: c1
  Basis Set: CC-PVTZ
  Basis Set:
  Basis Set: CC-PVTZ
  Basis Set:
  @DF-RHF Final Energy:  -396.99610335520634
    Total Energy =                       -396.9961033552064009
  Basis Set: CC-PVTZ
  Basis Set:
  Basis Set: CC-PVTZ
  Basis Set:
  @DF-RHF Final Energy:  -397.00607009536799
    Total Energy =                       -397.0060700953674768
  Basis Set: CC-PVTZ
  Basis Set:
  Basis Set: CC-PVTZ
  Basis Set:
  @DF-RHF Final Energy:  -397.02138271145742
    Total Energy =                       -397.0213827114571359
  Basis Set: CC-PVTZ
  Basis Set:
  @DF-RHF Final Energy:  -397.05239898805820
    Total Energy =                       -397.0523989880582576
  @DF-RHF Final Energy:  -397.05411157488834
    Total Energy =                       -397.0541115748883385
  @DF-RHF Final Energy:  -397.06029328370192
    Total Energy =                       -397.0602932837018102
  @DF-RHF Final Energy:  -397.07582275798893
    Total Energy =                       -397.0758227579890445
  @DF-RHF Final Energy:  -397.08329558075604
    Total Energy =                       -397.0832955807560438
  @DF-RHF Final Energy:  -397.05887478957914
    Total Energy =                       -397.0588747895787947
  @DF-RHF Final Energy:  -397.07166165998825
    Total Energy =                       -397.0716616599881945
  @DF-RHF Final Energy:  -397.08771901168922
    Total Energy =                       -397.0877190116891597
  @DF-RHF Final Energy:  -397.09383789586389
    Total Energy =                       -397.0938378958636576
  @DF-RHF Final Energy:  -397.09817918537539
    Total Energy =                       -397.0981791853756704
  @DF-RHF Final Energy:  -397.10246978423095
    Total Energy =                       -397.1024697842307205
  @DF-RHF Final Energy:  -397.10559004002084
    Total Energy =                       -397.1055900400211840
  @DF-RHF Final Energy:  -397.10962484016460
    Total Energy =                       -397.1096248401646562
  @DF-RHF Final Energy:  -397.11123003598374
    Total Energy =                       -397.1112300359837946
  @DF-RHF Final Energy:  -397.11031479054378
    Total Energy =                       -397.1103147905439528
  @DF-RHF Final Energy:  -397.11260873616629
    Total Energy =                       -397.1126087361662940
  @DF-RHF Final Energy:  -397.11365645132332
    Total Energy =                       -397.1136564513234362
  @DF-RHF Final Energy:  -397.11530981398244
    Total Energy =                       -397.1153098139816962
  @DF-RHF Final Energy:  -397.11243019410034
    Total Energy =                       -397.1124301941001704
  @DF-RHF Final Energy:  -397.11255614136689
    Total Energy =                       -397.1125561413664968
  @DF-RHF Final Energy:  -397.11311269430081
    Total Energy =                       -397.1131126943007530
  @DF-RHF Final Energy:  -397.11473400100954
    Total Energy =                       -397.1147340010094240
  @DF-RHF Final Energy:  -397.11511387671095
    Total Energy =                       -397.1151138767108364
  @DF-RHF Final Energy:  -397.11418284635056
    Total Energy =                       -397.1141828463506727
  @DF-RHF Final Energy:  -397.11434630907814
    Total Energy =                       -397.1143463090783143
  @DF-RHF Final Energy:  -397.11533933220096
    Total Energy =                       -397.1153393322010743
  @DF-RHF Final Energy:  -397.11555505943255
    Total Energy =                       -397.1155550594326087
  @DF-RHF Final Energy:  -397.11560839315604
    Total Energy =                       -397.1156083931557532
  @DF-RHF Final Energy:  -397.11561299378923
    Total Energy =                       -397.1156129937893411
  @DF-RHF Final Energy:  -397.11561401562267
    Total Energy =                       -397.1156140156225547
  @DF-RHF Final Energy:  -397.11561166231343
    Total Energy =                       -397.1156116623137677
  @DF-RHF Final Energy:  -397.11561089663888
    Total Energy =                       -397.1156108966389411
  Basis Set: CC-PVTZ
  Basis Set:
  @DF-RHF Final Energy:  -397.11560974072842
    Total Energy =                       -397.1156097407286438
  Basis Set: CC-PVTZ
  Basis Set:
  Basis Set: CC-PVTZ
  Basis Set:
  @DF-RHF Final Energy:  -397.11560816643083
    Total Energy =                       -397.1156081664310022
  Basis Set: CC-PVTZ
  Basis Set:
  Basis Set: CC-PVTZ
  Basis Set:
  @DF-RHF Final Energy:  -397.11560654426472
    Total Energy =                       -397.1156065442646081
  Basis Set: CC-PVTZ
  Basis Set:
  Charge       = 0
  Multiplicity = 1
  Basis Set: CC-PVTZ
  Basis Set:

    Orbital Energies (a.u.)
    -----------------------

    Doubly Occupied:

       1A    -20.601290     2A    -15.609643     3A    -11.318886
       4A    -11.283700     5A    -11.279196     6A    -11.268624
       7A    -11.264551     8A    -11.259791     9A    -11.249612
      10A     -1.431035    11A     -1.191912    12A     -1.106476
      13A     -1.051614    14A     -1.022371    15A     -0.894217
      16A     -0.857994    17A     -0.793096    18A     -0.719196
      19A     -0.708393    20A     -0.676564    21A     -0.639826
      22A     -0.626203    23A     -0.584067    24A     -0.570458
      25A     -0.531306    26A     -0.519304    27A     -0.505282
      28A     -0.441501    29A     -0.384309    30A     -0.351989
      31A     -0.317175

  @DF-RHF Final Energy:  -397.11560489472703

   => Energetics <=

    Nuclear Repulsion Energy =            376.9101688351469761
    One-Electron Energy =               -1285.9323831695205627
    Two-Electron Energy =                 511.9066094396462177
    DFT Exchange-Correlation Energy =       0.0000000000000000
    Empirical Dispersion Energy =           0.0000000000000000
    PCM Polarization Energy =               0.0000000000000000
    EFP Energy =                            0.0000000000000000
    Total Energy =                       -397.1156048947273121
    Molecular point group: c1
  Basis Set: CC-PVTZ
  Basis Set:

  -Total Gradient:
     Atom            X                  Y                   Z
    ------   -----------------  -----------------  -----------------
       1        0.000059769921    -0.000114481477     0.001268836809
       2        0.000028650995    -0.000184164817    -0.001117717754
       3       -0.000408092537     0.000693768906    -0.000728191444
       4       -0.000184109449    -0.000165424312    -0.000013215118
       5        0.000422445868    -0.000582757899     0.000830890872
       6       -0.000075373506     0.000056661722    -0.000078353784
       7        0.000109353134     0.000202892747    -0.000047850359
       8        0.000035997092    -0.000121411975     0.000079700209
       9        0.000279686542    -0.000399472108     0.000685646792
      10       -0.000078610262     0.000109173853    -0.000102860556
      11        0.000020775836     0.000111663656     0.000052211372
      12       -0.000533500519     0.000824228429    -0.001531991893
      13        0.000022134653     0.000030014396    -0.000100881171
      14        0.000300872236    -0.000460691129     0.000803776023

    Molecular point group: c1

    Geometry (in Angstrom), charge = 0, multiplicity = 1:

    H           -1.519261103054    -3.060159918985    -0.360886865785
    O           -1.839598227480    -2.175761305686    -0.363306886311
    C           -0.821438793918    -1.279942939207    -0.343271956748
    C            0.319995810684    -1.453902253900    -1.116440238360
    C           -0.937062613436    -0.152677110356     0.427396818128
    H            0.398621306646    -2.326650887896    -1.739235534763
    C            1.348526077932    -0.526054687950    -1.105356213512
    H           -1.812228982264     0.012144436954     1.022457317796
    C            0.089258874507     0.811187610617     0.449406256084
    H            2.216401310110    -0.692950701908    -1.712415693337
    C            1.246192420076     0.601756664012    -0.325446749092
    C           -0.152732006846     1.957057156673     1.273882244586
    H            2.027002913332     1.329973502860    -0.298857540699
    N            1.070518439242     2.862709916871     1.271301576091

  Mulliken Charges: (a.u.)
   Center  Symbol    Alpha    Beta     Spin     Total
       1     H     0.38502  0.38502  0.00000  0.22996
       2     O     4.17650  4.17650  0.00000 -0.35300
       3     C     2.87365  2.87365  0.00000  0.25270
       4     C     3.08267  3.08267  0.00000 -0.16535
       5     C     3.08886  3.08886  0.00000 -0.17772
       6     H     0.41807  0.41807  0.00000  0.16385
       7     C     3.08447  3.08447  0.00000 -0.16894
       8     H     0.40339  0.40339  0.00000  0.19322
       9     C     2.97886  2.97886  0.00000  0.04228
      10     H     0.41510  0.41510  0.00000  0.16980
      11     C     3.07222  3.07222  0.00000 -0.14443
      12     C     3.02449  3.02449  0.00000 -0.04898
      13     H     0.40083  0.40083  0.00000  0.19835
      14     N     3.59587  3.59587  0.00000 -0.19174

   Total alpha = 31.00000, Total beta = 31.00000, Total charge = -0.00000
