  ==> Input File <==

--------------------------------------------------------------------------
set {
	reference rhf
	basis 6-31G*
}

set_num_threads( 4 )
memory 2 gb

molecule MOL {
0 1

O	 -2.042549	 -1.228399	 -0.269030
C	 -1.653912	 -0.146171	 0.050137
C	 -0.332303	 0.024011	 0.778412
C	 -2.438579	 1.106236	 -0.272369
C	 -0.265944	 1.387443	 1.484473
H	 -0.190122	 -0.774233	 1.501581
H	 0.460330	 -0.041681	 0.041297
C	 1.063492	 1.612757	 2.206183
H	 -1.081319	 1.470906	 2.200909
H	 -0.420108	 2.167870	 0.745346
C	 1.135697	 2.971527	 2.901695
H	 1.215941	 0.822725	 2.938327
H	 1.877811	 1.528811	 1.490358
H	 0.353437	 3.072509	 3.648639
H	 1.019001	 3.782792	 2.189182
H	 2.089608	 3.104831	 3.402005
H	 -3.277823	 0.863061	 -0.908988
H	 -1.806773	 1.843019	 -0.759671
H	 -2.802853	 1.554979	 0.648059

	symmetry c1
}
set optking {
	frozen_dihedral = ("
		5 3 2 4
	")
}

ee = optimize('scf')
oeprop('DIPOLE', 'QUADRUPOLE', 'MULLIKEN_CHARGES')
f=open( 'psi4out.xyz', 'w' )
f.write( "19  " )
f.write( str(ee) + "\n" )
f.write( MOL.save_string_xyz() )
f.close()
--------------------------------------------------------------------------

    Molecular point group: c1
  Charge       = 0
  Multiplicity = 1
  Basis Set: 6-31G*
  Basis Set:
  @DF-RHF Final Energy:  -309.05893171403363
    Total Energy =                       -309.0589317140336902
    Molecular point group: c1
  Basis Set: 6-31G*
  Basis Set:
  Basis Set: 6-31G*
  Basis Set:
  @DF-RHF Final Energy:  -309.06134659545421
    Total Energy =                       -309.0613465954540402
  Basis Set: 6-31G*
  Basis Set:
  Basis Set: 6-31G*
  Basis Set:
  @DF-RHF Final Energy:  -309.06271397042934
    Total Energy =                       -309.0627139704293427
  Basis Set: 6-31G*
  Basis Set:
  Basis Set: 6-31G*
  Basis Set:
  @DF-RHF Final Energy:  -309.06202184207086
    Total Energy =                       -309.0620218420709193
  Basis Set: 6-31G*
  Basis Set:
  @DF-RHF Final Energy:  -309.06311041670602
    Total Energy =                       -309.0631104167056833
  Basis Set: 6-31G*
  Basis Set:
  @DF-RHF Final Energy:  -309.06280242988009
    Total Energy =                       -309.0628024298799801
  Basis Set: 6-31G*
  Basis Set:
  Basis Set: 6-31G*
  Basis Set:
  @DF-RHF Final Energy:  -309.06303211038136
    Total Energy =                       -309.0630321103815277
  Basis Set: 6-31G*
  Basis Set:
  Basis Set: 6-31G*
  Basis Set:
  @DF-RHF Final Energy:  -309.06314140897825
    Total Energy =                       -309.0631414089783675
  Basis Set: 6-31G*
  Basis Set:
  Charge       = 0
  Multiplicity = 1
  Basis Set: 6-31G*
  Basis Set:

    Orbital Energies (a.u.)
    -----------------------

    Doubly Occupied:

       1A    -20.545710     2A    -11.325848     3A    -11.231651
       4A    -11.230809     5A    -11.227688     6A    -11.227000
       7A    -11.217357     8A     -1.392560     9A     -1.094316
      10A     -1.027798    11A     -0.982641    12A     -0.895562
      13A     -0.810454    14A     -0.731757    15A     -0.662982
      16A     -0.647447    17A     -0.626987    18A     -0.611901
      19A     -0.585557    20A     -0.572784    21A     -0.553041
      22A     -0.530086    23A     -0.523564    24A     -0.491505
      25A     -0.486284    26A     -0.481704    27A     -0.468460
      28A     -0.396735

  @DF-RHF Final Energy:  -309.06314152757392

   => Energetics <=

    Nuclear Repulsion Energy =            300.8097224266948047
    One-Electron Energy =               -1014.5853442571558389
    Two-Electron Energy =                 404.7124803028871156
    DFT Exchange-Correlation Energy =       0.0000000000000000
    Empirical Dispersion Energy =           0.0000000000000000
    PCM Polarization Energy =               0.0000000000000000
    EFP Energy =                            0.0000000000000000
    Total Energy =                       -309.0631415275738618
    Molecular point group: c1
  Basis Set: 6-31G*
  Basis Set:

  -Total Gradient:
     Atom            X                  Y                   Z
    ------   -----------------  -----------------  -----------------
       1       -0.000029849298    -0.000012680237     0.000010533434
       2        0.001095519998     0.000382379134    -0.001968699323
       3       -0.000965504135    -0.000727807052     0.001909093996
       4       -0.000538131763    -0.000093394723     0.000951385311
       5        0.000451495094     0.000447559266    -0.000956680473
       6        0.000011056232    -0.000003950041     0.000004974189
       7        0.000003185300     0.000008514603     0.000007028099
       8        0.000009999546     0.000010328698    -0.000022472382
       9        0.000002162355     0.000001526556    -0.000003017293
      10        0.000001825017     0.000000260302    -0.000004598283
      11       -0.000007786132    -0.000009323408     0.000027520595
      12        0.000006042904     0.000002995274    -0.000005712563
      13       -0.000006303710     0.000001919407    -0.000008566159
      14       -0.000005291498     0.000010485828    -0.000003155422
      15        0.000008941237    -0.000007364797    -0.000002429490
      16       -0.000002176666     0.000000478207     0.000010760672
      17       -0.000014818508     0.000000760835     0.000009774234
      18       -0.000017566343     0.000000492929     0.000017406127
      19       -0.000002799628    -0.000013180781     0.000026854732

  **** Optimization is complete! (in 9 steps) ****
    Final optimized geometry and variables:
    Molecular point group: c1

    Geometry (in Angstrom), charge = 0, multiplicity = 1:

    O           -1.312135305222    -2.102413173697    -1.245834761630
    C           -1.024196428662    -0.979419711873    -0.961966120884
    C            0.268989899900    -0.702149405397    -0.205191417184
    C           -1.917132651055     0.175099146836    -1.362966711271
    C            0.393185142898     0.639250026869     0.520558147564
    H            0.405143547487    -1.528555416715     0.483850645501
    H            1.068329646483    -0.790520500880    -0.939993558934
    C            1.732044775205     0.779224281436     1.248326341944
    H           -0.414325674538     0.746206706092     1.242021535164
    H            0.286712025868     1.459344152232    -0.184706220359
    C            1.872138445901     2.111672003874     1.982934685447
    H            1.843164298339    -0.038060157809     1.957011084632
    H            2.543353009089     0.674106912192     0.531401928568
    H            1.092769313371     2.231791226858     2.729982530624
    H            1.801879653463     2.949027072273     1.294480005672
    H            2.829190477696     2.180386544979     2.490063835791
    H           -2.750393306265    -0.206136189172    -1.936270165212
    H           -1.368668067020     0.900153383784    -1.956938503696
    H           -2.289510933973     0.693511503990    -0.485113553723

  Mulliken Charges: (a.u.)
   Center  Symbol    Alpha    Beta     Spin     Total
       1     O     4.26358  4.26358  0.00000 -0.52717
       2     C     2.73462  2.73462  0.00000  0.53075
       3     C     3.20610  3.20610  0.00000 -0.41221
       4     C     3.29197  3.29197  0.00000 -0.58394
       5     C     3.16121  3.16121  0.00000 -0.32242
       6     H     0.39862  0.39862  0.00000  0.20276
       7     H     0.40359  0.40359  0.00000  0.19281
       8     C     3.15222  3.15222  0.00000 -0.30444
       9     H     0.41931  0.41931  0.00000  0.16139
      10     H     0.41980  0.41980  0.00000  0.16041
      11     C     3.23994  3.23994  0.00000 -0.47987
      12     H     0.41933  0.41933  0.00000  0.16133
      13     H     0.42075  0.42075  0.00000  0.15849
      14     H     0.42047  0.42047  0.00000  0.15907
      15     H     0.42103  0.42103  0.00000  0.15794
      16     H     0.41660  0.41660  0.00000  0.16680
      17     H     0.39553  0.39553  0.00000  0.20893
      18     H     0.40887  0.40887  0.00000  0.18225
      19     H     0.40646  0.40646  0.00000  0.18709

   Total alpha = 28.00000, Total beta = 28.00000, Total charge =  0.00000
