                              Psi4 1.0.54 Driver

  ==> Input File <==

--------------------------------------------------------------------------
set {
	reference rhf
	basis cc-pvtz
}

set_num_threads( 4 )
memory 2 gb

molecule MOL {
0 1

H	 -2.966134	 -0.022628	 -0.573530
O	 -2.346257	 -0.289210	 0.080372
C	 -1.183935	 0.486039	 -0.009831
C	 0.062853	 -0.375310	 0.027457
H	 -1.178881	 1.094526	 -0.908634
H	 -1.184406	 1.155156	 0.838676
O	 1.172093	 0.457955	 -0.054438
H	 0.052476	 -1.081302	 -0.804627
H	 0.076323	 -0.955658	 0.947560
C	 2.395478	 -0.199028	 -0.000366
H	 2.505946	 -0.901710	 -0.823354
H	 3.174616	 0.545641	 -0.071768
H	 2.513730	 -0.742241	 0.934223

	symmetry c1
}
set optking {
	frozen_dihedral = ("
		1 2 3 5
	")
}

ee,wfn = optimize('scf', return_wfn=True)
oeprop( wfn, 'DIPOLE', 'QUADRUPOLE', 'MULLIKEN_CHARGES')
f=open( 'psi4out.xyz', 'w' )
f.write( "13  " )
f.write( str(ee) + "\n" )
f.write( MOL.save_string_xyz() )
f.close()
--------------------------------------------------------------------------

    Molecular point group: c1
  Charge       = 0
  Multiplicity = 1
  Basis Set: CC-PVTZ
  Basis Set:
  @DF-RHF Final Energy:  -268.06083051797077
    Total Energy =                       -268.0608305179708850
    Molecular point group: c1
  Basis Set: CC-PVTZ
  Basis Set:
  Basis Set: CC-PVTZ
  Basis Set:
  @DF-RHF Final Energy:  -268.06139575689508
    Total Energy =                       -268.0613957568951946
  Basis Set: CC-PVTZ
  Basis Set:
  Basis Set: CC-PVTZ
  Basis Set:
  @DF-RHF Final Energy:  -268.06157343711254
    Total Energy =                       -268.0615734371123722
  Basis Set: CC-PVTZ
  Basis Set:
  Basis Set: CC-PVTZ
  Basis Set:
  @DF-RHF Final Energy:  -268.06157862609348
    Total Energy =                       -268.0615786260935920
  Basis Set: CC-PVTZ
  Basis Set:
  Charge       = 0
  Multiplicity = 1
  Basis Set: CC-PVTZ
  Basis Set:

    Orbital Energies (a.u.)
    -----------------------

    Doubly Occupied:

       1A    -20.552828     2A    -20.551271     3A    -11.267779
       4A    -11.265143     5A    -11.264974     6A     -1.388861
       7A     -1.367475     8A     -1.019369     9A     -0.912219
      10A     -0.834047    11A     -0.715402    12A     -0.680865
      13A     -0.646582    14A     -0.643403    15A     -0.608801
      16A     -0.553627    17A     -0.546156    18A     -0.493996
      19A     -0.477497    20A     -0.441556    21A     -0.421333

  @DF-RHF Final Energy:  -268.06157911017181

   => Energetics <=

    Nuclear Repulsion Energy =            190.5197113803726268
    One-Electron Energy =                -743.8562089266483781
    Two-Electron Energy =                 285.2749184361041443
    DFT Exchange-Correlation Energy =       0.0000000000000000
    Empirical Dispersion Energy =           0.0000000000000000
    PCM Polarization Energy =               0.0000000000000000
    EFP Energy =                            0.0000000000000000
    Total Energy =                       -268.0615791101715786
    Molecular point group: c1
  Basis Set: CC-PVTZ
  Basis Set:

  -Total Gradient:
     Atom            X                  Y                   Z
    ------   -----------------  -----------------  -----------------
       1        0.000259040698    -0.000446566360    -0.000404270712
       2       -0.000374097463     0.000700088538     0.000576248917
       3        0.000402553861    -0.000687661985    -0.000428395142
       4       -0.000010119861    -0.000022683984    -0.000000298362
       5       -0.000260842718     0.000425097628     0.000265257194
       6       -0.000005130688    -0.000014659558    -0.000001029455
       7        0.000020348996     0.000023408925    -0.000003351258
       8       -0.000010235106    -0.000000187460    -0.000009096268
       9       -0.000007281882     0.000022735853    -0.000002692919
      10       -0.000008261330    -0.000001477588     0.000013234765
      11       -0.000005970785     0.000002834266    -0.000000562141
      12       -0.000000446132     0.000001635910    -0.000003423076
      13        0.000000442412    -0.000002564183    -0.000001621542

  **** Optimization is complete! (in 5 steps) ****
    Final optimized geometry and variables:
    Molecular point group: c1

    Geometry (in Angstrom), charge = 0, multiplicity = 1:

    H           -2.948359539902    -0.102028415961    -0.547423300454
    O           -2.313513081448    -0.316826325504     0.107906437319
    C           -1.178587395514     0.499689714207    -0.015874136334
    C            0.056518175386    -0.373521601114     0.005420943144
    H           -1.199739439848     1.075713281283    -0.934323508090
    H           -1.136495844137     1.201392419136     0.809347308069
    O            1.174432644940     0.452157099109    -0.050265833980
    H            0.036856634788    -1.058870814843    -0.839964239763
    H            0.059041534526    -0.972000849246     0.914103193374
    C            2.389814544755    -0.220024568894    -0.014678303648
    H            2.493162339260    -0.899803679013    -0.857502719324
    H            3.177904072845     0.517180423973    -0.063509358831
    H            2.500836985277    -0.791847209488     0.903710848696

  Mulliken Charges: (a.u.)
   Center  Symbol    Alpha    Beta     Spin     Total
       1     H     0.38880  0.38880  0.00000  0.22239
       2     O     4.20614  4.20614  0.00000 -0.41228
       3     C     2.96940  2.96940  0.00000  0.06120
       4     C     2.95944  2.95944  0.00000  0.08112
       5     H     0.47009  0.47009  0.00000  0.05983
       6     H     0.46472  0.46472  0.00000  0.07056
       7     O     4.17653  4.17653  0.00000 -0.35306
       8     H     0.47516  0.47516  0.00000  0.04968
       9     H     0.47067  0.47067  0.00000  0.05866
      10     C     3.03088  3.03088  0.00000 -0.06176
      11     H     0.47105  0.47105  0.00000  0.05790
      12     H     0.44697  0.44697  0.00000  0.10606
      13     H     0.47016  0.47016  0.00000  0.05969

   Total alpha = 21.00000, Total beta = 21.00000, Total charge =  0.00000

*** Psi4 exiting successfully. Buy a developer a beer!
