  ==> Input File <==

--------------------------------------------------------------------------
set {
	reference rhf
	basis 6-31G*
}

set_num_threads( 4 )
memory 2 gb

molecule MOL {
0 1

H	 -2.698709	 -0.000305	 0.034435
C	 -1.693833	 0.000034	 0.434417
O	 -0.828952	 -0.000968	 -0.659236
H	 -1.574200	 0.882896	 1.055746
H	 -1.574147	 -0.881698	 1.057355
C	 0.559449	 -0.000018	 -0.420814
C	 1.152558	 1.407511	 -0.422373
C	 0.939057	 -0.788561	 0.831007
H	 0.957077	 -0.528519	 -1.279074
H	 0.821774	 1.954135	 -1.298919
H	 2.236464	 1.353403	 -0.443745
H	 0.871732	 1.972824	 0.460645
H	 0.459941	 -1.761613	 0.822359
H	 2.013736	 -0.938490	 0.863437
H	 0.654099	 -0.273967	 1.743056

	symmetry c1
}
set optking {
	frozen_dihedral = ("
		9 6 3 2
	")
}

ee = optimize('scf')
oeprop('DIPOLE', 'QUADRUPOLE', 'MULLIKEN_CHARGES')
f=open( 'psi4out.xyz', 'w' )
f.write( "15  " )
f.write( str(ee) + "\n" )
f.write( MOL.save_string_xyz() )
f.close()
--------------------------------------------------------------------------

    Molecular point group: c1
  Charge       = 0
  Multiplicity = 1
  Basis Set: 6-31G*
  Basis Set:
  @DF-RHF Final Energy:  -232.13483789147753
    Total Energy =                       -232.1348378914776163
    Molecular point group: c1
  Basis Set: 6-31G*
  Basis Set:
  Basis Set: 6-31G*
  Basis Set:
  @DF-RHF Final Energy:  -232.13544100627652
    Total Energy =                       -232.1354410062766647
  Basis Set: 6-31G*
  Basis Set:
  Basis Set: 6-31G*
  Basis Set:
  @DF-RHF Final Energy:  -232.13593864387477
    Total Energy =                       -232.1359386438747947
  Basis Set: 6-31G*
  Basis Set:
  Basis Set: 6-31G*
  Basis Set:
  @DF-RHF Final Energy:  -232.13596693126507
    Total Energy =                       -232.1359669312649316
  Basis Set: 6-31G*
  Basis Set:
  Basis Set: 6-31G*
  Basis Set:
  @DF-RHF Final Energy:  -232.13599445394240
    Total Energy =                       -232.1359944539423736
  Basis Set: 6-31G*
  Basis Set:
  Basis Set: 6-31G*
  Basis Set:
  @DF-RHF Final Energy:  -232.13599817827784
    Total Energy =                       -232.1359981782774753
  Basis Set: 6-31G*
  Basis Set:
  Charge       = 0
  Multiplicity = 1
  Basis Set: 6-31G*
  Basis Set:

    Orbital Energies (a.u.)
    -----------------------

    Doubly Occupied:

       1A    -20.546846     2A    -11.274434     3A    -11.261983
       4A    -11.214181     5A    -11.207253     6A     -1.368715
       7A     -1.051198     8A     -0.945182     9A     -0.924428
      10A     -0.781220    11A     -0.674928    12A     -0.642177
      13A     -0.632117    14A     -0.576837    15A     -0.556652
      16A     -0.550682    17A     -0.535352    18A     -0.504564
      19A     -0.493737    20A     -0.444288    21A     -0.402698

  @DF-RHF Final Energy:  -232.13599836946466

   => Energetics <=

    Nuclear Repulsion Energy =            198.6117374575738665
    One-Electron Energy =                -708.3165255551496102
    Two-Electron Energy =                 277.5687897281112555
    DFT Exchange-Correlation Energy =       0.0000000000000000
    Empirical Dispersion Energy =           0.0000000000000000
    PCM Polarization Energy =               0.0000000000000000
    EFP Energy =                            0.0000000000000000
    Total Energy =                       -232.1359983694644598
    Molecular point group: c1
  Basis Set: 6-31G*
  Basis Set:

  -Total Gradient:
     Atom            X                  Y                   Z
    ------   -----------------  -----------------  -----------------
       1        0.000006303869    -0.000004670351    -0.000016525645
       2       -0.000064188551    -0.003238240992     0.000059971702
       3        0.000055853998     0.004180890484     0.000294203362
       4        0.000010792480     0.000010199654     0.000000566971
       5       -0.000007471217     0.000011925713    -0.000011678850
       6        0.000384103504     0.002232272789    -0.002206327266
       7       -0.000015688309     0.000009806617     0.000000977885
       8        0.000013713318    -0.000010993290     0.000007460376
       9       -0.000392604492    -0.003181148095     0.001868176350
      10        0.000006028115    -0.000003692255    -0.000006252759
      11       -0.000001311313    -0.000014338909     0.000006215604
      12        0.000000366018     0.000011165901     0.000000294808
      13        0.000007364678    -0.000007371142     0.000001127051
      14       -0.000003440265     0.000002942365    -0.000000154977
      15        0.000000178170     0.000001251510     0.000001945387

  **** Optimization is complete! (in 7 steps) ****
    Final optimized geometry and variables:
    Molecular point group: c1

    Geometry (in Angstrom), charge = 0, multiplicity = 1:

    H           -2.701355855144     0.038831013768     0.058110308540
    C           -1.707618586389    -0.088608028045     0.466053979499
    O           -0.834289163502    -0.122329416724    -0.619267331914
    H           -1.506325865401     0.742776461332     1.137945092405
    H           -1.688085633417    -1.009620504922     1.040051558709
    C            0.558344317997    -0.147823292526    -0.387798534714
    C            1.111254650166     1.272796418181    -0.393761247862
    C            0.974447544172    -0.923874635167     0.861519475388
    H            0.957169765020    -0.694177752222    -1.235050053570
    H            0.822720019274     1.780600094989    -1.306824568847
    H            2.195288893887     1.268924161626    -0.329014303523
    H            0.727577757420     1.844103396516     0.446713105913
    H            0.557275112511    -1.925199450500     0.855769793111
    H            2.055654563301    -1.014704144208     0.880728737878
    H            0.670968807179    -0.429481325557     1.778501022923

  Mulliken Charges: (a.u.)
   Center  Symbol    Alpha    Beta     Spin     Total
       1     H     0.41234  0.41234  0.00000  0.17532
       2     C     3.07890  3.07890  0.00000 -0.15780
       3     O     4.31564  4.31564  0.00000 -0.63129
       4     H     0.43190  0.43190  0.00000  0.13619
       5     H     0.42794  0.42794  0.00000  0.14412
       6     C     2.90638  2.90638  0.00000  0.18724
       7     C     3.24268  3.24268  0.00000 -0.48535
       8     C     3.26180  3.26180  0.00000 -0.52360
       9     H     0.41750  0.41750  0.00000  0.16500
      10     H     0.41129  0.41129  0.00000  0.17743
      11     H     0.42380  0.42380  0.00000  0.15241
      12     H     0.42240  0.42240  0.00000  0.15520
      13     H     0.41259  0.41259  0.00000  0.17483
      14     H     0.41565  0.41565  0.00000  0.16870
      15     H     0.41920  0.41920  0.00000  0.16160

   Total alpha = 21.00000, Total beta = 21.00000, Total charge = -0.00000
