  ==> Input File <==

--------------------------------------------------------------------------
set {
	reference rhf
	basis 6-31G*
}

set_num_threads( 4 )
memory 2 gb

molecule MOL {
0 1

H	 -3.461459	 -0.518120	 -0.753737
O	 -3.115265	 -0.183647	 0.062285
C	 -1.776982	 -0.064832	 0.007991
C	 -1.047888	 -0.404852	 -1.127707
C	 -1.132291	 0.416424	 1.140613
H	 -1.555325	 -0.777116	 -2.001341
C	 0.323772	 -0.262143	 -1.126155
H	 -1.716564	 0.671853	 2.004125
C	 0.240091	 0.553572	 1.126764
H	 0.898827	 -0.520627	 -1.995406
C	 0.984182	 0.218375	 0.000000
H	 0.740175	 0.926471	 2.004217
C	 2.452467	 0.370529	 0.000000
O	 3.228994	 -0.533774	 0.000000
H	 2.809473	 1.405765	 0.000000

	symmetry c1
}
set optking {
	frozen_dihedral = ("
		7 11 13 14
	")
}

ee = optimize('scf')
oeprop('DIPOLE', 'QUADRUPOLE', 'MULLIKEN_CHARGES')
f=open( 'psi4out.xyz', 'w' )
f.write( "15  " )
f.write( str(ee) + "\n" )
f.write( MOL.save_string_xyz() )
f.close()
--------------------------------------------------------------------------

    Molecular point group: c1
  Charge       = 0
  Multiplicity = 1
  Basis Set: 6-31G*
  Basis Set:
  @DF-RHF Final Energy:  -418.27511686832992
    Total Energy =                       -418.2751168683297465
    Molecular point group: c1
  Basis Set: 6-31G*
  Basis Set:
  Basis Set: 6-31G*
  Basis Set:
  @DF-RHF Final Energy:  -418.27514925092908
    Total Energy =                       -418.2751492509287345
  Basis Set: 6-31G*
  Basis Set:
  Basis Set: 6-31G*
  Basis Set:
  @DF-RHF Final Energy:  -418.27590136284414
    Total Energy =                       -418.2759013628444791
  Basis Set: 6-31G*
  Basis Set:
  Basis Set: 6-31G*
  Basis Set:
  @DF-RHF Final Energy:  -418.27603883029633
    Total Energy =                       -418.2760388302961019
  Basis Set: 6-31G*
  Basis Set:
  Basis Set: 6-31G*
  Basis Set:
  @DF-RHF Final Energy:  -418.27604123934219
    Total Energy =                       -418.2760412393421348
  Basis Set: 6-31G*
  Basis Set:
  Charge       = 0
  Multiplicity = 1
  Basis Set: 6-31G*
  Basis Set:

    Orbital Energies (a.u.)
    -----------------------

    Doubly Occupied:

       1A    -20.604483     2A    -20.568870     3A    -11.333625
       4A    -11.315058     5A    -11.255802     6A    -11.255193
       7A    -11.243723     8A    -11.243124     9A    -11.238096
      10A     -1.424404    11A     -1.407739    12A     -1.168843
      13A     -1.038369    14A     -1.036715    15A     -0.886817
      16A     -0.862643    17A     -0.798505    18A     -0.752800
      19A     -0.709714    20A     -0.671736    21A     -0.652435
      22A     -0.628650    23A     -0.605724    24A     -0.602373
      25A     -0.589324    26A     -0.561423    27A     -0.530055
      28A     -0.503201    29A     -0.491216    30A     -0.421579
      31A     -0.354992    32A     -0.324079

  @DF-RHF Final Energy:  -418.27604201003504

   => Energetics <=

    Nuclear Repulsion Energy =            400.0940732932256765
    One-Electron Energy =               -1362.5776149170208100
    Two-Electron Energy =                 544.2074996137605467
    DFT Exchange-Correlation Energy =       0.0000000000000000
    Empirical Dispersion Energy =           0.0000000000000000
    PCM Polarization Energy =               0.0000000000000000
    EFP Energy =                            0.0000000000000000
    Total Energy =                       -418.2760420100346437
    Molecular point group: c1
  Basis Set: 6-31G*
  Basis Set:

  -Total Gradient:
     Atom            X                  Y                   Z
    ------   -----------------  -----------------  -----------------
       1        0.000000474400     0.000006185226    -0.000004151632
       2       -0.000007137344    -0.000049349396    -0.000011282390
       3        0.000012381552     0.000113277972     0.000048492454
       4        0.000047868779    -0.000025967835    -0.000028929353
       5       -0.000080538054    -0.000051891888    -0.000031616185
       6       -0.000015477633    -0.000001093508    -0.000000564207
       7       -0.000836193214     0.005241248232    -0.001757031187
       8        0.000018921840     0.000003856223     0.000002319925
       9        0.000100571247    -0.000037644997    -0.000078030912
      10       -0.000001840050     0.000004235499     0.000013782377
      11        0.001178257032    -0.007742391580     0.005713850543
      12        0.000001188237    -0.000004281339     0.000007962590
      13       -0.000591930505     0.002757473027    -0.010692124156
      14        0.000165184827    -0.000190288827     0.006821794177
      15        0.000008268881    -0.000023366809    -0.000004472040

  **** Optimization is complete! (in 6 steps) ****
    Final optimized geometry and variables:
    Molecular point group: c1

    Geometry (in Angstrom), charge = 0, multiplicity = 1:

    H           -3.479094395969    -0.508576994036    -0.747702736023
    O           -3.131399858796    -0.165417134570     0.063724511979
    C           -1.787630893113    -0.062434816820     0.006815768622
    C           -1.060336882173    -0.404190893417    -1.121981135951
    C           -1.135533788069     0.416660256796     1.136461051895
    H           -1.564769565192    -0.763932109232    -2.002616926568
    C            0.319544878099    -0.282238496315    -1.114207510220
    H           -1.715933366750     0.683024229984     1.999643470363
    C            0.236903811726     0.551929325233     1.124645604601
    H            0.879174290463    -0.557667115215    -1.990029489724
    C            0.983212796349     0.175892853705     0.011818410441
    H            0.732378258480     0.941668587034     1.997190608717
    C            2.464717370997     0.383033783799    -0.004563522873
    O            3.263902769499    -0.495414978023    -0.051318747388
    H            2.796745070264     1.422092459564     0.082395213731

  Mulliken Charges: (a.u.)
   Center  Symbol    Alpha    Beta     Spin     Total
       1     H     0.26983  0.26983  0.00000  0.46034
       2     O     4.37571  4.37571  0.00000 -0.75141
       3     C     2.79142  2.79142  0.00000  0.41716
       4     C     3.14295  3.14295  0.00000 -0.28590
       5     C     3.12176  3.12176  0.00000 -0.24352
       6     H     0.39927  0.39927  0.00000  0.20145
       7     C     3.09199  3.09199  0.00000 -0.18397
       8     H     0.38679  0.38679  0.00000  0.22642
       9     C     3.09687  3.09687  0.00000 -0.19375
      10     H     0.38649  0.38649  0.00000  0.22702
      11     C     3.04531  3.04531  0.00000 -0.09061
      12     H     0.39090  0.39090  0.00000  0.21821
      13     C     2.85021  2.85021  0.00000  0.29958
      14     O     4.22617  4.22617  0.00000 -0.45234
      15     H     0.42434  0.42434  0.00000  0.15133

   Total alpha = 32.00000, Total beta = 32.00000, Total charge = -0.00000
