  ==> Input File <==

--------------------------------------------------------------------------
set {
	reference rhf
	basis 6-31G*
}

set_num_threads( 4 )
memory 2 gb

molecule MOL {
0 1

H	 5.268524	 0.192471	 1.070992
C	 4.673736	 -0.214914	 0.259335
C	 3.185378	 -0.203514	 0.605509
H	 4.871837	 0.380453	 -0.627026
H	 5.025590	 -1.224632	 0.065769
C	 2.317601	 -0.778379	 -0.516234
H	 2.874655	 0.814325	 0.817774
H	 3.023650	 -0.778480	 1.515976
C	 2.736138	 -0.321649	 -1.913907
H	 2.343391	 -1.861640	 -0.477200
H	 1.284241	 -0.480039	 -0.354367
C	 4.046144	 -0.921410	 -2.403208
H	 1.974657	 -0.608443	 -2.637555
H	 2.797427	 0.763102	 -1.966209
C	 4.732369	 -0.245916	 -3.577735
O	 4.514092	 -1.897861	 -1.899250
C	 3.902828	 -0.261074	 -4.870328
H	 5.674559	 -0.758131	 -3.731449
H	 4.953261	 0.784011	 -3.303615
C	 4.662251	 0.338992	 -6.055152
H	 3.622967	 -1.285951	 -5.104679
H	 2.976649	 0.289321	 -4.726356
C	 3.847070	 0.329572	 -7.347551
H	 5.586296	 -0.213751	 -6.205744
H	 4.951300	 1.360231	 -5.816575
H	 3.570705	 -0.682327	 -7.629349
H	 2.931661	 0.904352	 -7.239078
H	 4.411444	 0.759009	 -8.169101

	symmetry c1
}
set optking {
	frozen_dihedral = ("
		10 6 3 2
	")
}

ee = optimize('scf')
oeprop('DIPOLE', 'QUADRUPOLE', 'MULLIKEN_CHARGES')
f=open( 'psi4out.xyz', 'w' )
f.write( "28  " )
f.write( str(ee) + "\n" )
f.write( MOL.save_string_xyz() )
f.close()
--------------------------------------------------------------------------

    Molecular point group: c1
  Charge       = 0
  Multiplicity = 1
  Basis Set: 6-31G*
  Basis Set:
  @DF-RHF Final Energy:  -426.15438372234564
    Total Energy =                       -426.1543837223455284
    Molecular point group: c1
  Basis Set: 6-31G*
  Basis Set:
  Basis Set: 6-31G*
  Basis Set:
  @DF-RHF Final Energy:  -426.16117556254551
    Total Energy =                       -426.1611755625456226
  Basis Set: 6-31G*
  Basis Set:
  Basis Set: 6-31G*
  Basis Set:
  @DF-RHF Final Energy:  -426.16198766026514
    Total Energy =                       -426.1619876602650265
  Basis Set: 6-31G*
  Basis Set:
  Basis Set: 6-31G*
  Basis Set:
  @DF-RHF Final Energy:  -426.16301355711391
    Total Energy =                       -426.1630135571135725
  Basis Set: 6-31G*
  Basis Set:
  @DF-RHF Final Energy:  -426.16362096643377
    Total Energy =                       -426.1636209664338821
  @DF-RHF Final Energy:  -426.16398567385636
    Total Energy =                       -426.1639856738563594
  @DF-RHF Final Energy:  -426.16422912589985
    Total Energy =                       -426.1642291258999649
  @DF-RHF Final Energy:  -426.16456513630771
    Total Energy =                       -426.1645651363070328
  @DF-RHF Final Energy:  -426.16459535542901
    Total Energy =                       -426.1645953554286734
  Basis Set: 6-31G*
  Basis Set:
  @DF-RHF Final Energy:  -426.16453736023766
    Total Energy =                       -426.1645373602375457
  Basis Set: 6-31G*
  Basis Set:
  Basis Set: 6-31G*
  Basis Set:
  @DF-RHF Final Energy:  -426.16462595071164
    Total Energy =                       -426.1646259507115246
  Basis Set: 6-31G*
  Basis Set:
  Basis Set: 6-31G*
  Basis Set:
  @DF-RHF Final Energy:  -426.16464377660623
    Total Energy =                       -426.1646437766065674
  Basis Set: 6-31G*
  Basis Set:
  Charge       = 0
  Multiplicity = 1
  Basis Set: 6-31G*
  Basis Set:

    Orbital Energies (a.u.)
    -----------------------

    Doubly Occupied:

       1A    -20.546777     2A    -11.321769     3A    -11.232308
       4A    -11.230121     5A    -11.228594     6A    -11.225968
       7A    -11.217105     8A    -11.216301     9A    -11.216203
      10A    -11.206212    11A     -1.392347    12A     -1.095075
      13A     -1.076761    14A     -1.021065    15A     -0.988602
      16A     -0.912467    17A     -0.881137    18A     -0.808699
      19A     -0.790710    20A     -0.722001    21A     -0.667677
      22A     -0.648938    23A     -0.638762    24A     -0.624670
      25A     -0.601360    26A     -0.593838    27A     -0.579150
      28A     -0.554856    29A     -0.550679    30A     -0.537323
      31A     -0.521086    32A     -0.509869    33A     -0.506471
      34A     -0.484503    35A     -0.477915    36A     -0.474474
      37A     -0.470668    38A     -0.459262    39A     -0.453998
      40A     -0.391741

  @DF-RHF Final Energy:  -426.16464447202088

   => Energetics <=

    Nuclear Repulsion Energy =            541.8044292512086031
    One-Electron Energy =               -1651.7832299221354333
    Two-Electron Energy =                 683.8141561989059483
    DFT Exchange-Correlation Energy =       0.0000000000000000
    Empirical Dispersion Energy =           0.0000000000000000
    PCM Polarization Energy =               0.0000000000000000
    EFP Energy =                            0.0000000000000000
    Total Energy =                       -426.1646444720208819
    Molecular point group: c1
  Basis Set: 6-31G*
  Basis Set:

  -Total Gradient:
     Atom            X                  Y                   Z
    ------   -----------------  -----------------  -----------------
       1       -0.000009026796     0.000023428239     0.000022463663
       2       -0.000402920056     0.002828556971    -0.001488815528
       3       -0.000321750157    -0.004147215444     0.002719618973
       4       -0.000000987420    -0.000004408705     0.000007299573
       5       -0.000023362240     0.000018073977     0.000008097728
       6        0.004294732296     0.001396732635    -0.003666622984
       7        0.000024638533     0.000008620455     0.000002722065
       8        0.000008879094     0.000001461982    -0.000012340265
       9        0.000025496513    -0.000029269220    -0.000012617526
      10       -0.003634310574    -0.000092844224     0.002406681653
      11       -0.000002615563    -0.000004722623     0.000067323689
      12       -0.000018878300    -0.000043190328     0.000006084702
      13        0.000032737665     0.000014358898    -0.000005120443
      14       -0.000021222157     0.000018075615     0.000012549706
      15       -0.000051135292    -0.000055394935    -0.000093200682
      16        0.000034016354     0.000041992963    -0.000026652219
      17        0.000018907805     0.000007817662     0.000044256608
      18        0.000015895579    -0.000000348192    -0.000012877144
      19        0.000018705998     0.000012761922     0.000003901600
      20        0.000015516984     0.000015820202     0.000015570590
      21       -0.000003954616    -0.000000035850    -0.000009020249
      22        0.000002052269    -0.000004849441     0.000011959627
      23       -0.000000481322    -0.000011464502    -0.000000301664
      24        0.000001037621     0.000006037345     0.000006858807
      25       -0.000002411527     0.000003550255    -0.000003974167
      26       -0.000004420566    -0.000000130221    -0.000002188772
      27        0.000003752089     0.000000043446     0.000000071677
      28        0.000001107785    -0.000003458877    -0.000001729018

  **** Optimization is complete! (in 13 steps) ****
    Final optimized geometry and variables:
    Molecular point group: c1

    Geometry (in Angstrom), charge = 0, multiplicity = 1:

    H            1.239043986776     0.923680928860     4.158507657706
    C            0.811349793238     0.445938013577     3.282302612109
    C           -0.704696121646     0.315071697307     3.438084567176
    H            1.075795230540     1.058336378989     2.424963211267
    H            1.287393555804    -0.520272740134     3.160076600141
    C           -1.449439508082    -0.384081301507     2.288002646416
    H           -1.119007821136     1.314335412247     3.560751428682
    H           -0.926960154245    -0.216868848289     4.358733274714
    C           -1.059938449328     0.051535727767     0.873256897175
    H           -1.355293318921    -1.459610180040     2.378655592124
    H           -2.508173897489    -0.174584783106     2.419811013771
    C            0.160839991498    -0.650612902113     0.294978245163
    H           -1.878306528022    -0.178257335809     0.192606572890
    H           -0.926657949038     1.128900477340     0.815852649714
    C            0.882739577426     0.032082428553    -0.853410156152
    O            0.519388950839    -1.716068773011     0.697515901557
    C            0.021945680587     0.171654150634    -2.118052990105
    H            1.767948573063    -0.554795191303    -1.066933887700
    H            1.205546144257     1.018747835215    -0.526819635840
    C            0.798575881554     0.784256692530    -3.285145745340
    H           -0.349075589295    -0.808969863131    -2.408067143968
    H           -0.850622817577     0.785718714814    -1.910067630284
    C           -0.046117207697     0.923183092534    -4.550898880748
    H            1.670394307610     0.170210134764    -3.497093092690
    H            1.175789087104     1.761642616626    -2.992183929815
    H           -0.411173572520    -0.043128093356    -4.886573368407
    H           -0.908492621200     1.561275735347    -4.379864000428
    H            0.531177143345     1.357933282413    -5.360625374051

  Mulliken Charges: (a.u.)
   Center  Symbol    Alpha    Beta     Spin     Total
       1     H     0.41938  0.41938  0.00000  0.16123
       2     C     3.24734  3.24734  0.00000 -0.49468
       3     C     3.15069  3.15069  0.00000 -0.30139
       4     H     0.42887  0.42887  0.00000  0.14226
       5     H     0.40682  0.40682  0.00000  0.18637
       6     C     3.15493  3.15493  0.00000 -0.30986
       7     H     0.42565  0.42565  0.00000  0.14870
       8     H     0.41827  0.41827  0.00000  0.16347
       9     C     3.21351  3.21351  0.00000 -0.42701
      10     H     0.40197  0.40197  0.00000  0.19605
      11     H     0.42060  0.42060  0.00000  0.15880
      12     C     2.72871  2.72871  0.00000  0.54259
      13     H     0.40212  0.40212  0.00000  0.19575
      14     H     0.41252  0.41252  0.00000  0.17495
      15     C     3.20166  3.20166  0.00000 -0.40332
      16     O     4.26834  4.26834  0.00000 -0.53668
      17     C     3.16416  3.16416  0.00000 -0.32832
      18     H     0.39981  0.39981  0.00000  0.20038
      19     H     0.41314  0.41314  0.00000  0.17371
      20     C     3.15175  3.15175  0.00000 -0.30351
      21     H     0.41331  0.41331  0.00000  0.17339
      22     H     0.41857  0.41857  0.00000  0.16286
      23     C     3.24034  3.24034  0.00000 -0.48067
      24     H     0.41837  0.41837  0.00000  0.16326
      25     H     0.42148  0.42148  0.00000  0.15703
      26     H     0.41955  0.41955  0.00000  0.16089
      27     H     0.42122  0.42122  0.00000  0.15756
      28     H     0.41691  0.41691  0.00000  0.16619

   Total alpha = 40.00000, Total beta = 40.00000, Total charge =  0.00000
