                              Psi4 1.0.54 Driver

  ==> Input File <==

--------------------------------------------------------------------------
set {
	reference rhf
	basis cc-pvtz
}

set_num_threads( 4 )
memory 2 gb

molecule MOL {
0 1

O	 2.628362	 1.724879	 -0.470274
C	 2.104782	 1.305852	 -1.450269
C	 0.831302	 0.486278	 -1.401483
C	 2.680784	 1.565778	 -2.823908
C	 0.288398	 0.247429	 0.000314
H	 0.092899	 0.991661	 -2.019882
H	 1.030053	 -0.457710	 -1.903869
C	 -0.993089	 -0.581367	 -0.000217
H	 0.108977	 1.203029	 0.479637
H	 1.047062	 -0.247525	 0.595783
C	 -2.258482	 0.271340	 0.000669
H	 -1.002280	 -1.233920	 -0.870484
H	 -1.002061	 -1.235367	 0.868958
C	 -3.544441	 -0.550271	 -0.000253
H	 -2.250545	 0.925250	 -0.867923
H	 -2.250598	 0.923423	 0.870642
C	 -4.804551	 0.308747	 0.000556
H	 -3.553737	 -1.201524	 -0.870151
H	 -3.553831	 -1.203282	 0.868313
H	 -4.842050	 0.949078	 -0.874436
H	 -5.698404	 -0.304480	 -0.000254
H	 -4.842277	 0.947103	 0.876982
H	 1.957837	 2.089341	 -3.439763
H	 3.580163	 2.155826	 -2.738159
H	 2.905660	 0.627323	 -3.318655

	symmetry c1
}
set optking {
	frozen_dihedral = ("
		9 5 8 12
	")
}

ee,wfn = optimize('scf', return_wfn=True)
oeprop( wfn, 'DIPOLE', 'QUADRUPOLE', 'MULLIKEN_CHARGES')
f=open( 'psi4out.xyz', 'w' )
f.write( "25  " )
f.write( str(ee) + "\n" )
f.write( MOL.save_string_xyz() )
f.close()
--------------------------------------------------------------------------

    Molecular point group: c1
  Charge       = 0
  Multiplicity = 1
  Basis Set: CC-PVTZ
  Basis Set:
  @DF-RHF Final Energy:  -387.27072497454054
    Total Energy =                       -387.2707249745404852
    Molecular point group: c1
  Basis Set: CC-PVTZ
  Basis Set:
  Basis Set: CC-PVTZ
  Basis Set:
  @DF-RHF Final Energy:  -387.27094977110045
    Total Energy =                       -387.2709497711002768
  Basis Set: CC-PVTZ
  Basis Set:
  Basis Set: CC-PVTZ
  Basis Set:
  @DF-RHF Final Energy:  -387.27085506728548
    Total Energy =                       -387.2708550672855381
  Basis Set: CC-PVTZ
  Basis Set:
  Basis Set: CC-PVTZ
  Basis Set:
  @DF-RHF Final Energy:  -387.27103156704800
    Total Energy =                       -387.2710315670479986
  Basis Set: CC-PVTZ
  Basis Set:
  Charge       = 0
  Multiplicity = 1
  Basis Set: CC-PVTZ
  Basis Set:

    Orbital Energies (a.u.)
    -----------------------

    Doubly Occupied:

       1A    -20.538883     2A    -11.320362     3A    -11.230195
       4A    -11.226576     5A    -11.215304     6A    -11.214806
       7A    -11.214692     8A    -11.213494     9A    -11.207978
      10A     -1.398839    11A     -1.095369    12A     -1.057270
      13A     -1.015230    14A     -0.969417    15A     -0.894511
      16A     -0.816326    17A     -0.790541    18A     -0.733226
      19A     -0.661189    20A     -0.646470    21A     -0.642602
      22A     -0.623360    23A     -0.599226    24A     -0.576940
      25A     -0.571834    26A     -0.567187    27A     -0.542064
      28A     -0.525204    29A     -0.518228    30A     -0.495213
      31A     -0.487168    32A     -0.479083    33A     -0.464649
      34A     -0.461065    35A     -0.447167    36A     -0.402064

  @DF-RHF Final Energy:  -387.27103243804930

   => Energetics <=

    Nuclear Repulsion Energy =            443.9234529045829163
    One-Electron Energy =               -1404.6615085673911381
    Two-Electron Energy =                 573.4670232247584636
    DFT Exchange-Correlation Energy =       0.0000000000000000
    Empirical Dispersion Energy =           0.0000000000000000
    PCM Polarization Energy =               0.0000000000000000
    EFP Energy =                            0.0000000000000000
    Total Energy =                       -387.2710324380497013
    Molecular point group: c1
  Basis Set: CC-PVTZ
  Basis Set:

  -Total Gradient:
     Atom            X                  Y                   Z
    ------   -----------------  -----------------  -----------------
       1        0.000011527093     0.000017348656     0.000046806558
       2        0.000003532898    -0.000024758485    -0.000039324327
       3       -0.000025039313     0.000022034855     0.000041542740
       4        0.000009005166    -0.000014121708    -0.000007338912
       5        0.000662172570    -0.000975110202     0.003066081857
       6       -0.000003063412    -0.000013598634    -0.000007275716
       7        0.000009753971    -0.000002542671    -0.000014235872
       8        0.001578068651    -0.002519804284     0.001418590286
       9       -0.000826978627     0.001253951412    -0.002819639336
      10       -0.000017174472    -0.000007008023     0.000002758614
      11        0.000059974408    -0.000006611495     0.000032210995
      12       -0.001436014365     0.002267167099    -0.001704761867
      13       -0.000005112357     0.000016006383    -0.000012165058
      14        0.000002342740    -0.000012683136     0.000018892895
      15        0.000004895694     0.000004078117     0.000016905591
      16        0.000004145954    -0.000000354611    -0.000004861643
      17       -0.000005428545    -0.000005123329    -0.000029063981
      18       -0.000010975244    -0.000005418829     0.000014083081
      19       -0.000005173289     0.000007397956    -0.000005237289
      20       -0.000003545162    -0.000000183443     0.000009859267
      21        0.000003097302     0.000013121597    -0.000007657137
      22        0.000006117899    -0.000016592213    -0.000009177527
      23        0.000004433878     0.000005933661     0.000000211729
      24       -0.000015878530    -0.000009235408     0.000007642209
      25       -0.000004684908     0.000006106739    -0.000014847160

  **** Optimization is complete! (in 5 steps) ****
    Final optimized geometry and variables:
    Molecular point group: c1

    Geometry (in Angstrom), charge = 0, multiplicity = 1:

    O            2.955379584673     1.212866898690     0.190045851974
    C            2.433849677580     0.765319945681    -0.778431396370
    C            1.183657026213    -0.087728405409    -0.705256824704
    C            2.990023702473     1.019751402687    -2.161415526421
    C            0.669163665120    -0.333557993841     0.709046916474
    H            0.424911373761     0.393983651759    -1.317553055257
    H            1.400932951568    -1.029569277305    -1.203499833218
    C           -0.637548529945    -1.141020628890     0.732013481772
    H            0.515632217353     0.628954672737     1.181626296219
    H            1.439851478979    -0.838198274415     1.276798588411
    C           -1.891387130398    -0.266513811861     0.717104489246
    H           -0.675458330157    -1.802057999158    -0.130211239856
    H           -0.662673141124    -1.773625442832     1.612722552116
    C           -3.189157585356    -1.067709560767     0.671848291000
    H           -1.858812063920     0.405542909641    -0.137732882417
    H           -1.892178166253     0.368030770239     1.599616236984
    C           -4.436630871585    -0.190398014792     0.671701797572
    H           -3.192238891530    -1.697510728529    -0.213767770321
    H           -3.223389351723    -1.741758361381     1.523469775133
    H           -4.448761189353     0.473027071724    -0.186814495237
    H           -5.338995959045    -0.790009359395     0.638163039450
    H           -4.481894235480     0.425387330556     1.563707085939
    H            2.246960563972     1.512694190621    -2.778605184338
    H            3.872795603826     1.636602414910    -2.093269461061
    H            3.237509167277     0.080417662507    -2.643509699661

  Mulliken Charges: (a.u.)
   Center  Symbol    Alpha    Beta     Spin     Total
       1     O     4.17093  4.17093  0.00000 -0.34185
       2     C     2.86246  2.86246  0.00000  0.27509
       3     C     3.10990  3.10990  0.00000 -0.21979
       4     C     3.15082  3.15082  0.00000 -0.30165
       5     C     3.09409  3.09409  0.00000 -0.18818
       6     H     0.44598  0.44598  0.00000  0.10803
       7     H     0.44473  0.44473  0.00000  0.11054
       8     C     3.10081  3.10081  0.00000 -0.20163
       9     H     0.44598  0.44598  0.00000  0.10803
      10     H     0.43979  0.43979  0.00000  0.12043
      11     C     3.08507  3.08507  0.00000 -0.17013
      12     H     0.45734  0.45734  0.00000  0.08531
      13     H     0.44427  0.44427  0.00000  0.11145
      14     C     3.08536  3.08536  0.00000 -0.17071
      15     H     0.45712  0.45712  0.00000  0.08575
      16     H     0.45218  0.45218  0.00000  0.09563
      17     C     3.14966  3.14966  0.00000 -0.29932
      18     H     0.45488  0.45488  0.00000  0.09023
      19     H     0.45387  0.45387  0.00000  0.09226
      20     H     0.45579  0.45579  0.00000  0.08841
      21     H     0.44826  0.44826  0.00000  0.10349
      22     H     0.45440  0.45440  0.00000  0.09119
      23     H     0.45061  0.45061  0.00000  0.09878
      24     H     0.43537  0.43537  0.00000  0.12925
      25     H     0.45031  0.45031  0.00000  0.09938

   Total alpha = 36.00000, Total beta = 36.00000, Total charge = -0.00000

*** Psi4 exiting successfully. Buy a developer a beer!
