                              Psi4 1.0.54 Driver

  ==> Input File <==

--------------------------------------------------------------------------
set {
	reference rhf
	basis cc-pvtz
}

set_num_threads( 4 )
memory 2 gb

molecule MOL {
0 1

O	 3.100316	 0.967217	 0.837164
C	 2.841259	 0.166180	 -0.000295
C	 1.542794	 -0.614730	 -0.000853
C	 3.799960	 -0.129166	 -1.131616
C	 0.288398	 0.247429	 0.000314
H	 1.557171	 -1.273139	 -0.866508
H	 1.557484	 -1.274998	 0.863344
C	 -0.993089	 -0.581367	 -0.000217
H	 0.305153	 0.900562	 -0.864701
H	 0.305567	 0.898805	 0.866656
C	 -2.258482	 0.271340	 0.000669
H	 -1.002280	 -1.233920	 -0.870484
H	 -1.002061	 -1.235367	 0.868958
C	 -3.544441	 -0.550271	 -0.000253
H	 -2.250545	 0.925250	 -0.867923
H	 -2.250598	 0.923423	 0.870642
C	 -4.804551	 0.308747	 0.000556
H	 -3.553737	 -1.201524	 -0.870151
H	 -3.553831	 -1.203282	 0.868313
H	 -4.842050	 0.949078	 -0.874436
H	 -5.698404	 -0.304480	 -0.000254
H	 -4.842277	 0.947103	 0.876982
H	 3.325107	 0.070085	 -2.086006
H	 4.684067	 0.481285	 -1.031135
H	 4.077251	 -1.177532	 -1.122542

	symmetry c1
}
set optking {
	frozen_dihedral = ("
		1 2 3 6
	")
}

ee,wfn = optimize('scf', return_wfn=True)
oeprop( wfn, 'DIPOLE', 'QUADRUPOLE', 'MULLIKEN_CHARGES')
f=open( 'psi4out.xyz', 'w' )
f.write( "25  " )
f.write( str(ee) + "\n" )
f.write( MOL.save_string_xyz() )
f.close()
--------------------------------------------------------------------------

    Molecular point group: c1
  Charge       = 0
  Multiplicity = 1
  Basis Set: CC-PVTZ
  Basis Set:
  @DF-RHF Final Energy:  -387.27219902549416
    Total Energy =                       -387.2721990254937054
    Molecular point group: c1
  Basis Set: CC-PVTZ
  Basis Set:
  Basis Set: CC-PVTZ
  Basis Set:
  @DF-RHF Final Energy:  -387.27265844415962
    Total Energy =                       -387.2726584441593332
  Basis Set: CC-PVTZ
  Basis Set:
  Basis Set: CC-PVTZ
  Basis Set:
  @DF-RHF Final Energy:  -387.27148965145437
    Total Energy =                       -387.2714896514540897
  Basis Set: CC-PVTZ
  Basis Set:
  Basis Set: CC-PVTZ
  Basis Set:
  @DF-RHF Final Energy:  -387.27289240737275
    Total Energy =                       -387.2728924073729786
  Basis Set: CC-PVTZ
  Basis Set:
  Basis Set: CC-PVTZ
  Basis Set:
  @DF-RHF Final Energy:  -387.27290189209731
    Total Energy =                       -387.2729018920972521
  Basis Set: CC-PVTZ
  Basis Set:
  Charge       = 0
  Multiplicity = 1
  Basis Set: CC-PVTZ
  Basis Set:

    Orbital Energies (a.u.)
    -----------------------

    Doubly Occupied:

       1A    -20.536853     2A    -11.320124     3A    -11.228223
       4A    -11.227353     5A    -11.222012     6A    -11.217227
       7A    -11.214999     8A    -11.213668     9A    -11.207664
      10A     -1.397541    11A     -1.097278    12A     -1.058229
      13A     -1.015055    14A     -0.971326    15A     -0.892717
      16A     -0.816081    17A     -0.793562    18A     -0.732663
      19A     -0.666605    20A     -0.650574    21A     -0.637919
      22A     -0.615358    23A     -0.602100    24A     -0.586781
      25A     -0.569623    26A     -0.560248    27A     -0.541627
      28A     -0.536173    29A     -0.511587    30A     -0.495363
      31A     -0.490097    32A     -0.474511    33A     -0.465868
      34A     -0.465219    35A     -0.453298    36A     -0.398515

  @DF-RHF Final Energy:  -387.27290236819204

   => Energetics <=

    Nuclear Repulsion Energy =            439.3470463102714803
    One-Electron Energy =               -1395.4718096434244217
    Two-Electron Energy =                 568.8518609649603377
    DFT Exchange-Correlation Energy =       0.0000000000000000
    Empirical Dispersion Energy =           0.0000000000000000
    PCM Polarization Energy =               0.0000000000000000
    EFP Energy =                            0.0000000000000000
    Total Energy =                       -387.2729023681926037
    Molecular point group: c1
  Basis Set: CC-PVTZ
  Basis Set:

  -Total Gradient:
     Atom            X                  Y                   Z
    ------   -----------------  -----------------  -----------------
       1        0.000235847665    -0.000353405417     0.000262671948
       2       -0.000248529829     0.000416598980    -0.000304725695
       3       -0.000226504256     0.000337602856    -0.000245601866
       4        0.000018881000    -0.000038271588     0.000028317902
       5        0.000025795660    -0.000002408875    -0.000026583586
       6        0.000208677827    -0.000369454116     0.000293732436
       7        0.000021168227    -0.000018365495    -0.000003888453
       8       -0.000012582666    -0.000013330502    -0.000002471051
       9        0.000002760091     0.000008486493    -0.000006457477
      10        0.000003324180    -0.000003780294    -0.000010693488
      11        0.000006380191    -0.000002361474     0.000014136530
      12       -0.000000404907     0.000006710266    -0.000003813222
      13       -0.000002144667    -0.000010206839    -0.000002533967
      14        0.000001558584    -0.000001261381     0.000004812093
      15        0.000002783687    -0.000006636730     0.000000899659
      16       -0.000004105476     0.000009499973     0.000001741127
      17       -0.000004388719     0.000000114230     0.000002011131
      18        0.000000506725    -0.000000125580    -0.000001978885
      19       -0.000002126870     0.000000061819    -0.000000921334
      20        0.000000332120    -0.000001003350     0.000000188751
      21       -0.000001452018     0.000000293612     0.000000179355
      22        0.000000005000     0.000001189044     0.000000329382
      23       -0.000011386158     0.000013028319    -0.000001668239
      24        0.000000601060     0.000011352102     0.000001934660
      25       -0.000014996452     0.000015673947     0.000000382290

  **** Optimization is complete! (in 6 steps) ****
    Final optimized geometry and variables:
    Molecular point group: c1

    Geometry (in Angstrom), charge = 0, multiplicity = 1:

    O            3.046127952439     0.895094006246     0.885728724219
    C            2.841245448584     0.111381369197     0.016964203536
    C            1.553555822622    -0.693700908808    -0.021051396143
    C            3.846252571236    -0.134517837562    -1.081059513448
    C            0.311426353495     0.198775547180    -0.012933814039
    H            1.544604518788    -1.353025251952    -0.881555796953
    H            1.555069950723    -1.323074127261     0.863919178087
    C           -0.988400355987    -0.599128230800     0.024893354645
    H            0.319313361279     0.833823339527    -0.895313055019
    H            0.366465792009     0.859642658434     0.843047945320
    C           -2.233419062584     0.283076294012     0.031676492934
    H           -1.028158424054    -1.269267309407    -0.830725602307
    H           -0.992503116231    -1.232844516978     0.908370451840
    C           -3.537157971286    -0.508743116289     0.077805719258
    H           -2.230344837404     0.915819261603    -0.852770309716
    H           -2.191744315320     0.954922384615     0.885371041337
    C           -4.777296340067     0.378784077909     0.084239619654
    H           -3.579762135316    -1.180344378360    -0.775469861318
    H           -3.542103748513    -1.140092466807     0.962130077719
    H           -4.819869439496     0.998296141903    -0.805452164827
    H           -5.684333113543    -0.213748263262     0.117842485688
    H           -4.781443717079     1.038865136831     0.945202741964
    H            3.395772704865     0.077621497790    -2.045317475001
    H            4.716692702547     0.486921236403    -0.937342641073
    H            4.135601127654    -1.180257046259    -1.087451566146

  Mulliken Charges: (a.u.)
   Center  Symbol    Alpha    Beta     Spin     Total
       1     O     4.17653  4.17653  0.00000 -0.35305
       2     C     2.85849  2.85849  0.00000  0.28302
       3     C     3.10386  3.10386  0.00000 -0.20771
       4     C     3.15323  3.15323  0.00000 -0.30646
       5     C     3.09414  3.09414  0.00000 -0.18829
       6     H     0.44754  0.44754  0.00000  0.10493
       7     H     0.44275  0.44275  0.00000  0.11450
       8     C     3.09031  3.09031  0.00000 -0.18063
       9     H     0.45388  0.45388  0.00000  0.09224
      10     H     0.43812  0.43812  0.00000  0.12377
      11     C     3.08667  3.08667  0.00000 -0.17334
      12     H     0.45512  0.45512  0.00000  0.08975
      13     H     0.45329  0.45329  0.00000  0.09343
      14     C     3.08445  3.08445  0.00000 -0.16890
      15     H     0.45495  0.45495  0.00000  0.09010
      16     H     0.45275  0.45275  0.00000  0.09451
      17     C     3.15035  3.15035  0.00000 -0.30070
      18     H     0.45516  0.45516  0.00000  0.08969
      19     H     0.45433  0.45433  0.00000  0.09134
      20     H     0.45519  0.45519  0.00000  0.08963
      21     H     0.44837  0.44837  0.00000  0.10326
      22     H     0.45442  0.45442  0.00000  0.09116
      23     H     0.45048  0.45048  0.00000  0.09903
      24     H     0.43641  0.43641  0.00000  0.12718
      25     H     0.44922  0.44922  0.00000  0.10155

   Total alpha = 36.00000, Total beta = 36.00000, Total charge =  0.00000

*** Psi4 exiting successfully. Buy a developer a beer!
