  ==> Input File <==

--------------------------------------------------------------------------
set {
	reference rhf
	basis 6-31G*
}

set_num_threads( 4 )
memory 2 gb

molecule MOL {
0 1

O	 -1.487788	 1.240889	 -0.102860
C	 -1.083277	 0.139568	 0.115197
C	 0.323299	 -0.082943	 0.642902
C	 -1.933017	 -1.084621	 -0.143902
C	 1.355627	 -0.005344	 -0.493127
H	 0.396251	 -1.044647	 1.143147
H	 0.528637	 0.693580	 1.371677
C	 2.789514	 0.066718	 0.028431
H	 1.251497	 -0.870971	 -1.143603
H	 1.137729	 0.868016	 -1.098852
H	 3.498012	 0.126696	 -0.791401
H	 3.038735	 -0.810289	 0.618831
H	 2.933119	 0.941159	 0.655949
H	 -1.393885	 -1.806447	 -0.750509
H	 -2.850323	 -0.799888	 -0.640100
H	 -2.169004	 -1.571158	 0.798858

	symmetry c1
}
set optking {
	frozen_dihedral = ("
		9 5 3 2
	")
}

ee = optimize('scf')
oeprop('DIPOLE', 'QUADRUPOLE', 'MULLIKEN_CHARGES')
f=open( 'psi4out.xyz', 'w' )
f.write( "16  " )
f.write( str(ee) + "\n" )
f.write( MOL.save_string_xyz() )
f.close()
--------------------------------------------------------------------------

    Molecular point group: c1
  Charge       = 0
  Multiplicity = 1
  Basis Set: 6-31G*
  Basis Set:
  @DF-RHF Final Energy:  -270.02990422568769
    Total Energy =                       -270.0299042256876305
    Molecular point group: c1
  Basis Set: 6-31G*
  Basis Set:
  Basis Set: 6-31G*
  Basis Set:
  @DF-RHF Final Energy:  -270.02995285944223
    Total Energy =                       -270.0299528594423464
  Basis Set: 6-31G*
  Basis Set:
  Basis Set: 6-31G*
  Basis Set:
  @DF-RHF Final Energy:  -270.02994303249420
    Total Energy =                       -270.0299430324940886
  Basis Set: 6-31G*
  Basis Set:
  Basis Set: 6-31G*
  Basis Set:
  @DF-RHF Final Energy:  -270.02996776818588
    Total Energy =                       -270.0299677681859976
  Basis Set: 6-31G*
  Basis Set:
  Basis Set: 6-31G*
  Basis Set:
  @DF-RHF Final Energy:  -270.02997520637734
    Total Energy =                       -270.0299752063773440
  Basis Set: 6-31G*
  Basis Set:
  Basis Set: 6-31G*
  Basis Set:
  @DF-RHF Final Energy:  -270.02997643657250
    Total Energy =                       -270.0299764365725537
  Basis Set: 6-31G*
  Basis Set:
  Charge       = 0
  Multiplicity = 1
  Basis Set: 6-31G*
  Basis Set:

    Orbital Energies (a.u.)
    -----------------------

    Doubly Occupied:

       1A    -20.547980     2A    -11.325142     3A    -11.232585
       4A    -11.229843     5A    -11.228593     6A    -11.218591
       7A     -1.393884     8A     -1.081519     9A     -1.013289
      10A     -0.948974    11A     -0.828403    12A     -0.735016
      13A     -0.660666    14A     -0.646802    15A     -0.611040
      16A     -0.608242    17A     -0.574820    18A     -0.557723
      19A     -0.541177    20A     -0.515174    21A     -0.501415
      22A     -0.484446    23A     -0.470931    24A     -0.398252

  @DF-RHF Final Energy:  -270.02997674621122

   => Energetics <=

    Nuclear Repulsion Energy =            236.9636430499237179
    One-Electron Energy =                -835.2782220043351344
    Two-Electron Energy =                 328.2846022082001127
    DFT Exchange-Correlation Energy =       0.0000000000000000
    Empirical Dispersion Energy =           0.0000000000000000
    PCM Polarization Energy =               0.0000000000000000
    EFP Energy =                            0.0000000000000000
    Total Energy =                       -270.0299767462113323
    Molecular point group: c1
  Basis Set: 6-31G*
  Basis Set:

  -Total Gradient:
     Atom            X                  Y                   Z
    ------   -----------------  -----------------  -----------------
       1       -0.000017054346     0.000000097618    -0.000003815662
       2        0.000150116782     0.001563181098     0.000319893592
       3        0.000142521369    -0.002358206029    -0.000043408706
       4        0.000032946201    -0.000015709419    -0.000054087676
       5       -0.001727889315     0.001887616092    -0.001422902967
       6       -0.000000151554    -0.000007036084     0.000007471684
       7       -0.000008857249    -0.000000826613    -0.000024875390
       8        0.000005373107    -0.000000905684    -0.000002105348
       9        0.001437280314    -0.001088212066     0.001219806166
      10        0.000015913843     0.000016635211    -0.000008688232
      11       -0.000001355504    -0.000002407363    -0.000000211429
      12       -0.000005929173     0.000000337032    -0.000000491080
      13       -0.000004478600    -0.000000703469    -0.000004455607
      14       -0.000012191250    -0.000005778739     0.000008433657
      15       -0.000001529642     0.000000316490     0.000002252244
      16       -0.000004714985     0.000011601921     0.000007184755

  **** Optimization is complete! (in 7 steps) ****
    Final optimized geometry and variables:
    Molecular point group: c1

    Geometry (in Angstrom), charge = 0, multiplicity = 1:

    O           -1.490383334245     1.189932831536    -0.114609367629
    C           -1.086051082666     0.089784742529     0.109303320052
    C            0.323536528537    -0.126849828160     0.632982098388
    C           -1.937703449620    -1.135424460560    -0.137278141128
    C            1.359211599141    -0.033972924717    -0.500121290834
    H            0.409102226705    -1.084980827758     1.137196978637
    H            0.516703284735     0.655255569790     1.359462442383
    C            2.791054583689     0.016535060564     0.032309322467
    H            1.260817073589    -0.895909316054    -1.155895920126
    H            1.155691192986     0.851027798640    -1.093156786931
    H            3.506449596622     0.062106839021    -0.782504660585
    H            3.021468805372    -0.863013376905     0.626745313884
    H            2.943964177298     0.890203419524     0.658436927712
    H           -1.405170517223    -1.854597622862    -0.753051324877
    H           -2.862844091321    -0.852598030715    -0.619853262177
    H           -2.158191941168    -1.624330181110     0.807993086494

  Mulliken Charges: (a.u.)
   Center  Symbol    Alpha    Beta     Spin     Total
       1     O     4.26192  4.26192  0.00000 -0.52384
       2     C     2.73815  2.73815  0.00000  0.52369
       3     C     3.19927  3.19927  0.00000 -0.39853
       4     C     3.28936  3.28936  0.00000 -0.57872
       5     C     3.16145  3.16145  0.00000 -0.32290
       6     H     0.41639  0.41639  0.00000  0.16723
       7     H     0.40143  0.40143  0.00000  0.19714
       8     C     3.23987  3.23987  0.00000 -0.47973
       9     H     0.41999  0.41999  0.00000  0.16001
      10     H     0.40455  0.40455  0.00000  0.19091
      11     H     0.41579  0.41579  0.00000  0.16843
      12     H     0.42103  0.42103  0.00000  0.15794
      13     H     0.41719  0.41719  0.00000  0.16562
      14     H     0.40964  0.40964  0.00000  0.18072
      15     H     0.39703  0.39703  0.00000  0.20594
      16     H     0.40695  0.40695  0.00000  0.18610

   Total alpha = 24.00000, Total beta = 24.00000, Total charge = -0.00000
