                              Psi4 1.0.54 Driver

  ==> Input File <==

--------------------------------------------------------------------------
set {
	reference rhf
	basis cc-pvtz
}

set_num_threads( 4 )
memory 2 gb

molecule MOL {
0 1

O	 -0.988175	 -1.402891	 0.050086
C	 -0.675048	 -0.248293	 -0.009686
C	 -1.742492	 0.826599	 -0.011538
N	 0.622280	 0.144970	 -0.099307
H	 -1.692153	 1.431066	 -0.908439
H	 -2.698310	 0.331559	 0.031353
H	 -1.642148	 1.483784	 0.843455
C	 1.530789	 -0.624713	 -0.922804
C	 1.250362	 1.067839	 0.815887
H	 2.211111	 0.045605	 -1.433744
H	 0.972174	 -1.187256	 -1.648529
H	 2.118388	 -1.315380	 -0.323357
H	 2.004421	 1.636041	 0.286568
H	 0.542141	 1.768350	 1.224056
H	 1.739057	 0.553025	 1.640015

	symmetry c1
}
set optking {
	frozen_dihedral = ("
		8 4 2 3
	")
}

ee,wfn = optimize('scf', return_wfn=True)
oeprop( wfn, 'DIPOLE', 'QUADRUPOLE', 'MULLIKEN_CHARGES')
f=open( 'psi4out.xyz', 'w' )
f.write( "15  " )
f.write( str(ee) + "\n" )
f.write( MOL.save_string_xyz() )
f.close()
--------------------------------------------------------------------------

    Molecular point group: c1
  Charge       = 0
  Multiplicity = 1
  Basis Set: CC-PVTZ
  Basis Set:
  @DF-RHF Final Energy:  -286.11849704715854
    Total Energy =                       -286.1184970471584847
    Molecular point group: c1
  Basis Set: CC-PVTZ
  Basis Set:
  Basis Set: CC-PVTZ
  Basis Set:
  @DF-RHF Final Energy:  -286.12070364011913
    Total Energy =                       -286.1207036401191317
  Basis Set: CC-PVTZ
  Basis Set:
  Basis Set: CC-PVTZ
  Basis Set:
  @DF-RHF Final Energy:  -286.12227285577853
    Total Energy =                       -286.1222728557787036
  Basis Set: CC-PVTZ
  Basis Set:
  Basis Set: CC-PVTZ
  Basis Set:
  @DF-RHF Final Energy:  -286.12275498062661
    Total Energy =                       -286.1227549806264960
  Basis Set: CC-PVTZ
  Basis Set:
  @DF-RHF Final Energy:  -286.12331166167428
    Total Energy =                       -286.1233116616741086
  @DF-RHF Final Energy:  -286.12462779375778
    Total Energy =                       -286.1246277937575542
  @DF-RHF Final Energy:  -286.10031127135551
    Total Energy =                       -286.1003112713553378
  @DF-RHF Final Energy:  -286.12600312711072
    Total Energy =                       -286.1260031271105504
  @DF-RHF Final Energy:  -286.12715418376627
    Total Energy =                       -286.1271541837660379
  @DF-RHF Final Energy:  -286.12594952275083
    Total Energy =                       -286.1259495227507159
  @DF-RHF Final Energy:  -286.12858547162443
    Total Energy =                       -286.1285854716240351
  @DF-RHF Final Energy:  -286.12892728773909
    Total Energy =                       -286.1289272877395433
  @DF-RHF Final Energy:  -286.12919813494591
    Total Energy =                       -286.1291981349461935
  Basis Set: CC-PVTZ
  Basis Set:
  @DF-RHF Final Energy:  -286.12923286986950
    Total Energy =                       -286.1292328698694405
  Basis Set: CC-PVTZ
  Basis Set:
  Basis Set: CC-PVTZ
  Basis Set:
  @DF-RHF Final Energy:  -286.12924510610753
    Total Energy =                       -286.1292451061075326
  Basis Set: CC-PVTZ
  Basis Set:
  Basis Set: CC-PVTZ
  Basis Set:
  @DF-RHF Final Energy:  -286.12924898539927
    Total Energy =                       -286.1292489853991015
  Basis Set: CC-PVTZ
  Basis Set:
  Charge       = 0
  Multiplicity = 1
  Basis Set: CC-PVTZ
  Basis Set:

    Orbital Energies (a.u.)
    -----------------------

    Doubly Occupied:

       1A    -20.512083     2A    -15.574270     3A    -11.338063
       4A    -11.260811     5A    -11.249002     6A    -11.228907
       7A     -1.393555     8A     -1.244583     9A     -1.014664
      10A     -0.969772    11A     -0.918327    12A     -0.738300
      13A     -0.684230    14A     -0.661890    15A     -0.652545
      16A     -0.591467    17A     -0.577935    18A     -0.571867
      19A     -0.561202    20A     -0.551524    21A     -0.528677
      22A     -0.505833    23A     -0.418744    24A     -0.372595

  @DF-RHF Final Energy:  -286.12924995262438

   => Energetics <=

    Nuclear Repulsion Energy =            253.1749638637010094
    One-Electron Energy =                -890.3667331969896850
    Two-Electron Energy =                 351.0625193806643551
    DFT Exchange-Correlation Energy =       0.0000000000000000
    Empirical Dispersion Energy =           0.0000000000000000
    PCM Polarization Energy =               0.0000000000000000
    EFP Energy =                            0.0000000000000000
    Total Energy =                       -286.1292499526243205
    Molecular point group: c1
  Basis Set: CC-PVTZ
  Basis Set:

  -Total Gradient:
     Atom            X                  Y                   Z
    ------   -----------------  -----------------  -----------------
       1        0.000051747041    -0.000002016630     0.000019237254
       2       -0.003045416401     0.000413061744     0.008387519986
       3        0.001619223560     0.001436766498    -0.007118060058
       4        0.002062971841    -0.007540225237     0.003974536798
       5        0.000001889602     0.000006089350    -0.000013336626
       6       -0.000005123452    -0.000012747936    -0.000027284234
       7        0.000006551933     0.000023404046    -0.000019518920
       8       -0.000745835103     0.005613298935    -0.005268428072
       9       -0.000011642947    -0.000012357672     0.000098885522
      10        0.000034986516    -0.000006032746    -0.000007305746
      11        0.000010541893    -0.000007551694     0.000004408768
      12       -0.000012954816    -0.000001605880    -0.000009133606
      13        0.000010761159     0.000057385579    -0.000036399628
      14        0.000014686333     0.000018718055     0.000008342627
      15        0.000007612842     0.000013813586     0.000006535934

  **** Optimization is complete! (in 17 steps) ****
    Final optimized geometry and variables:
    Molecular point group: c1

    Geometry (in Angstrom), charge = 0, multiplicity = 1:

    O           -0.727734951938    -1.521392929758    -0.406145946504
    C           -0.615453875032    -0.383706789981    -0.063280700694
    C           -1.800570594493     0.555732675539    -0.147724165265
    N            0.600103036523     0.133580800162     0.317648904487
    H           -1.567760093252     1.388985644696    -0.799380289185
    H           -2.631041447013    -0.000690293628    -0.549518006963
    H           -2.079306283344     0.958230554662     0.817771952918
    C            1.772202316935    -0.361017552303    -0.382572389957
    C            0.723281041671     1.513390834689     0.733586929423
    H            1.965776722494     0.226178503657    -1.278092528833
    H            1.622631004973    -1.389285494644    -0.659898626243
    H            2.639436280426    -0.294885142531     0.261655973412
    H            0.749669471298     2.208387579301    -0.104516921265
    H           -0.081160856551     1.797566988932     1.392810400587
    H            1.647291826245     1.625709074342     1.284402611645

  Mulliken Charges: (a.u.)
   Center  Symbol    Alpha    Beta     Spin     Total
       1     O     4.20806  4.20806  0.00000 -0.41611
       2     C     2.84086  2.84086  0.00000  0.31827
       3     C     3.15996  3.15996  0.00000 -0.31992
       4     N     3.57416  3.57416  0.00000 -0.14832
       5     H     0.44966  0.44966  0.00000  0.10067
       6     H     0.42857  0.42857  0.00000  0.14286
       7     H     0.44698  0.44698  0.00000  0.10604
       8     C     3.09791  3.09791  0.00000 -0.19582
       9     C     3.10262  3.10262  0.00000 -0.20523
      10     H     0.46154  0.46154  0.00000  0.07691
      11     H     0.42782  0.42782  0.00000  0.14437
      12     H     0.45414  0.45414  0.00000  0.09173
      13     H     0.45881  0.45881  0.00000  0.08238
      14     H     0.44584  0.44584  0.00000  0.10832
      15     H     0.44307  0.44307  0.00000  0.11387

   Total alpha = 24.00000, Total beta = 24.00000, Total charge =  0.00000

*** Psi4 exiting successfully. Buy a developer a beer!
