                              Psi4 1.0.54 Driver

  ==> Input File <==

--------------------------------------------------------------------------
set {
	reference rhf
	basis cc-pvtz
}

set_num_threads( 4 )
memory 2 gb

molecule MOL {
0 1

H	 2.260901	 -1.912698	 0.097678
O	 2.824271	 -1.154299	 0.131461
C	 2.076458	 -0.067370	 -0.038225
C	 0.626018	 -0.337582	 0.258241
O	 2.538288	 0.965419	 -0.381593
C	 -0.267326	 0.883135	 0.076490
H	 0.325620	 -1.161483	 -0.378003
H	 0.574537	 -0.713685	 1.275261
C	 -1.726822	 0.642622	 0.463839
H	 -0.210803	 1.217591	 -0.953497
H	 0.129920	 1.693110	 0.675679
C	 -2.480891	 -0.340606	 -0.429852
H	 -2.243098	 1.597649	 0.438609
H	 -1.776542	 0.301208	 1.495542
C	 -3.955933	 -0.460128	 -0.060472
H	 -2.393755	 -0.020485	 -1.464726
H	 -2.024244	 -1.323637	 -0.374360
H	 -4.467673	 -1.160944	 -0.709827
H	 -4.458917	 0.497287	 -0.144505
H	 -4.076458	 -0.806900	 0.960497

	symmetry c1
}
set optking {
	frozen_dihedral = ("
		1 2 3 5
	")
}

ee,wfn = optimize('scf', return_wfn=True)
oeprop( wfn, 'DIPOLE', 'QUADRUPOLE', 'MULLIKEN_CHARGES')
f=open( 'psi4out.xyz', 'w' )
f.write( "20  " )
f.write( str(ee) + "\n" )
f.write( MOL.save_string_xyz() )
f.close()
--------------------------------------------------------------------------

    Molecular point group: c1
  Charge       = 0
  Multiplicity = 1
  Basis Set: CC-PVTZ
  Basis Set:
  @DF-RHF Final Energy:  -384.08293758278029
    Total Energy =                       -384.0829375827801186
    Molecular point group: c1
  Basis Set: CC-PVTZ
  Basis Set:
  Basis Set: CC-PVTZ
  Basis Set:
  @DF-RHF Final Energy:  -384.08407204997451
    Total Energy =                       -384.0840720499744521
  Basis Set: CC-PVTZ
  Basis Set:
  Basis Set: CC-PVTZ
  Basis Set:
  @DF-RHF Final Energy:  -384.08428179059257
    Total Energy =                       -384.0842817905928541
  Basis Set: CC-PVTZ
  Basis Set:
  Basis Set: CC-PVTZ
  Basis Set:
  @DF-RHF Final Energy:  -384.08406865526223
    Total Energy =                       -384.0840686552623993
  Basis Set: CC-PVTZ
  Basis Set:
  Basis Set: CC-PVTZ
  Basis Set:
  @DF-RHF Final Energy:  -384.08436777040106
    Total Energy =                       -384.0843677704007177
  Basis Set: CC-PVTZ
  Basis Set:
  Basis Set: CC-PVTZ
  Basis Set:
  @DF-RHF Final Energy:  -384.08436903992606
    Total Energy =                       -384.0843690399264005
  Basis Set: CC-PVTZ
  Basis Set:
  Charge       = 0
  Multiplicity = 1
  Basis Set: CC-PVTZ
  Basis Set:

    Orbital Energies (a.u.)
    -----------------------

    Doubly Occupied:

       1A    -20.602161     2A    -20.537383     3A    -11.372488
       4A    -11.249092     5A    -11.226231     6A    -11.223934
       7A    -11.223154     8A    -11.214766     9A     -1.470088
      10A     -1.373012    11A     -1.102291    12A     -1.045176
      13A     -0.961558    14A     -0.867273    15A     -0.832229
      16A     -0.793642    17A     -0.721834    18A     -0.671752
      19A     -0.662846    20A     -0.639233    21A     -0.611459
      22A     -0.599535    23A     -0.577936    24A     -0.564615
      25A     -0.542907    26A     -0.518496    27A     -0.500735
      28A     -0.484606    29A     -0.476057    30A     -0.471912
      31A     -0.463150    32A     -0.443036

  @DF-RHF Final Energy:  -384.08436899344844

   => Energetics <=

    Nuclear Repulsion Energy =            376.5575125284130422
    One-Electron Energy =               -1269.1945867332715352
    Two-Electron Energy =                 508.5527052114101139
    DFT Exchange-Correlation Energy =       0.0000000000000000
    Empirical Dispersion Energy =           0.0000000000000000
    PCM Polarization Energy =               0.0000000000000000
    EFP Energy =                            0.0000000000000000
    Total Energy =                       -384.0843689934483223
    Molecular point group: c1
  Basis Set: CC-PVTZ
  Basis Set:

  -Total Gradient:
     Atom            X                  Y                   Z
    ------   -----------------  -----------------  -----------------
       1        0.000610680512    -0.000429189778    -0.004471736375
       2       -0.001046844458     0.000019025040     0.004027695626
       3        0.000980224548     0.001638085756     0.004121217216
       4        0.000036723241    -0.000015864856     0.000008460851
       5       -0.000576863563    -0.001210470316    -0.003671579072
       6       -0.000011422718    -0.000000348313    -0.000023753185
       7        0.000018583379     0.000009936429    -0.000002363345
       8       -0.000003676598    -0.000006840143     0.000001949141
       9        0.000009691920    -0.000019380131     0.000014490728
      10        0.000001975029    -0.000007042536    -0.000004458578
      11       -0.000002626796     0.000011060585     0.000002881513
      12       -0.000006825440     0.000006007560    -0.000003465216
      13        0.000004051931     0.000004273137     0.000003089310
      14        0.000003890772    -0.000007342846     0.000006083418
      15        0.000000278995     0.000003316661    -0.000002013930
      16        0.000001747495    -0.000001418713    -0.000009975475
      17       -0.000015622786     0.000005635473     0.000004205588
      18       -0.000001574609    -0.000002377353    -0.000002126761
      19       -0.000003313110     0.000002903019    -0.000000903887
      20        0.000000922259     0.000000031326     0.000002302432

  **** Optimization is complete! (in 7 steps) ****
    Final optimized geometry and variables:
    Molecular point group: c1

    Geometry (in Angstrom), charge = 0, multiplicity = 1:

    H            2.427553599795    -1.921899442361     0.208321722503
    O            2.899250555033    -1.107589756398     0.195053215810
    C            2.089692193147    -0.063070219344    -0.015710323648
    C            0.629490633368    -0.321245692903     0.282001183429
    O            2.528493477164     0.955570401693    -0.405417948663
    C           -0.264933057270     0.885297305219     0.024624734157
    H            0.321220321846    -1.174321546270    -0.315788700855
    H            0.561606025902    -0.637048542421     1.319662083341
    C           -1.727527337303     0.667457289535     0.413568822428
    H           -0.197881097347     1.160014639262    -1.021872923736
    H            0.130471725921     1.726054999213     0.580138016102
    C           -2.477753359129    -0.361687284951    -0.430520861685
    H           -2.240933688567     1.620617839953     0.331501833429
    H           -1.786382888621     0.384381234090     1.462370334440
    C           -3.955534941164    -0.458727086437    -0.065248527916
    H           -2.382800171350    -0.098968485454    -1.480715294177
    H           -2.024174648784    -1.341760148826    -0.318376803104
    H           -4.463446967549    -1.195636110630    -0.676449772232
    H           -4.456517093003     0.492528858869    -0.208604226747
    H           -4.083849559331    -0.745171668762     0.973320631945

  Mulliken Charges: (a.u.)
   Center  Symbol    Alpha    Beta     Spin     Total
       1     H     0.38818  0.38818  0.00000  0.22364
       2     O     4.14800  4.14800  0.00000 -0.29601
       3     C     2.80108  2.80108  0.00000  0.39784
       4     C     3.12834  3.12834  0.00000 -0.25669
       5     O     4.17416  4.17416  0.00000 -0.34832
       6     C     3.09697  3.09697  0.00000 -0.19394
       7     H     0.44888  0.44888  0.00000  0.10224
       8     H     0.43778  0.43778  0.00000  0.12443
       9     C     3.09976  3.09976  0.00000 -0.19951
      10     H     0.44330  0.44330  0.00000  0.11339
      11     H     0.43597  0.43597  0.00000  0.12806
      12     C     3.08713  3.08713  0.00000 -0.17425
      13     H     0.44445  0.44445  0.00000  0.11110
      14     H     0.45364  0.45364  0.00000  0.09272
      15     C     3.14929  3.14929  0.00000 -0.29858
      16     H     0.45143  0.45143  0.00000  0.09714
      17     H     0.45677  0.45677  0.00000  0.08645
      18     H     0.44744  0.44744  0.00000  0.10512
      19     H     0.45267  0.45267  0.00000  0.09466
      20     H     0.45475  0.45475  0.00000  0.09050

   Total alpha = 32.00000, Total beta = 32.00000, Total charge = -0.00000

*** Psi4 exiting successfully. Buy a developer a beer!
