  ==> Input File <==

--------------------------------------------------------------------------
set {
	reference rhf
	basis cc-pvtz
}

set_num_threads( 4 )
memory 2 gb

molecule MOL {
0 1

H	 3.721907	 -0.933076	 -0.066039
O	 2.824271	 -1.154299	 0.131461
C	 2.076458	 -0.067370	 -0.038225
C	 0.626018	 -0.337582	 0.258241
O	 2.538288	 0.965419	 -0.381593
C	 -0.267326	 0.883135	 0.076490
H	 0.325620	 -1.161483	 -0.378003
H	 0.574537	 -0.713685	 1.275261
C	 -1.726822	 0.642622	 0.463839
H	 -0.210803	 1.217591	 -0.953497
H	 0.129920	 1.693110	 0.675679
C	 -2.480891	 -0.340606	 -0.429852
H	 -2.243098	 1.597649	 0.438609
H	 -1.776542	 0.301208	 1.495542
C	 -2.784098	 0.231981	 -1.810679
H	 -1.892254	 -1.247756	 -0.537648
H	 -3.413508	 -0.635331	 0.040593
H	 -3.316719	 -0.484991	 -2.424642
H	 -1.871355	 0.500740	 -2.331608
H	 -3.396710	 1.124489	 -1.737944

	symmetry c1
}
set optking {
	frozen_dihedral = ("
		16 12 9 6
	")
}

ee = optimize('scf')
oeprop('DIPOLE', 'QUADRUPOLE', 'MULLIKEN_CHARGES')
f=open( 'psi4out.xyz', 'w' )
f.write( "20  " )
f.write( str(ee) + "\n" )
f.write( MOL.save_string_xyz() )
f.close()
--------------------------------------------------------------------------

    Molecular point group: c1
  Charge       = 0
  Multiplicity = 1
  Basis Set: CC-PVTZ
  Basis Set:
  @DF-RHF Final Energy:  -384.09267736406207
    Total Energy =                       -384.0926773640622969
    Molecular point group: c1
  Basis Set: CC-PVTZ
  Basis Set:
  Basis Set: CC-PVTZ
  Basis Set:
  @DF-RHF Final Energy:  -384.09298037137660
    Total Energy =                       -384.0929803713764841
  Basis Set: CC-PVTZ
  Basis Set:
  Basis Set: CC-PVTZ
  Basis Set:
  @DF-RHF Final Energy:  -384.09306325431578
    Total Energy =                       -384.0930632543153251
  Basis Set: CC-PVTZ
  Basis Set:
  Basis Set: CC-PVTZ
  Basis Set:
  @DF-RHF Final Energy:  -384.09307534428859
    Total Energy =                       -384.0930753442883088
  Basis Set: CC-PVTZ
  Basis Set:
  Basis Set: CC-PVTZ
  Basis Set:
  @DF-RHF Final Energy:  -384.09307951178891
    Total Energy =                       -384.0930795117889147
  Basis Set: CC-PVTZ
  Basis Set:
  Basis Set: CC-PVTZ
  Basis Set:
  @DF-RHF Final Energy:  -384.09308207602209
    Total Energy =                       -384.0930820760215738
  Basis Set: CC-PVTZ
  Basis Set:
  Charge       = 0
  Multiplicity = 1
  Basis Set: CC-PVTZ
  Basis Set:

    Orbital Energies (a.u.)
    -----------------------

    Doubly Occupied:

       1A    -20.603985     2A    -20.540627     3A    -11.373596
       4A    -11.238803     5A    -11.220746     6A    -11.218955
       7A    -11.218326     8A    -11.209715     9A     -1.477583
      10A     -1.369087    11A     -1.097199    12A     -1.040472
      13A     -0.960620    14A     -0.878343    15A     -0.817695
      16A     -0.769448    17A     -0.703735    18A     -0.693720
      19A     -0.669221    20A     -0.627546    21A     -0.622004
      22A     -0.582888    23A     -0.578143    24A     -0.569697
      25A     -0.527440    26A     -0.513081    27A     -0.508372
      28A     -0.484739    29A     -0.469666    30A     -0.461843
      31A     -0.458306    32A     -0.446825

  @DF-RHF Final Energy:  -384.09308222664396

   => Energetics <=

    Nuclear Repulsion Energy =            380.7836955531617491
    One-Electron Energy =               -1277.8487080525503643
    Two-Electron Energy =                 512.9719302727446575
    DFT Exchange-Correlation Energy =       0.0000000000000000
    Empirical Dispersion Energy =           0.0000000000000000
    PCM Polarization Energy =               0.0000000000000000
    EFP Energy =                            0.0000000000000000
    Total Energy =                       -384.0930822266439009
    Molecular point group: c1
  Basis Set: CC-PVTZ
  Basis Set:

  -Total Gradient:
     Atom            X                  Y                   Z
    ------   -----------------  -----------------  -----------------
       1        0.000002488546    -0.000000911107     0.000002904582
       2        0.000003869834    -0.000001226752    -0.000005766218
       3       -0.000001574561    -0.000003250707    -0.000021318395
       4        0.000002843137     0.000001577864    -0.000015315520
       5        0.000001509588    -0.000002108384     0.000017729352
       6        0.000350286311    -0.000947312647     0.000739054245
       7        0.000006770036     0.000007218301     0.000010955307
       8        0.000001693615     0.000002246034     0.000013270728
       9       -0.000322657393     0.001533194068    -0.001377615719
      10       -0.000003552823     0.000005626155    -0.000003744638
      11        0.000002283532    -0.000014532773    -0.000007864644
      12       -0.000773065343    -0.001249290248     0.002003930613
      13       -0.000003703990     0.000006982243     0.000004885976
      14        0.000000926753     0.000005555842     0.000000246248
      15       -0.000020635977     0.000002645359    -0.000000367642
      16        0.000748802814     0.000646912203    -0.001342539832
      17        0.000004795383     0.000003219380    -0.000014659902
      18        0.000000472190     0.000004547315    -0.000003113715
      19       -0.000000805571    -0.000003755612     0.000006956858
      20       -0.000000746076     0.000002663465    -0.000007627684

  **** Optimization is complete! (in 7 steps) ****
    Final optimized geometry and variables:
    Molecular point group: c1

    Geometry (in Angstrom), charge = 0, multiplicity = 1:

    H            3.587422082071    -1.015069031268     0.200488430595
    O            2.689390812470    -1.236252166377     0.396307142762
    C            1.938390445095    -0.155491982922     0.202656838979
    C            0.487106437495    -0.426891313403     0.494323148338
    O            2.398065798149     0.872955112069    -0.156464964082
    C           -0.408417146111     0.789473884739     0.295174037009
    H            0.193954991350    -1.259248198667    -0.134364811559
    H            0.430733494616    -0.792723049962     1.514684859814
    C           -1.871667060291     0.541863215120     0.671930181750
    H           -0.329427763092     1.127839613000    -0.730647813504
    H           -0.024847482995     1.600436112337     0.902079142157
    C           -2.645960657728    -0.426125917303    -0.228887398374
    H           -2.389974229943     1.495903204142     0.681318558130
    H           -1.905868375114     0.173043617351     1.693874856804
    C           -2.992012101603     0.147709117564    -1.601566398001
    H           -2.083963806971    -1.344577296577    -0.364547660606
    H           -3.565539704769    -0.704898586388     0.274871050021
    H           -3.562251045379    -0.565463177461    -2.185694391411
    H           -2.104632379262     0.398830057507    -2.170827978881
    H           -3.588262122457     1.049111132501    -1.506769456531

  Mulliken Charges: (a.u.)
   Center  Symbol    Alpha    Beta     Spin     Total
       1     H     0.38236  0.38236  0.00000  0.23528
       2     O     4.16028  4.16028  0.00000 -0.32055
       3     C     2.80332  2.80332  0.00000  0.39336
       4     C     3.11188  3.11188  0.00000 -0.22377
       5     O     4.19109  4.19109  0.00000 -0.38219
       6     C     3.09602  3.09602  0.00000 -0.19204
       7     H     0.43752  0.43752  0.00000  0.12495
       8     H     0.43733  0.43733  0.00000  0.12534
       9     C     3.10643  3.10643  0.00000 -0.21286
      10     H     0.44391  0.44391  0.00000  0.11218
      11     H     0.43818  0.43818  0.00000  0.12365
      12     C     3.09326  3.09326  0.00000 -0.18652
      13     H     0.44484  0.44484  0.00000  0.11033
      14     H     0.44880  0.44880  0.00000  0.10240
      15     C     3.14946  3.14946  0.00000 -0.29892
      16     H     0.45477  0.45477  0.00000  0.09045
      17     H     0.44571  0.44571  0.00000  0.10857
      18     H     0.44690  0.44690  0.00000  0.10620
      19     H     0.45389  0.45389  0.00000  0.09221
      20     H     0.45404  0.45404  0.00000  0.09193

   Total alpha = 32.00000, Total beta = 32.00000, Total charge = -0.00000
