                              Psi4 1.0.54 Driver

  ==> Input File <==

--------------------------------------------------------------------------
set {
	reference rhf
	basis cc-pvtz
}

set_num_threads( 4 )
memory 2 gb

molecule MOL {
0 1

O	 0.623971	 1.347241	 -0.000777
C	 0.485107	 0.171416	 -0.000134
C	 1.606966	 -0.836201	 0.000174
O	 -0.695554	 -0.422406	 0.000602
C	 2.988788	 -0.202529	 -0.000115
H	 1.465110	 -1.474645	 -0.864821
H	 1.465209	 -1.474077	 0.865596
H	 3.131767	 0.419673	 -0.873407
H	 3.750876	 -0.972315	 0.000098
H	 3.131883	 0.420264	 0.872742
C	 -0.798653	 -1.692008	 0.629703
C	 -2.230551	 -2.156256	 0.500743
H	 -0.503731	 -1.597797	 1.665315
H	 -0.114128	 -2.379116	 0.152595
H	 -2.906606	 -1.460159	 0.981129
H	 -2.344492	 -3.125366	 0.971992
H	 -2.514781	 -2.245996	 -0.540185

	symmetry c1
}
set optking {
	frozen_dihedral = ("
		11 4 2 3
	")
}

ee,wfn = optimize('scf', return_wfn=True)
oeprop( wfn, 'DIPOLE', 'QUADRUPOLE', 'MULLIKEN_CHARGES')
f=open( 'psi4out.xyz', 'w' )
f.write( "17  " )
f.write( str(ee) + "\n" )
f.write( MOL.save_string_xyz() )
f.close()
--------------------------------------------------------------------------

    Molecular point group: c1
  Charge       = 0
  Multiplicity = 1
  Basis Set: CC-PVTZ
  Basis Set:
  @DF-RHF Final Energy:  -345.01682868151568
    Total Energy =                       -345.0168286815151646
    Molecular point group: c1
  Basis Set: CC-PVTZ
  Basis Set:
  Basis Set: CC-PVTZ
  Basis Set:
  @DF-RHF Final Energy:  -345.00812481079436
    Total Energy =                       -345.0081248107944702
  Basis Set: CC-PVTZ
  Basis Set:
  Basis Set: CC-PVTZ
  Basis Set:
  @DF-RHF Final Energy:  -345.02353200678726
    Total Energy =                       -345.0235320067874909
  Basis Set: CC-PVTZ
  Basis Set:
  Basis Set: CC-PVTZ
  Basis Set:
  @DF-RHF Final Energy:  -345.02422535058207
    Total Energy =                       -345.0242253505822418
  Basis Set: CC-PVTZ
  Basis Set:
  @DF-RHF Final Energy:  -345.02525384395642
    Total Energy =                       -345.0252538439567047
  Basis Set: CC-PVTZ
  Basis Set:
  @DF-RHF Final Energy:  -345.02555277762485
    Total Energy =                       -345.0255527776252507
  Basis Set: CC-PVTZ
  Basis Set:
  Basis Set: CC-PVTZ
  Basis Set:
  @DF-RHF Final Energy:  -345.02556666578795
    Total Energy =                       -345.0255666657881193
  Basis Set: CC-PVTZ
  Basis Set:
  Basis Set: CC-PVTZ
  Basis Set:
  @DF-RHF Final Energy:  -345.02557086709425
    Total Energy =                       -345.0255708670937338
  Basis Set: CC-PVTZ
  Basis Set:
  Charge       = 0
  Multiplicity = 1
  Basis Set: CC-PVTZ
  Basis Set:

    Orbital Energies (a.u.)
    -----------------------

    Doubly Occupied:

       1A    -20.588827     2A    -20.530216     3A    -11.365087
       4A    -11.296804     5A    -11.244539     6A    -11.225091
       7A    -11.217662     8A     -1.463354     9A     -1.367295
      10A     -1.064174    11A     -1.046441    12A     -0.901886
      13A     -0.880181    14A     -0.771652    15A     -0.706164
      16A     -0.695938    17A     -0.658600    18A     -0.636317
      19A     -0.595992    20A     -0.571741    21A     -0.560800
      22A     -0.538390    23A     -0.526558    24A     -0.520380
      25A     -0.509515    26A     -0.495855    27A     -0.449563
      28A     -0.434011

  @DF-RHF Final Energy:  -345.02557207618838

   => Energetics <=

    Nuclear Repulsion Energy =            315.7981246523363552
    One-Electron Energy =               -1095.9213310181103225
    Two-Electron Energy =                 435.0976342895853577
    DFT Exchange-Correlation Energy =       0.0000000000000000
    Empirical Dispersion Energy =           0.0000000000000000
    PCM Polarization Energy =               0.0000000000000000
    EFP Energy =                            0.0000000000000000
    Total Energy =                       -345.0255720761886096
    Molecular point group: c1
  Basis Set: CC-PVTZ
  Basis Set:

  -Total Gradient:
     Atom            X                  Y                   Z
    ------   -----------------  -----------------  -----------------
       1       -0.000006493477     0.000033434479    -0.000016818277
       2       -0.000349542991     0.001199633047     0.004246604371
       3        0.000008757489    -0.000355028102    -0.002171331831
       4        0.000863436642    -0.002165650206    -0.004038625982
       5       -0.000002891718     0.000028476997     0.000020545420
       6        0.000029691805     0.000015190935     0.000035458678
       7       -0.000022084651    -0.000018396435     0.000064727044
       8        0.000007976952     0.000012115278    -0.000020075777
       9        0.000002310851    -0.000009508609    -0.000003941087
      10       -0.000003584893    -0.000008056665    -0.000009173687
      11       -0.000527447439     0.001262489271     0.001829711692
      12        0.000021830189     0.000005089159    -0.000002066201
      13        0.000009862173    -0.000006166901     0.000043178721
      14       -0.000035492200     0.000009337903     0.000024833253
      15       -0.000002001954     0.000004397642     0.000005094053
      16        0.000002172729    -0.000003191488     0.000004278988
      17        0.000003500491    -0.000004166306    -0.000012399381

  **** Optimization is complete! (in 9 steps) ****
    Final optimized geometry and variables:
    Molecular point group: c1

    Geometry (in Angstrom), charge = 0, multiplicity = 1:

    O            0.306174727551     1.767014859730    -0.452500859837
    C            0.251500667708     0.613141025281    -0.218698606699
    C            1.476354929225    -0.266921508343    -0.087479952279
    O           -0.938953260901     0.017305608973    -0.143194041120
    C            2.774922244717     0.492963858420    -0.309645899708
    H            1.373932082647    -1.075749216758    -0.803529847883
    H            1.473383352403    -0.731219972453     0.892708259882
    H            2.801035201379     0.936872139538    -1.295116457491
    H            3.618627827914    -0.179510767001    -0.211755837691
    H            2.885492893332     1.290582268381     0.411916301502
    C           -1.160273197555    -1.151826852722     0.619506708963
    C           -2.641164224092    -1.451475373200     0.576407101442
    H           -0.836933235631    -0.987758052704     1.640977167819
    H           -0.596051318370    -1.981994708647     0.213005433235
    H           -3.207831061628    -0.627565968454     0.989398298204
    H           -2.853843203808    -2.344222157162     1.152865881807
    H           -2.965898247823    -1.612833321164    -0.443383368206

  Mulliken Charges: (a.u.)
   Center  Symbol    Alpha    Beta     Spin     Total
       1     O     4.17867  4.17867  0.00000 -0.35735
       2     C     2.81434  2.81434  0.00000  0.37132
       3     C     3.12178  3.12178  0.00000 -0.24355
       4     O     4.13393  4.13393  0.00000 -0.26785
       5     C     3.13899  3.13899  0.00000 -0.27798
       6     H     0.43841  0.43841  0.00000  0.12318
       7     H     0.44262  0.44262  0.00000  0.11477
       8     H     0.44512  0.44512  0.00000  0.10976
       9     H     0.45153  0.45153  0.00000  0.09695
      10     H     0.44638  0.44638  0.00000  0.10724
      11     C     2.98670  2.98670  0.00000  0.02659
      12     C     3.13273  3.13273  0.00000 -0.26545
      13     H     0.45856  0.45856  0.00000  0.08288
      14     H     0.45952  0.45952  0.00000  0.08096
      15     H     0.44577  0.44577  0.00000  0.10845
      16     H     0.45668  0.45668  0.00000  0.08664
      17     H     0.44827  0.44827  0.00000  0.10346

   Total alpha = 28.00000, Total beta = 28.00000, Total charge =  0.00000

*** Psi4 exiting successfully. Buy a developer a beer!
