                              Psi4 1.0.54 Driver

  ==> Input File <==

--------------------------------------------------------------------------
set {
	reference rhf
	basis cc-pvtz
}

set_num_threads( 4 )
memory 2 gb

molecule MOL {
0 1

O	 -2.817697	 1.304178	 0.001046
C	 -2.664672	 0.129869	 0.003507
C	 -3.797908	 -0.860100	 -0.001145
O	 -1.481217	 -0.452708	 0.001092
H	 -4.408836	 -0.679689	 -0.875387
H	 -3.443486	 -1.878443	 -0.002770
H	 -4.412123	 -0.683688	 0.871605
C	 -0.332055	 0.384012	 -0.000250
C	 0.892252	 -0.506059	 -0.000295
H	 -0.360822	 1.020205	 -0.874146
H	 -0.359817	 1.021310	 0.872861
C	 2.188199	 0.299473	 -0.001416
H	 0.857046	 -1.152781	 -0.871031
H	 0.857910	 -1.151798	 0.871202
C	 3.437151	 -0.577593	 -0.000991
H	 2.209565	 0.950707	 -0.871712
H	 2.210062	 0.952234	 0.867721
C	 4.487855	 -0.121738	 -1.007582
H	 3.153748	 -1.604135	 -0.215350
H	 3.870430	 -0.582945	 0.995165
H	 4.094691	 -0.138483	 -2.018515
H	 5.360214	 -0.764257	 -0.981779
H	 4.816687	 0.890752	 -0.798807

	symmetry c1
}
set optking {
	frozen_dihedral = ("
		19 15 12 16
	")
}

ee,wfn = optimize('scf', return_wfn=True)
oeprop( wfn, 'DIPOLE', 'QUADRUPOLE', 'MULLIKEN_CHARGES')
f=open( 'psi4out.xyz', 'w' )
f.write( "23  " )
f.write( str(ee) + "\n" )
f.write( MOL.save_string_xyz() )
f.close()
--------------------------------------------------------------------------

    Molecular point group: c1
  Charge       = 0
  Multiplicity = 1
  Basis Set: CC-PVTZ
  Basis Set:
  @DF-RHF Final Energy:  -423.12969964232843
    Total Energy =                       -423.1296996423283190
    Molecular point group: c1
  Basis Set: CC-PVTZ
  Basis Set:
  Basis Set: CC-PVTZ
  Basis Set:
  @DF-RHF Final Energy:  -423.12978695782931
    Total Energy =                       -423.1297869578295376
  Basis Set: CC-PVTZ
  Basis Set:
  Basis Set: CC-PVTZ
  Basis Set:
  @DF-RHF Final Energy:  -423.12989713787817
    Total Energy =                       -423.1298971378782880
  Basis Set: CC-PVTZ
  Basis Set:
  Basis Set: CC-PVTZ
  Basis Set:
  @DF-RHF Final Energy:  -423.13002076321027
    Total Energy =                       -423.1300207632104957
  Basis Set: CC-PVTZ
  Basis Set:
  Basis Set: CC-PVTZ
  Basis Set:
  @DF-RHF Final Energy:  -423.13004376895037
    Total Energy =                       -423.1300437689501450
  Basis Set: CC-PVTZ
  Basis Set:
  Charge       = 0
  Multiplicity = 1
  Basis Set: CC-PVTZ
  Basis Set:

    Orbital Energies (a.u.)
    -----------------------

    Doubly Occupied:

       1A    -20.596001     2A    -20.529563     3A    -11.366437
       4A    -11.279346     5A    -11.230708     6A    -11.222898
       7A    -11.221077     8A    -11.219201     9A    -11.211541
      10A     -1.471233    11A     -1.364060    12A     -1.093732
      13A     -1.042424    14A     -1.004297    15A     -0.931585
      16A     -0.843970    17A     -0.803182    18A     -0.776190
      19A     -0.694214    20A     -0.688487    21A     -0.672052
      22A     -0.640635    23A     -0.609722    24A     -0.592509
      25A     -0.583765    26A     -0.571170    27A     -0.554114
      28A     -0.536740    29A     -0.526046    30A     -0.505098
      31A     -0.498394    32A     -0.477306    33A     -0.465683
      34A     -0.463465    35A     -0.455423    36A     -0.438899

  @DF-RHF Final Energy:  -423.13004405195829

   => Energetics <=

    Nuclear Repulsion Energy =            450.7097398640474921
    One-Electron Energy =               -1469.3172361570045723
    Two-Electron Energy =                 595.4774522409984456
    DFT Exchange-Correlation Energy =       0.0000000000000000
    Empirical Dispersion Energy =           0.0000000000000000
    PCM Polarization Energy =               0.0000000000000000
    EFP Energy =                            0.0000000000000000
    Total Energy =                       -423.1300440519586346
    Molecular point group: c1
  Basis Set: CC-PVTZ
  Basis Set:

  -Total Gradient:
     Atom            X                  Y                   Z
    ------   -----------------  -----------------  -----------------
       1        0.000006040633    -0.000014973806    -0.000012205827
       2        0.000024859192    -0.000005456877     0.000010830044
       3       -0.000001541790     0.000006791039    -0.000001025021
       4       -0.000037182995     0.000009172351    -0.000041973065
       5        0.000016728278     0.000004983214     0.000008565034
       6        0.000000670230    -0.000003158660     0.000000388980
       7       -0.000000222245    -0.000002185173    -0.000000866279
       8        0.000006368314     0.000011090526     0.000030602922
       9       -0.000017665642     0.000006340034     0.000036695358
      10       -0.000018213541    -0.000001100153    -0.000006210312
      11        0.000011792165    -0.000001632721    -0.000003683971
      12       -0.002054037932    -0.003077370297    -0.001500871067
      13        0.000027125221    -0.000012752026     0.000005341637
      14       -0.000008110161     0.000015208898     0.000005806476
      15        0.000921641468     0.001314123427    -0.003665029068
      16        0.001570330383     0.002363331364     0.001827464733
      17       -0.000008059479     0.000002678398     0.000004002309
      18        0.000026308010    -0.000008536351     0.000000737757
      19       -0.000455270052    -0.000606378734     0.003289293515
      20        0.000000498783    -0.000002300857     0.000003519452
      21       -0.000013641577     0.000012695137     0.000004397863
      22       -0.000001363404    -0.000009878777    -0.000008998762
      23        0.000002946132    -0.000000689957     0.000013217294

  **** Optimization is complete! (in 6 steps) ****
    Final optimized geometry and variables:
    Molecular point group: c1

    Geometry (in Angstrom), charge = 0, multiplicity = 1:

    O           -2.795962062046     1.345668079817     0.136531671981
    C           -2.644861185982     0.171167412442     0.122811860659
    C           -3.779744691853    -0.817100814994     0.120344190887
    O           -1.462327842675    -0.412890949488     0.107918837028
    H           -4.398588798960    -0.627790423031    -0.746455609404
    H           -3.426968449112    -1.835958691370     0.106162873114
    H           -4.385337401847    -0.647598102580     1.000530857673
    C           -0.312364124938     0.422292276725     0.109049938165
    C            0.910588083793    -0.468979982479     0.090022843604
    H           -0.345459537761     1.068959003927    -0.757144900620
    H           -0.332868906882     1.049559120525     0.989673411843
    C            2.207761790085     0.333248820928     0.081282094860
    H            0.867425479320    -1.110050128017    -0.784619458332
    H            0.885588251627    -1.121158402646     0.957416951069
    C            3.473480327625    -0.543662511384     0.106903722043
    H            2.234063418216     0.989300725951    -0.784153523032
    H            2.218260059186     0.999944981219     0.938989225468
    C            4.566730258298    -0.070241367205    -0.843747779203
    H            3.210275823997    -1.573424241460    -0.113651911788
    H            3.869921898824    -0.566044126509     1.117111213652
    H            4.224489172883    -0.090235247746    -1.873054462932
    H            5.447478327302    -0.698160823544    -0.773729910444
    H            4.866751534687     0.947438967370    -0.616560708218

  Mulliken Charges: (a.u.)
   Center  Symbol    Alpha    Beta     Spin     Total
       1     O     4.20240  4.20240  0.00000 -0.40480
       2     C     2.81500  2.81500  0.00000  0.37000
       3     C     3.14001  3.14001  0.00000 -0.28002
       4     O     4.14487  4.14487  0.00000 -0.28973
       5     H     0.44210  0.44210  0.00000  0.11581
       6     H     0.44189  0.44189  0.00000  0.11622
       7     H     0.44211  0.44211  0.00000  0.11577
       8     C     2.97896  2.97896  0.00000  0.04208
       9     C     3.08283  3.08283  0.00000 -0.16566
      10     H     0.45410  0.45410  0.00000  0.09181
      11     H     0.45415  0.45415  0.00000  0.09169
      12     C     3.10170  3.10170  0.00000 -0.20340
      13     H     0.45051  0.45051  0.00000  0.09897
      14     H     0.44972  0.44972  0.00000  0.10056
      15     C     3.08711  3.08711  0.00000 -0.17422
      16     H     0.45231  0.45231  0.00000  0.09539
      17     H     0.45058  0.45058  0.00000  0.09883
      18     C     3.14744  3.14744  0.00000 -0.29489
      19     H     0.45352  0.45352  0.00000  0.09296
      20     H     0.45128  0.45128  0.00000  0.09745
      21     H     0.45509  0.45509  0.00000  0.08983
      22     H     0.44869  0.44869  0.00000  0.10262
      23     H     0.45363  0.45363  0.00000  0.09274

   Total alpha = 36.00000, Total beta = 36.00000, Total charge = -0.00000

*** Psi4 exiting successfully. Buy a developer a beer!
