  ==> Input File <==

--------------------------------------------------------------------------
set {
	reference rhf
	basis 6-31G*
}

set_num_threads( 1 )
memory 2 gb

molecule MOL {
0 1

O	 1.866321	 1.260465	 0.279680
C	 1.705091	 0.115954	 0.001797
C	 0.381791	 -0.609817	 0.001258
O	 2.695805	 -0.690650	 -0.357384
C	 -0.823008	 0.326187	 0.001381
H	 0.371250	 -1.265087	 -0.865474
H	 0.370908	 -1.265746	 0.867490
C	 -2.149452	 -0.435131	 -0.000098
H	 -0.770201	 0.977095	 -0.865636
H	 -0.771220	 0.975655	 0.869608
C	 -3.368779	 0.488503	 -0.000883
H	 -2.193746	 -1.087250	 -0.871175
H	 -2.195311	 -1.087803	 0.870418
C	 -4.693822	 -0.272754	 -0.001129
H	 -3.325798	 1.139422	 -0.871284
H	 -3.326423	 1.139959	 0.869145
H	 -4.781274	 -0.907928	 -0.878124
H	 -5.538651	 0.408946	 -0.001420
H	 -4.781694	 -0.907783	 0.875984
C	 3.996138	 -0.131840	 -0.400047
H	 4.037304	 0.681051	 -1.110710
H	 4.651119	 -0.931710	 -0.708404
H	 4.284855	 0.233841	 0.574851

	symmetry c1
}
set optking {
	frozen_dihedral = ("
		15 11 8 12,
		9 5 8 12,
		9 5 3 6,
		1 2 4 20
	")
}

ee = energy('scf')
oeprop('DIPOLE', 'QUADRUPOLE', 'MULLIKEN_CHARGES')
f=open( 'psi4out.xyz', 'w' )
f.write( "23  " )
f.write( str(ee) + "\n" )
f.write( MOL.save_string_xyz() )
f.close()
--------------------------------------------------------------------------

    Molecular point group: c1

    Geometry (in Angstrom), charge = 0, multiplicity = 1:

       Center              X                  Y                   Z               Mass
    ------------   -----------------  -----------------  -----------------  -----------------
           O          1.870409144749     1.252969333644     0.335560296455    15.994914619560
           C          1.709179144749     0.108458333644     0.057677296455    12.000000000000
           C          0.385879144749    -0.617312666356     0.057138296455    12.000000000000
           O          2.699893144749    -0.698145666356    -0.301503703545    15.994914619560
           C         -0.818919855251     0.318691333644     0.057261296455    12.000000000000
           H          0.375338144749    -1.272582666356    -0.809593703545     1.007825032070
           H          0.374996144749    -1.273241666356     0.923370296455     1.007825032070
           C         -2.145363855251    -0.442626666356     0.055782296455    12.000000000000
           H         -0.766112855251     0.969599333644    -0.809755703545     1.007825032070
           H         -0.767131855251     0.968159333644     0.925488296455     1.007825032070
           C         -3.364690855251     0.481007333644     0.054997296455    12.000000000000
           H         -2.189657855251    -1.094745666356    -0.815294703545     1.007825032070
           H         -2.191222855251    -1.095298666356     0.926298296455     1.007825032070
           C         -4.689733855251    -0.280249666356     0.054751296455    12.000000000000
           H         -3.321709855251     1.131926333644    -0.815403703545     1.007825032070
           H         -3.322334855251     1.132463333644     0.925025296455     1.007825032070
           H         -4.777185855251    -0.915423666356    -0.822243703545     1.007825032070
           H         -5.534562855251     0.401450333644     0.054460296455     1.007825032070
           H         -4.777605855251    -0.915278666356     0.931864296455     1.007825032070
           C          4.000226144749    -0.139335666356    -0.344166703545    12.000000000000
           H          4.041392144749     0.673555333644    -1.054829703545     1.007825032070
           H          4.655207144749    -0.939205666356    -0.652523703545     1.007825032070
           H          4.288943144749     0.226345333644     0.630731296455     1.007825032070

  Charge       = 0
  Multiplicity = 1
  Basis Set: 6-31G*
  Basis Set:

    Orbital Energies (a.u.)
    -----------------------

    Doubly Occupied:

       1A    -20.603965     2A    -20.545101     3A    -11.372215
       4A    -11.280800     5A    -11.235247     6A    -11.219981
       7A    -11.218182     8A    -11.216702     9A    -11.209813
      10A     -1.469363    11A     -1.362668    12A     -1.093480
      13A     -1.043772    14A     -0.987094    15A     -0.932210
      16A     -0.843821    17A     -0.795328    18A     -0.767784
      19A     -0.696543    20A     -0.683565    21A     -0.671486
      22A     -0.651923    23A     -0.608910    24A     -0.599424
      25A     -0.573054    26A     -0.561808    27A     -0.553739
      28A     -0.524357    29A     -0.521477    30A     -0.507905
      31A     -0.484239    32A     -0.470427    33A     -0.466220
      34A     -0.461737    35A     -0.455710    36A     -0.434787

  @DF-RHF Final Energy:  -422.97601373194135

   => Energetics <=

    Nuclear Repulsion Energy =            452.1495886033819147
    One-Electron Energy =               -1472.0014846223227778
    Two-Electron Energy =                 596.8758822869988308
    DFT Exchange-Correlation Energy =       0.0000000000000000
    Empirical Dispersion Energy =           0.0000000000000000
    PCM Polarization Energy =               0.0000000000000000
    EFP Energy =                            0.0000000000000000
    Total Energy =                       -422.9760137319419755

  Mulliken Charges: (a.u.)
   Center  Symbol    Alpha    Beta     Spin     Total
       1     O     4.28610  4.28610  0.00000 -0.57220
       2     C     2.60434  2.60434  0.00000  0.79132
       3     C     3.20902  3.20902  0.00000 -0.41804
       4     O     4.30711  4.30711  0.00000 -0.61421
       5     C     3.15359  3.15359  0.00000 -0.30719
       6     H     0.40115  0.40115  0.00000  0.19771
       7     H     0.39983  0.39983  0.00000  0.20034
       8     C     3.15322  3.15322  0.00000 -0.30645
       9     H     0.41466  0.41466  0.00000  0.17068
      10     H     0.40836  0.40836  0.00000  0.18328
      11     C     3.15164  3.15164  0.00000 -0.30327
      12     H     0.42389  0.42389  0.00000  0.15222
      13     H     0.42372  0.42372  0.00000  0.15256
      14     C     3.23961  3.23961  0.00000 -0.47922
      15     H     0.42162  0.42162  0.00000  0.15676
      16     H     0.42103  0.42103  0.00000  0.15794
      17     H     0.42182  0.42182  0.00000  0.15635
      18     H     0.41844  0.41844  0.00000  0.16312
      19     H     0.42172  0.42172  0.00000  0.15657
      20     C     3.09267  3.09267  0.00000 -0.18535
      21     H     0.40891  0.40891  0.00000  0.18217
      22     H     0.40842  0.40842  0.00000  0.18317
      23     H     0.40913  0.40913  0.00000  0.18175

   Total alpha = 36.00000, Total beta = 36.00000, Total charge =  0.00000
