  ==> Input File <==

--------------------------------------------------------------------------
set {
	reference rhf
	basis cc-pvtz
}

set_num_threads( 4 )
memory 2 gb

molecule MOL {
0 1

H	 1.999790	 -0.596830	 -0.846534
O	 1.583947	 -0.677544	 -0.001533
C	 0.489979	 0.078084	 0.002623
C	 -0.763662	 -0.754014	 0.000816
O	 0.539051	 1.259395	 -0.000088
C	 -2.038001	 0.074705	 -0.000833
H	 -0.712945	 -1.405886	 -0.864342
H	 -0.715137	 -1.405770	 0.866182
H	 -2.087267	 0.710831	 -0.874232
H	 -2.903419	 -0.576199	 -0.001922
H	 -2.089467	 0.710909	 0.872389

	symmetry c1
}
set optking {
	frozen_dihedral = ("
		1 2 3 5
	")
}

ee = optimize('scf')
oeprop('DIPOLE', 'QUADRUPOLE', 'MULLIKEN_CHARGES')
f=open( 'psi4out.xyz', 'w' )
f.write( "11  " )
f.write( str(ee) + "\n" )
f.write( MOL.save_string_xyz() )
f.close()
--------------------------------------------------------------------------

    Molecular point group: c1
  Charge       = 0
  Multiplicity = 1
  Basis Set: CC-PVTZ
  Basis Set:
  @DF-RHF Final Energy:  -266.93509032247312
    Total Energy =                       -266.9350903224733997
    Molecular point group: c1
  Basis Set: CC-PVTZ
  Basis Set:
  Basis Set: CC-PVTZ
  Basis Set:
  @DF-RHF Final Energy:  -266.93371154571929
    Total Energy =                       -266.9337115457195750
  Basis Set: CC-PVTZ
  Basis Set:
  Basis Set: CC-PVTZ
  Basis Set:
  @DF-RHF Final Energy:  -266.93639849132575
    Total Energy =                       -266.9363984913256900
  Basis Set: CC-PVTZ
  Basis Set:
  Basis Set: CC-PVTZ
  Basis Set:
  @DF-RHF Final Energy:  -266.93670909048376
    Total Energy =                       -266.9367090904838165
  Basis Set: CC-PVTZ
  Basis Set:
  Basis Set: CC-PVTZ
  Basis Set:
  @DF-RHF Final Energy:  -266.93671456924324
    Total Energy =                       -266.9367145692432928
  Basis Set: CC-PVTZ
  Basis Set:
  Charge       = 0
  Multiplicity = 1
  Basis Set: CC-PVTZ
  Basis Set:

    Orbital Energies (a.u.)
    -----------------------

    Doubly Occupied:

       1A    -20.589313     2A    -20.550358     3A    -11.374993
       4A    -11.243466     5A    -11.219358     6A     -1.465904
       7A     -1.371342     8A     -1.065228     9A     -0.913406
      10A     -0.806490    11A     -0.712040    12A     -0.682329
      13A     -0.661324    14A     -0.613777    15A     -0.570971
      16A     -0.529003    17A     -0.525568    18A     -0.503912
      19A     -0.492984    20A     -0.449229

  @DF-RHF Final Energy:  -266.93671524764022

   => Energetics <=

    Nuclear Repulsion Energy =            179.4774991410742757
    One-Electron Energy =                -720.1464433766859656
    Two-Electron Energy =                 273.7322289879715527
    DFT Exchange-Correlation Energy =       0.0000000000000000
    Empirical Dispersion Energy =           0.0000000000000000
    PCM Polarization Energy =               0.0000000000000000
    EFP Energy =                            0.0000000000000000
    Total Energy =                       -266.9367152476401088
    Molecular point group: c1
  Basis Set: CC-PVTZ
  Basis Set:

  -Total Gradient:
     Atom            X                  Y                   Z
    ------   -----------------  -----------------  -----------------
       1       -0.004126832130    -0.006410105322    -0.003127429893
       2        0.004873319359     0.008062860041     0.007243047813
       3       -0.000231941867    -0.001639272267    -0.011351623259
       4        0.000016612517     0.000029086076    -0.000070424604
       5       -0.000536227982    -0.000042695034     0.007249903146
       6       -0.000008136912    -0.000010124568     0.000023911156
       7        0.000003461792     0.000000899145     0.000024669669
       8        0.000010088712     0.000004851380     0.000023321674
       9       -0.000000710626     0.000001786920    -0.000008983140
      10       -0.000002824353     0.000004188144    -0.000004514088
      11        0.000003191489    -0.000001474513    -0.000001878473

  **** Optimization is complete! (in 6 steps) ****
    Final optimized geometry and variables:
    Molecular point group: c1

    Geometry (in Angstrom), charge = 0, multiplicity = 1:

    H            2.121958966827    -0.616896613051    -0.740726806156
    O            1.611025185307    -0.672715985238     0.050005296781
    C            0.490571774294     0.087231966023    -0.026657582137
    C           -0.765846412538    -0.740375063247    -0.000340594674
    O            0.531978483187     1.261804562968    -0.021872626266
    C           -2.043408746800     0.081540806136     0.039983763923
    H           -0.738557647125    -1.390456358128    -0.869522387433
    H           -0.686800669884    -1.399764225036     0.857344872632
    H           -2.121250666352     0.724067140140    -0.826968881340
    H           -2.906825710013    -0.571949711277     0.059960217702
    H           -2.071381794451     0.711707102925     0.918809927050

  Mulliken Charges: (a.u.)
   Center  Symbol    Alpha    Beta     Spin     Total
       1     H     0.38391  0.38391  0.00000  0.23218
       2     O     4.17674  4.17674  0.00000 -0.35348
       3     C     2.80282  2.80282  0.00000  0.39436
       4     C     3.09981  3.09981  0.00000 -0.19963
       5     O     4.16613  4.16613  0.00000 -0.33225
       6     C     3.13967  3.13967  0.00000 -0.27934
       7     H     0.44701  0.44701  0.00000  0.10598
       8     H     0.43838  0.43838  0.00000  0.12323
       9     H     0.44886  0.44886  0.00000  0.10229
      10     H     0.44991  0.44991  0.00000  0.10019
      11     H     0.44676  0.44676  0.00000  0.10647

   Total alpha = 20.00000, Total beta = 20.00000, Total charge = -0.00000
