  ==> Input File <==

--------------------------------------------------------------------------
set {
	reference rhf
	basis 6-31G*
}

set_num_threads( 4 )
memory 2 gb

molecule MOL {
0 1

H	 -2.172150	 0.880146	 0.502514
C	 -2.018062	 -0.000025	 -0.114509
O	 -0.774054	 0.001095	 -0.743181
H	 -2.760490	 0.003458	 -0.901350
H	 -2.173624	 -0.884374	 0.496163
C	 0.367737	 -0.454540	 -0.039446
C	 1.500572	 -0.302413	 -1.052142
C	 0.644432	 0.418225	 1.188931
C	 0.219392	 -1.925700	 0.361550
H	 1.590887	 0.733700	 -1.358319
H	 1.294676	 -0.897412	 -1.934727
H	 2.447597	 -0.623419	 -0.630525
H	 0.676496	 1.465131	 0.906106
H	 1.600184	 0.154434	 1.630013
H	 -0.111608	 0.295321	 1.956950
H	 -0.046699	 -2.525442	 -0.502484
H	 1.154638	 -2.301983	 0.763123
H	 -0.540348	 -2.067807	 1.122623

	symmetry c1
}
set optking {
	frozen_dihedral = ("
		6 3 2 5
	")
}

ee = optimize('scf')
oeprop('DIPOLE', 'QUADRUPOLE', 'MULLIKEN_CHARGES')
f=open( 'psi4out.xyz', 'w' )
f.write( "18  " )
f.write( str(ee) + "\n" )
f.write( MOL.save_string_xyz() )
f.close()
--------------------------------------------------------------------------

    Molecular point group: c1
  Charge       = 0
  Multiplicity = 1
  Basis Set: 6-31G*
  Basis Set:
  @DF-RHF Final Energy:  -271.17464436619588
    Total Energy =                       -271.1746443661960484
    Molecular point group: c1
  Basis Set: 6-31G*
  Basis Set:
  Basis Set: 6-31G*
  Basis Set:
  @DF-RHF Final Energy:  -271.17429278386118
    Total Energy =                       -271.1742927838610626
  Basis Set: 6-31G*
  Basis Set:
  Basis Set: 6-31G*
  Basis Set:
  @DF-RHF Final Energy:  -271.17502937976889
    Total Energy =                       -271.1750293797687164
  Basis Set: 6-31G*
  Basis Set:
  Basis Set: 6-31G*
  Basis Set:
  @DF-RHF Final Energy:  -271.17499929819240
    Total Energy =                       -271.1749992981922333
  Basis Set: 6-31G*
  Basis Set:
  @DF-RHF Final Energy:  -271.17505934581806
    Total Energy =                       -271.1750593458178855
  Basis Set: 6-31G*
  Basis Set:
  @DF-RHF Final Energy:  -271.17506292283656
    Total Energy =                       -271.1750629228366734
  Basis Set: 6-31G*
  Basis Set:
  Basis Set: 6-31G*
  Basis Set:
  @DF-RHF Final Energy:  -271.17506422313630
    Total Energy =                       -271.1750642231362463
  Basis Set: 6-31G*
  Basis Set:
  Basis Set: 6-31G*
  Basis Set:
  @DF-RHF Final Energy:  -271.17506715330802
    Total Energy =                       -271.1750671533080208
  Basis Set: 6-31G*
  Basis Set:
  Charge       = 0
  Multiplicity = 1
  Basis Set: 6-31G*
  Basis Set:

    Orbital Energies (a.u.)
    -----------------------

    Doubly Occupied:

       1A    -20.546166     2A    -11.281454     3A    -11.260915
       4A    -11.209723     5A    -11.207729     6A    -11.203296
       7A     -1.369633     8A     -1.072813     9A     -0.946287
      10A     -0.939464    11A     -0.912507    12A     -0.752527
      13A     -0.655387    14A     -0.644178    15A     -0.638003
      16A     -0.591269    17A     -0.573084    18A     -0.552946
      19A     -0.535389    20A     -0.524138    21A     -0.514854
      22A     -0.489032    23A     -0.486677    24A     -0.438934
      25A     -0.402956

  @DF-RHF Final Energy:  -271.17506715914487

   => Energetics <=

    Nuclear Repulsion Energy =            272.3478814355280520
    One-Electron Energy =                -907.5471761511086015
    Two-Electron Energy =                 364.0242275564357897
    DFT Exchange-Correlation Energy =       0.0000000000000000
    Empirical Dispersion Energy =           0.0000000000000000
    PCM Polarization Energy =               0.0000000000000000
    EFP Energy =                            0.0000000000000000
    Total Energy =                       -271.1750671591447599
    Molecular point group: c1
  Basis Set: 6-31G*
  Basis Set:

  -Total Gradient:
     Atom            X                  Y                   Z
    ------   -----------------  -----------------  -----------------
       1       -0.000018630619     0.000002000595     0.000003021869
       2       -0.000950130736    -0.001592281409    -0.001449617525
       3        0.000566816200     0.001942205184     0.000661037659
       4        0.000017514512    -0.000004893047    -0.000005655858
       5        0.000655544180     0.000797138975     0.001032500030
       6       -0.000272407016    -0.001150870126    -0.000245429345
       7       -0.000007748185     0.000008855326     0.000005257736
       8        0.000003174875    -0.000000313283    -0.000002606102
       9        0.000008846971    -0.000004426983    -0.000001044005
      10        0.000003135282     0.000003279256    -0.000008969593
      11       -0.000005718164    -0.000003907995     0.000010361413
      12       -0.000000980910     0.000006449336     0.000004611143
      13        0.000001908406     0.000000770949     0.000000186981
      14        0.000000495021    -0.000000266639    -0.000001401649
      15        0.000000350445    -0.000001920276    -0.000002214423
      16       -0.000001783561    -0.000000781610     0.000000831188
      17        0.000002188837    -0.000005796352     0.000002798457
      18       -0.000002575539     0.000004758100    -0.000003667975

  **** Optimization is complete! (in 9 steps) ****
    Final optimized geometry and variables:
    Molecular point group: c1

    Geometry (in Angstrom), charge = 0, multiplicity = 1:

    H           -2.046832810994     1.390256514658     0.494918804088
    C           -1.971259176521     0.438102183586    -0.023557474805
    O           -0.754771575884     0.314879787367    -0.694807450864
    H           -2.752889717873     0.391940028406    -0.770287945867
    H           -2.136753060714    -0.353485715949     0.699675663956
    C            0.398395828750    -0.093046972934     0.019499007513
    C            1.535539026932     0.095167181711    -0.981942873481
    C            0.631803125781     0.788344830754     1.250123834808
    C            0.292836240553    -1.569446956002     0.415291780797
    H            1.602417071114     1.135022735493    -1.281303112820
    H            1.352537240700    -0.499578955987    -1.869706308647
    H            2.486682773826    -0.204882551664    -0.554015493905
    H            0.653337540318     1.835355153580     0.966172338780
    H            1.580752199954     0.542712169032     1.715464184192
    H           -0.142622696791     0.654482535402     1.998250961932
    H            0.080617789111    -2.174681782953    -0.459299689250
    H            1.225703749265    -1.912388022997     0.851330929161
    H           -0.489285679567    -1.743326253967     1.146228747241

  Mulliken Charges: (a.u.)
   Center  Symbol    Alpha    Beta     Spin     Total
       1     H     0.42747  0.42747  0.00000  0.14506
       2     C     3.07869  3.07869  0.00000 -0.15738
       3     O     4.31938  4.31938  0.00000 -0.63876
       4     H     0.41354  0.41354  0.00000  0.17293
       5     H     0.43088  0.43088  0.00000  0.13824
       6     C     2.84367  2.84367  0.00000  0.31267
       7     C     3.23304  3.23304  0.00000 -0.46608
       8     C     3.24892  3.24892  0.00000 -0.49784
       9     C     3.24350  3.24350  0.00000 -0.48700
      10     H     0.41468  0.41468  0.00000  0.17064
      11     H     0.41367  0.41367  0.00000  0.17266
      12     H     0.42510  0.42510  0.00000  0.14981
      13     H     0.41361  0.41361  0.00000  0.17277
      14     H     0.41871  0.41871  0.00000  0.16259
      15     H     0.42002  0.42002  0.00000  0.15997
      16     H     0.41325  0.41325  0.00000  0.17350
      17     H     0.42109  0.42109  0.00000  0.15782
      18     H     0.42079  0.42079  0.00000  0.15842

   Total alpha = 25.00000, Total beta = 25.00000, Total charge = -0.00000
