  ==> Input File <==

--------------------------------------------------------------------------
set {
	reference rhf
	basis 6-31G*
}

set_num_threads( 1 )
memory 2 gb

molecule MOL {
0 1

H	 -2.646374	 -0.642757	 1.268656
C	 -2.083525	 -0.384536	 0.393091
O	 -0.807605	 -0.127164	 0.768327
F	 -2.118945	 -1.383102	 -0.486752
F	 -2.621877	 0.670592	 -0.209486
C	 -0.572063	 1.014105	 1.513118
C	 0.630423	 1.711342	 0.890183
Cl	 -0.249202	 0.607347	 3.206494
H	 -1.405165	 1.694803	 1.494038
F	 0.907551	 2.820240	 1.542629
F	 0.337628	 2.031201	 -0.354566
F	 1.695971	 0.948105	 0.883048

	symmetry c1
}
set optking {
	frozen_dihedral = ("
		10 7 6 9,
		9 6 3 2
	")
}

ee = energy('scf')
oeprop('DIPOLE', 'QUADRUPOLE', 'MULLIKEN_CHARGES')
f=open( 'psi4out.xyz', 'w' )
f.write( "12  " )
f.write( str(ee) + "\n" )
f.write( MOL.save_string_xyz() )
f.close()
--------------------------------------------------------------------------

    Molecular point group: c1

    Geometry (in Angstrom), charge = 0, multiplicity = 1:

       Center              X                  Y                   Z               Mass
    ------------   -----------------  -----------------  -----------------  -----------------
           H         -2.188650775250    -1.430928397790     0.252856180752     1.007825032070
           C         -1.625801775250    -1.172707397790    -0.622708819248    12.000000000000
           O         -0.349881775250    -0.915335397790    -0.247472819248    15.994914619560
           F         -1.661221775250    -2.171273397790    -1.502551819248    18.998403224000
           F         -2.164153775250    -0.117579397790    -1.225285819248    18.998403224000
           C         -0.114339775250     0.225933602210     0.497318180752    12.000000000000
           C          1.088146224750     0.923170602210    -0.125616819248    12.000000000000
          CL          0.208521224750    -0.180824397790     2.190694180752    34.968852682000
           H         -0.947441775250     0.906631602210     0.478238180752     1.007825032070
           F          1.365274224750     2.032068602210     0.526829180752    18.998403224000
           F          0.795351224750     1.243029602210    -1.370365819248    18.998403224000
           F          2.153694224750     0.159933602210    -0.132751819248    18.998403224000

  Charge       = 0
  Multiplicity = 1
  Basis Set: 6-31G*
  Basis Set:

    Orbital Energies (a.u.)
    -----------------------

    Doubly Occupied:

       1A   -104.852237     2A    -26.362927     3A    -26.359947
       4A    -26.359367     5A    -26.349308     6A    -26.344908
       7A    -20.649515     8A    -11.530685     9A    -11.491094
      10A    -11.408032    11A    -10.586989    12A     -8.056326
      13A     -8.052843    14A     -8.052703    15A     -1.763005
      16A     -1.715953    17A     -1.659923    18A     -1.657540
      19A     -1.637438    20A     -1.489351    21A     -1.185820
      22A     -1.055592    23A     -0.984569    24A     -0.925393
      25A     -0.858732    26A     -0.854886    27A     -0.848058
      28A     -0.826260    29A     -0.820967    30A     -0.787140
      31A     -0.729173    32A     -0.726163    33A     -0.700363
      34A     -0.693166    35A     -0.681651    36A     -0.675442
      37A     -0.662712    38A     -0.659679    39A     -0.656416
      40A     -0.637898    41A     -0.611592    42A     -0.572644
      43A     -0.519100    44A     -0.485874    45A     -0.476145

  @DF-RHF Final Energy: -1146.30828700961774

   => Energetics <=

    Nuclear Repulsion Energy =            730.0411552931537926
    One-Electron Energy =               -3042.6679432228247606
    Two-Electron Energy =                1166.3185009200533386
    DFT Exchange-Correlation Energy =       0.0000000000000000
    Empirical Dispersion Energy =           0.0000000000000000
    PCM Polarization Energy =               0.0000000000000000
    EFP Energy =                            0.0000000000000000
    Total Energy =                      -1146.3082870096177430

  Mulliken Charges: (a.u.)
   Center  Symbol    Alpha    Beta     Spin     Total
       1     H     0.41684  0.41684  0.00000  0.16632
       2     C     2.56576  2.56576  0.00000  0.86848
       3     O     4.29904  4.29904  0.00000 -0.59808
       4     F     4.67528  4.67528  0.00000 -0.35056
       5     F     4.68165  4.68165  0.00000 -0.36331
       6     C     3.04542  3.04542  0.00000 -0.09083
       7     C     2.43076  2.43076  0.00000  1.13848
       8    CL     8.50147  8.50147  0.00000 -0.00293
       9     H     0.36753  0.36753  0.00000  0.26495
      10     F     4.67391  4.67391  0.00000 -0.34782
      11     F     4.67482  4.67482  0.00000 -0.34963
      12     F     4.66753  4.66753  0.00000 -0.33506

   Total alpha = 45.00000, Total beta = 45.00000, Total charge = -0.00000
