  ==> Input File <==

--------------------------------------------------------------------------
set {
	reference rhf
	basis 6-31G*
}

set_num_threads( 1 )
memory 2 gb

molecule MOL {
0 1

O	 -2.821601	 1.309235	 -0.001213
C	 -2.668563	 0.129746	 -0.000350
C	 -3.801572	 -0.864014	 -0.000442
O	 -1.481751	 -0.454642	 0.000584
H	 -4.417280	 -0.689587	 -0.874708
H	 -3.443784	 -1.883046	 -0.000565
H	 -4.417179	 -0.689832	 0.873954
C	 -0.334255	 0.388708	 0.000906
C	 0.891947	 -0.504646	 0.000751
H	 -0.365390	 1.025305	 -0.873475
H	 -0.365484	 1.024911	 0.875569
C	 2.191998	 0.301789	 0.000897
H	 0.855148	 -1.151283	 -0.871571
H	 0.855132	 -1.151660	 0.872805
C	 2.868054	 0.342670	 -1.370819
H	 1.988856	 1.319357	 0.330097
H	 2.882824	 -0.121897	 0.727762
C	 4.165844	 1.149272	 -1.370926
H	 2.179215	 0.766124	 -2.098324
H	 3.073865	 -0.673282	 -1.700292
H	 3.987155	 2.179901	 -1.077860
H	 4.621094	 1.159982	 -2.356252
H	 4.888634	 0.729497	 -0.677114

	symmetry c1
}
set optking {
	frozen_dihedral = ("
		13 9 8 10,
		2 4 8 10,
		19 15 12 16,
		1 2 4 8
	")
}

ee = energy('scf')
oeprop('DIPOLE', 'QUADRUPOLE', 'MULLIKEN_CHARGES')
f=open( 'psi4out.xyz', 'w' )
f.write( "23  " )
f.write( str(ee) + "\n" )
f.write( MOL.save_string_xyz() )
f.close()
--------------------------------------------------------------------------

    Molecular point group: c1

    Geometry (in Angstrom), charge = 0, multiplicity = 1:

       Center              X                  Y                   Z               Mass
    ------------   -----------------  -----------------  -----------------  -----------------
           O         -2.693613614467     1.102851500499     0.304656498863    15.994914619560
           C         -2.540575614467    -0.076637499501     0.305519498863    12.000000000000
           C         -3.673584614467    -1.070397499501     0.305427498863    12.000000000000
           O         -1.353763614467    -0.661025499501     0.306453498863    15.994914619560
           H         -4.289292614467    -0.895970499501    -0.568838501137     1.007825032070
           H         -3.315796614467    -2.089429499501     0.305304498863     1.007825032070
           H         -4.289191614467    -0.896215499501     1.179823498863     1.007825032070
           C         -0.206267614467     0.182324500499     0.306775498863    12.000000000000
           C          1.019934385533    -0.711029499501     0.306620498863    12.000000000000
           H         -0.237402614467     0.818921500499    -0.567605501137     1.007825032070
           H         -0.237496614467     0.818527500499     1.181438498863     1.007825032070
           C          2.319985385533     0.095405500499     0.306766498863    12.000000000000
           H          0.983135385533    -1.357666499501    -0.565701501137     1.007825032070
           H          0.983119385533    -1.358043499501     1.178674498863     1.007825032070
           C          2.996041385533     0.136286500499    -1.064949501137    12.000000000000
           H          2.116843385533     1.112973500499     0.635966498863     1.007825032070
           H          3.010811385533    -0.328280499501     1.033631498863     1.007825032070
           C          4.293831385533     0.942888500499    -1.065056501137    12.000000000000
           H          2.307202385533     0.559740500499    -1.792454501137     1.007825032070
           H          3.201852385533    -0.879665499501    -1.394422501137     1.007825032070
           H          4.115142385533     1.973517500499    -0.771990501137     1.007825032070
           H          4.749081385533     0.953598500499    -2.050382501137     1.007825032070
           H          5.016621385533     0.523113500499    -0.371244501137     1.007825032070

  Charge       = 0
  Multiplicity = 1
  Basis Set: 6-31G*
  Basis Set:

    Orbital Energies (a.u.)
    -----------------------

    Doubly Occupied:

       1A    -20.602885     2A    -20.540618     3A    -11.374131
       4A    -11.281930     5A    -11.232369     6A    -11.223197
       7A    -11.222616     8A    -11.221573     9A    -11.212420
      10A     -1.467996    11A     -1.360792    12A     -1.094998
      13A     -1.041224    14A     -1.003000    15A     -0.930788
      16A     -0.844603    17A     -0.799090    18A     -0.777905
      19A     -0.688388    20A     -0.684844    21A     -0.672734
      22A     -0.634761    23A     -0.615374    24A     -0.586149
      25A     -0.579294    26A     -0.572637    27A     -0.560536
      28A     -0.531766    29A     -0.526386    30A     -0.502589
      31A     -0.496816    32A     -0.478804    33A     -0.469029
      34A     -0.461631    35A     -0.449265    36A     -0.435543

  @DF-RHF Final Energy:  -422.97511286184073

   => Energetics <=

    Nuclear Repulsion Energy =            453.3978115021843109
    One-Electron Energy =               -1474.3885728394830039
    Two-Electron Energy =                 598.0156484754559187
    DFT Exchange-Correlation Energy =       0.0000000000000000
    Empirical Dispersion Energy =           0.0000000000000000
    PCM Polarization Energy =               0.0000000000000000
    EFP Energy =                            0.0000000000000000
    Total Energy =                       -422.9751128618427174

  Mulliken Charges: (a.u.)
   Center  Symbol    Alpha    Beta     Spin     Total
       1     O     4.28396  4.28396  0.00000 -0.56792
       2     C     2.61552  2.61552  0.00000  0.76896
       3     C     3.28778  3.28778  0.00000 -0.57557
       4     O     4.31231  4.31231  0.00000 -0.62462
       5     H     0.39752  0.39752  0.00000  0.20496
       6     H     0.39984  0.39984  0.00000  0.20033
       7     H     0.39751  0.39751  0.00000  0.20498
       8     C     2.99935  2.99935  0.00000  0.00131
       9     C     3.16592  3.16592  0.00000 -0.33183
      10     H     0.41061  0.41061  0.00000  0.17877
      11     H     0.40997  0.40997  0.00000  0.18006
      12     C     3.16388  3.16388  0.00000 -0.32777
      13     H     0.41207  0.41207  0.00000  0.17585
      14     H     0.41185  0.41185  0.00000  0.17631
      15     C     3.15328  3.15328  0.00000 -0.30657
      16     H     0.41934  0.41934  0.00000  0.16132
      17     H     0.41668  0.41668  0.00000  0.16664
      18     C     3.24027  3.24027  0.00000 -0.48053
      19     H     0.42201  0.42201  0.00000  0.15598
      20     H     0.42066  0.42066  0.00000  0.15868
      21     H     0.42058  0.42058  0.00000  0.15884
      22     H     0.41804  0.41804  0.00000  0.16392
      23     H     0.42105  0.42105  0.00000  0.15789

   Total alpha = 36.00000, Total beta = 36.00000, Total charge = -0.00000
