                              Psi4 1.0.54 Driver

  ==> Input File <==

--------------------------------------------------------------------------
set {
	reference rhf
	basis cc-pvtz
}

set_num_threads( 4 )
memory 2 gb

molecule MOL {
0 1

H	 2.540960	 -0.966826	 -0.179613
O	 1.854088	 -0.402514	 -0.482619
C	 1.135873	 0.113391	 0.608264
C	 0.027642	 1.012027	 0.090274
H	 1.791567	 0.694084	 1.252181
H	 0.724775	 -0.694202	 1.207640
C	 -1.138737	 0.285728	 -0.581921
H	 0.464661	 1.708096	 -0.618252
H	 -0.340737	 1.603071	 0.925246
C	 -1.933983	 -0.631436	 0.343653
H	 -0.763151	 -0.285569	 -1.422081
H	 -1.808359	 1.035291	 -0.992333
H	 -2.789188	 -1.049673	 -0.174718
H	 -1.335629	 -1.461368	 0.700418
H	 -2.305435	 -0.092167	 1.209725

	symmetry c1
}
set optking {
	frozen_dihedral = ("
		2 3 4 8
	")
}

ee,wfn = optimize('scf', return_wfn=True)
oeprop( wfn, 'DIPOLE', 'QUADRUPOLE', 'MULLIKEN_CHARGES')
f=open( 'psi4out.xyz', 'w' )
f.write( "15  " )
f.write( str(ee) + "\n" )
f.write( MOL.save_string_xyz() )
f.close()
--------------------------------------------------------------------------

    Molecular point group: c1
  Charge       = 0
  Multiplicity = 1
  Basis Set: CC-PVTZ
  Basis Set:
  @DF-RHF Final Energy:  -232.23695836219468
    Total Energy =                       -232.2369583621945139
    Molecular point group: c1
  Basis Set: CC-PVTZ
  Basis Set:
  Basis Set: CC-PVTZ
  Basis Set:
  @DF-RHF Final Energy:  -232.21614267677148
    Total Energy =                       -232.2161426767714829
  Basis Set: CC-PVTZ
  Basis Set:
  Basis Set: CC-PVTZ
  Basis Set:
  @DF-RHF Final Energy:  -232.23678416352510
    Total Energy =                       -232.2367841635251580
  Basis Set: CC-PVTZ
  Basis Set:
  Basis Set: CC-PVTZ
  Basis Set:
  @DF-RHF Final Energy:  -232.23715437087134
    Total Energy =                       -232.2371543708713375
  Basis Set: CC-PVTZ
  Basis Set:
  Basis Set: CC-PVTZ
  Basis Set:
  @DF-RHF Final Energy:  -232.23716229177725
    Total Energy =                       -232.2371622917774516
  Basis Set: CC-PVTZ
  Basis Set:
  Basis Set: CC-PVTZ
  Basis Set:
  @DF-RHF Final Energy:  -232.23717055798673
    Total Energy =                       -232.2371705579869285
  Basis Set: CC-PVTZ
  Basis Set:
  Charge       = 0
  Multiplicity = 1
  Basis Set: CC-PVTZ
  Basis Set:

    Orbital Energies (a.u.)
    -----------------------

    Doubly Occupied:

       1A    -20.546240     2A    -11.265286     3A    -11.210676
       4A    -11.208464     5A    -11.204539     6A     -1.363876
       7A     -1.065991     8A     -0.971976     9A     -0.869220
      10A     -0.777251    11A     -0.707663    12A     -0.649205
      13A     -0.608049    14A     -0.577719    15A     -0.564829
      16A     -0.535365    17A     -0.510675    18A     -0.475759
      19A     -0.470781    20A     -0.453372    21A     -0.432533

  @DF-RHF Final Energy:  -232.23717079239901

   => Energetics <=

    Nuclear Repulsion Energy =            190.9406736593697929
    One-Electron Energy =                -693.4167516253828580
    Two-Electron Energy =                 270.2389071736141659
    DFT Exchange-Correlation Energy =       0.0000000000000000
    Empirical Dispersion Energy =           0.0000000000000000
    PCM Polarization Energy =               0.0000000000000000
    EFP Energy =                            0.0000000000000000
    Total Energy =                       -232.2371707923988993
    Molecular point group: c1
  Basis Set: CC-PVTZ
  Basis Set:

  -Total Gradient:
     Atom            X                  Y                   Z
    ------   -----------------  -----------------  -----------------
       1        0.000004399514     0.000006488777    -0.000003782734
       2        0.000831198994     0.001495926165     0.000038782971
       3       -0.001039152616    -0.002315350816    -0.000372488109
       4        0.000072516716     0.002467504053     0.001781656117
       5        0.000004982674     0.000003793384     0.000006228459
       6       -0.000008222487     0.000006621228     0.000003798099
       7       -0.000006250960     0.000001482088    -0.000018580595
       8        0.000133833524    -0.001676932804    -0.001445065711
       9       -0.000010430364     0.000002394309    -0.000003360653
      10        0.000018318764    -0.000010839871     0.000012342508
      11       -0.000004313956    -0.000001424214     0.000004971097
      12        0.000001119427     0.000011529346    -0.000004146681
      13        0.000008687223     0.000004881824    -0.000006727278
      14       -0.000003035225    -0.000002675460     0.000006178139
      15       -0.000003651227     0.000006601989     0.000000194373

  **** Optimization is complete! (in 7 steps) ****
    Final optimized geometry and variables:
    Molecular point group: c1

    Geometry (in Angstrom), charge = 0, multiplicity = 1:

    H            2.594563287747    -0.644245506962     0.399366703982
    O            1.924560529888    -0.200866962771    -0.086925953387
    C            0.952066171324     0.313635112716     0.786766976576
    C           -0.156136734057     0.942470785671    -0.039249650168
    H            1.393011479181     1.071674236757     1.429350314982
    H            0.561969354408    -0.469936990920     1.429709599527
    C           -1.032344277375    -0.053539087313    -0.803201443587
    H            0.315127728172     1.606012072265    -0.756212704477
    H           -0.774969153233     1.552360264053     0.612993152131
    C           -1.949215150675    -0.898503447618     0.077841510360
    H           -0.396004032040    -0.700603278164    -1.396137606588
    H           -1.644005693411     0.502864952542    -1.506508488642
    H           -2.573594768670    -1.545352211563    -0.527788835144
    H           -1.391249617009    -1.533045767060     0.756446301758
    H           -2.605098947430    -0.272253683874     0.674535238636

  Mulliken Charges: (a.u.)
   Center  Symbol    Alpha    Beta     Spin     Total
       1     H     0.39549  0.39549  0.00000  0.20901
       2     O     4.19932  4.19932  0.00000 -0.39863
       3     C     2.97190  2.97190  0.00000  0.05619
       4     C     3.09423  3.09423  0.00000 -0.18846
       5     H     0.46555  0.46555  0.00000  0.06890
       6     H     0.47347  0.47347  0.00000  0.05305
       7     C     3.08968  3.08968  0.00000 -0.17936
       8     H     0.44719  0.44719  0.00000  0.10562
       9     H     0.45378  0.45378  0.00000  0.09243
      10     C     3.15257  3.15257  0.00000 -0.30514
      11     H     0.44694  0.44694  0.00000  0.10612
      12     H     0.45055  0.45055  0.00000  0.09890
      13     H     0.44702  0.44702  0.00000  0.10595
      14     H     0.45565  0.45565  0.00000  0.08871
      15     H     0.45665  0.45665  0.00000  0.08670

   Total alpha = 21.00000, Total beta = 21.00000, Total charge = -0.00000

*** Psi4 exiting successfully. Buy a developer a beer!
