  ==> Input File <==

--------------------------------------------------------------------------
set {
	reference rhf
	basis 6-31G*
}

set_num_threads( 4 )
memory 2 gb

molecule MOL {
0 1

O	 -2.821601	 1.309235	 -0.001213
C	 -2.668563	 0.129746	 -0.000350
C	 -3.801572	 -0.864014	 -0.000442
O	 -1.481751	 -0.454642	 0.000584
H	 -4.417280	 -0.689587	 -0.874708
H	 -3.443784	 -1.883046	 -0.000565
H	 -4.417179	 -0.689832	 0.873954
C	 -0.334255	 0.388708	 0.000906
C	 0.891947	 -0.504646	 0.000751
H	 -0.365390	 1.025305	 -0.873475
H	 -0.365484	 1.024911	 0.875569
C	 0.920869	 -1.443150	 1.208577
H	 1.781161	 0.119596	 -0.006951
H	 0.905746	 -1.081878	 -0.919615
C	 2.150840	 -2.352628	 1.227250
H	 0.895466	 -0.856902	 2.125503
H	 0.021867	 -2.057031	 1.213885
C	 2.180357	 -3.289050	 2.434357
H	 3.050123	 -1.740793	 1.222330
H	 2.176555	 -2.940875	 0.312715
H	 2.189524	 -2.729028	 3.365112
H	 3.063234	 -3.920358	 2.419721
H	 1.309596	 -3.938346	 2.448483

	symmetry c1
}
set optking {
	frozen_dihedral = ("
		13 9 8 10
	")
}

ee = optimize('scf')
oeprop('DIPOLE', 'QUADRUPOLE', 'MULLIKEN_CHARGES')
f=open( 'psi4out.xyz', 'w' )
f.write( "23  " )
f.write( str(ee) + "\n" )
f.write( MOL.save_string_xyz() )
f.close()
--------------------------------------------------------------------------

    Molecular point group: c1
  Charge       = 0
  Multiplicity = 1
  Basis Set: 6-31G*
  Basis Set:
  @DF-RHF Final Energy:  -422.97909253320802
    Total Energy =                       -422.9790925332079041
    Molecular point group: c1
  Basis Set: 6-31G*
  Basis Set:
  Basis Set: 6-31G*
  Basis Set:
  @DF-RHF Final Energy:  -422.97934592476889
    Total Energy =                       -422.9793459247681540
  Basis Set: 6-31G*
  Basis Set:
  Basis Set: 6-31G*
  Basis Set:
  @DF-RHF Final Energy:  -422.97941738066874
    Total Energy =                       -422.9794173806683375
  Basis Set: 6-31G*
  Basis Set:
  Basis Set: 6-31G*
  Basis Set:
  @DF-RHF Final Energy:  -422.97927208603159
    Total Energy =                       -422.9792720860323243
  Basis Set: 6-31G*
  Basis Set:
  Basis Set: 6-31G*
  Basis Set:
  @DF-RHF Final Energy:  -422.97943761068655
    Total Energy =                       -422.9794376106859772
  Basis Set: 6-31G*
  Basis Set:
  Charge       = 0
  Multiplicity = 1
  Basis Set: 6-31G*
  Basis Set:

    Orbital Energies (a.u.)
    -----------------------

    Doubly Occupied:

       1A    -20.603444     2A    -20.541065     3A    -11.374679
       4A    -11.282399     5A    -11.232990     6A    -11.225565
       7A    -11.219180     8A    -11.217822     9A    -11.211299
      10A     -1.468376    11A     -1.361216    12A     -1.091625
      13A     -1.041314    14A     -1.002822    15A     -0.930724
      16A     -0.842714    17A     -0.802380    18A     -0.773814
      19A     -0.688311    20A     -0.684459    21A     -0.666502
      22A     -0.643501    23A     -0.607278    24A     -0.585824
      25A     -0.578719    26A     -0.571496    27A     -0.559303
      28A     -0.531411    29A     -0.528815    30A     -0.510136
      31A     -0.494154    32A     -0.473646    33A     -0.468134
      34A     -0.459718    35A     -0.447362    36A     -0.437593

  @DF-RHF Final Energy:  -422.97943761607564

   => Energetics <=

    Nuclear Repulsion Energy =            458.7419460792970085
    One-Electron Energy =               -1485.1231878234207215
    Two-Electron Energy =                 603.4018041280482976
    DFT Exchange-Correlation Energy =       0.0000000000000000
    Empirical Dispersion Energy =           0.0000000000000000
    PCM Polarization Energy =               0.0000000000000000
    EFP Energy =                            0.0000000000000000
    Total Energy =                       -422.9794376160753018
    Molecular point group: c1
  Basis Set: 6-31G*
  Basis Set:

  -Total Gradient:
     Atom            X                  Y                   Z
    ------   -----------------  -----------------  -----------------
       1        0.000001468140    -0.000010724549     0.000081641387
       2       -0.000007809803     0.000037812322    -0.000169215948
       3        0.000005316234    -0.000004566822     0.000060451639
       4        0.000073987138     0.000042880668     0.000064351016
       5        0.000008161261     0.000000602708    -0.000006838835
       6        0.000000359951     0.000000487565     0.000000916829
       7       -0.000007153726     0.000000415630    -0.000007047176
       8        0.000881066371     0.001214911519     0.001172133274
       9       -0.000149700312    -0.000288681323    -0.001937103935
      10       -0.000775938357    -0.001033510437    -0.000698615186
      11       -0.000044160476     0.000020100247     0.000021172067
      12       -0.000010699856     0.000064917563    -0.000020087831
      13        0.000017212239    -0.000040374143     0.001413042075
      14        0.000000605480     0.000005373345    -0.000014733913
      15        0.000029972754     0.000041067087     0.000030928775
      16        0.000004174024     0.000002758817    -0.000007601605
      17       -0.000019154762    -0.000030110424     0.000012177808
      18       -0.000009013940    -0.000035840621    -0.000018194384
      19        0.000003826701     0.000000524565     0.000016073870
      20        0.000000845478     0.000026021132     0.000009382261
      21        0.000011924525     0.000003700866    -0.000014089148
      22       -0.000007406017    -0.000018634290    -0.000001348331
      23       -0.000007883039     0.000000868577     0.000012605290

  **** Optimization is complete! (in 6 steps) ****
    Final optimized geometry and variables:
    Molecular point group: c1

    Geometry (in Angstrom), charge = 0, multiplicity = 1:

    O           -2.242211799727     2.123178496841    -0.541683349314
    C           -2.117674633841     0.940467225953    -0.556605528380
    C           -3.274755122242    -0.025002858081    -0.576656116518
    O           -0.945335592286     0.327577986037    -0.556588102312
    H           -3.882457487968     0.178245444237    -1.450271381037
    H           -2.942455194816    -1.052553638922    -0.591535712981
    H           -3.889391560815     0.150550861504     0.298149355804
    C            0.223383179131     1.144019034851    -0.538680271069
    C            1.437076955210     0.232857322313    -0.528442077743
    H            0.211967752728     1.773225639426    -1.418309651278
    H            0.192828403919     1.781034124851     0.335195394071
    C            1.502156719752    -0.700975172523     0.682039774500
    H            2.318626571507     0.870606808442    -0.535202395050
    H            1.455098229195    -0.346860417280    -1.447195838605
    C            2.765546440884    -1.563400007871     0.697740848674
    H            1.460399051508    -0.108267911901     1.594738650180
    H            0.626273715557    -1.342248411135     0.690871054344
    C            2.827957063995    -2.504942377706     1.899813708289
    H            3.643368169435    -0.920525623575     0.697228147291
    H            2.814170093750    -2.146530934386    -0.219436838556
    H            2.817918386649    -1.949817933866     2.833541866527
    H            3.731836576825    -3.105865666465     1.882205692250
    H            1.979619796367    -3.183337389585     1.910413985003

  Mulliken Charges: (a.u.)
   Center  Symbol    Alpha    Beta     Spin     Total
       1     O     4.28384  4.28384  0.00000 -0.56768
       2     C     2.61451  2.61451  0.00000  0.77098
       3     C     3.28766  3.28766  0.00000 -0.57532
       4     O     4.31035  4.31035  0.00000 -0.62071
       5     H     0.39735  0.39735  0.00000  0.20530
       6     H     0.40031  0.40031  0.00000  0.19937
       7     H     0.39734  0.39734  0.00000  0.20531
       8     C     3.00321  3.00321  0.00000 -0.00643
       9     C     3.16679  3.16679  0.00000 -0.33358
      10     H     0.40791  0.40791  0.00000  0.18418
      11     H     0.40981  0.40981  0.00000  0.18039
      12     C     3.15386  3.15386  0.00000 -0.30772
      13     H     0.41800  0.41800  0.00000  0.16400
      14     H     0.41453  0.41453  0.00000  0.17094
      15     C     3.15238  3.15238  0.00000 -0.30476
      16     H     0.42400  0.42400  0.00000  0.15200
      17     H     0.41222  0.41222  0.00000  0.17556
      18     C     3.23927  3.23927  0.00000 -0.47854
      19     H     0.42323  0.42323  0.00000  0.15353
      20     H     0.42221  0.42221  0.00000  0.15557
      21     H     0.42129  0.42129  0.00000  0.15741
      22     H     0.41874  0.41874  0.00000  0.16251
      23     H     0.42117  0.42117  0.00000  0.15767

   Total alpha = 36.00000, Total beta = 36.00000, Total charge = -0.00000
