                              Psi4 1.0.54 Driver

  ==> Input File <==

--------------------------------------------------------------------------
set {
	reference rhf
	basis cc-pvtz
}

set_num_threads( 4 )
memory 2 gb

molecule MOL {
0 1

H	 -3.294565	 0.569785	 0.000000
C	 -2.246225	 0.343737	 0.000000
C	 -1.809462	 -0.973484	 0.000000
C	 -1.312577	 1.353775	 0.000000
H	 -2.523539	 -1.775124	 0.000000
C	 -0.467257	 -1.267606	 0.000000
H	 -1.631287	 2.379013	 0.000000
C	 0.046966	 1.074396	 0.000000
H	 -0.119372	 -2.281828	 0.000000
C	 0.471772	 -0.241514	 0.000000
H	 0.748162	 1.882966	 0.000000
O	 1.760432	 -0.625184	 0.000000
C	 2.164179	 -1.711909	 0.777287
H	 1.985214	 -1.534909	 1.831967
H	 3.224394	 -1.825512	 0.614793
H	 1.660874	 -2.624293	 0.477371

	symmetry c1
}
set optking {
	frozen_dihedral = ("
		13 12 10 8
	")
}

ee,wfn = optimize('scf', return_wfn=True)
oeprop( wfn, 'DIPOLE', 'QUADRUPOLE', 'MULLIKEN_CHARGES')
f=open( 'psi4out.xyz', 'w' )
f.write( "16  " )
f.write( str(ee) + "\n" )
f.write( MOL.save_string_xyz() )
f.close()
--------------------------------------------------------------------------

    Molecular point group: c1
  Charge       = 0
  Multiplicity = 1
  Basis Set: CC-PVTZ
  Basis Set:
  @DF-RHF Final Energy:  -344.69513008762647
    Total Energy =                       -344.6951300876261257
    Molecular point group: c1
  Basis Set: CC-PVTZ
  Basis Set:
  Basis Set: CC-PVTZ
  Basis Set:
  @DF-RHF Final Energy:  -344.69795179480212
    Total Energy =                       -344.6979517948020089
  Basis Set: CC-PVTZ
  Basis Set:
  Basis Set: CC-PVTZ
  Basis Set:
  @DF-RHF Final Energy:  -344.70126722697387
    Total Energy =                       -344.7012672269736413
  Basis Set: CC-PVTZ
  Basis Set:
  Basis Set: CC-PVTZ
  Basis Set:
  @DF-RHF Final Energy:  -344.70159342060612
    Total Energy =                       -344.7015934206062298
  Basis Set: CC-PVTZ
  Basis Set:
  Basis Set: CC-PVTZ
  Basis Set:
  @DF-RHF Final Energy:  -344.70169000191640
    Total Energy =                       -344.7016900019165746
  Basis Set: CC-PVTZ
  Basis Set:
  Basis Set: CC-PVTZ
  Basis Set:
  @DF-RHF Final Energy:  -344.70169663720316
    Total Energy =                       -344.7016966372031561
  Basis Set: CC-PVTZ
  Basis Set:
  Charge       = 0
  Multiplicity = 1
  Basis Set: CC-PVTZ
  Basis Set:

    Orbital Energies (a.u.)
    -----------------------

    Doubly Occupied:

       1A    -20.573533     2A    -11.290160     3A    -11.276656
       4A    -11.231870     5A    -11.230572     6A    -11.223480
       7A    -11.219969     8A    -11.219729     9A     -1.412281
      10A     -1.151852    11A     -1.023698    12A     -1.017637
      13A     -0.940555    14A     -0.836360    15A     -0.809221
      16A     -0.722343    17A     -0.668778    18A     -0.666845
      19A     -0.652302    20A     -0.617713    21A     -0.593709
      22A     -0.583763    23A     -0.531226    24A     -0.516920
      25A     -0.509626    26A     -0.485211    27A     -0.454138
      28A     -0.339954    29A     -0.316010

  @DF-RHF Final Energy:  -344.70169784019834

   => Energetics <=

    Nuclear Repulsion Energy =            348.7203572917735528
    One-Electron Energy =               -1158.6118814595915865
    Two-Electron Energy =                 465.1898263276193006
    DFT Exchange-Correlation Energy =       0.0000000000000000
    Empirical Dispersion Energy =           0.0000000000000000
    PCM Polarization Energy =               0.0000000000000000
    EFP Energy =                            0.0000000000000000
    Total Energy =                       -344.7016978401987330
    Molecular point group: c1
  Basis Set: CC-PVTZ
  Basis Set:

  -Total Gradient:
     Atom            X                  Y                   Z
    ------   -----------------  -----------------  -----------------
       1       -0.000004033213    -0.000009472790     0.000005926764
       2        0.000056302547     0.000135276206     0.000023696522
       3        0.000090029314    -0.000094150216    -0.000036193483
       4       -0.000118874371    -0.000053267387    -0.000031193366
       5       -0.000007199385     0.000011411465     0.000003034078
       6       -0.000115723582    -0.000027081000     0.000016982933
       7        0.000010853061     0.000002848367     0.000005355054
       8        0.000138503153    -0.000102356744     0.001645199929
       9        0.000019473159    -0.000004915097     0.000003000480
      10       -0.000001246208     0.000640690951    -0.001758954736
      11        0.000005095335     0.000000658947     0.000002423047
      12       -0.000291329343    -0.001590096838    -0.001124627540
      13        0.000221150015     0.001096794611     0.001403852542
      14        0.000027667374    -0.000001215817    -0.000095981859
      15       -0.000013546230     0.000014234198    -0.000017476284
      16       -0.000017121628    -0.000019358856    -0.000045044083

  **** Optimization is complete! (in 7 steps) ****
    Final optimized geometry and variables:
    Molecular point group: c1

    Geometry (in Angstrom), charge = 0, multiplicity = 1:

    H           -3.192894792576     0.963280619890    -0.106724661223
    C           -2.156263960493     0.687794878664    -0.106642501604
    C           -1.786857849272    -0.641357910410    -0.098844555837
    C           -1.172109257910     1.660753807084    -0.113627132772
    H           -2.539268743021    -1.407103045399    -0.094949109095
    C           -0.452032139541    -1.006679850679    -0.100818432604
    H           -1.443896306103     2.699284243937    -0.115921252102
    C            0.161196277985     1.309749919590    -0.107589349237
    H           -0.183394293221    -2.044045817296    -0.104147747630
    C            0.525338049708    -0.027068811387    -0.108564601215
    H            0.932517001411     2.054589827063    -0.109122644902
    O            1.847633898879    -0.304040890004    -0.136008421265
    C            2.333040464655    -1.358068860782     0.647614940060
    H            1.938974653944    -1.308130590794     1.656077624521
    H            3.406611612763    -1.251777077533     0.677135495955
    H            2.092949591974    -2.323983114635     0.218938350455

  Mulliken Charges: (a.u.)
   Center  Symbol    Alpha    Beta     Spin     Total
       1     H     0.42405  0.42405  0.00000  0.15190
       2     C     3.09535  3.09535  0.00000 -0.19070
       3     C     3.06250  3.06250  0.00000 -0.12500
       4     C     3.06174  3.06174  0.00000 -0.12348
       5     H     0.42272  0.42272  0.00000  0.15457
       6     C     3.12361  3.12361  0.00000 -0.24723
       7     H     0.42256  0.42256  0.00000  0.15488
       8     C     3.11133  3.11133  0.00000 -0.22265
       9     H     0.42356  0.42356  0.00000  0.15288
      10     C     2.86061  2.86061  0.00000  0.27879
      11     H     0.41885  0.41885  0.00000  0.16231
      12     O     4.16404  4.16404  0.00000 -0.32809
      13     C     3.04437  3.04437  0.00000 -0.08874
      14     H     0.46114  0.46114  0.00000  0.07772
      15     H     0.44164  0.44164  0.00000  0.11672
      16     H     0.46193  0.46193  0.00000  0.07614

   Total alpha = 29.00000, Total beta = 29.00000, Total charge = -0.00000

*** Psi4 exiting successfully. Buy a developer a beer!
