                              Psi4 1.0.54 Driver

  ==> Input File <==

--------------------------------------------------------------------------
set {
	reference rhf
	basis cc-pvtz
}

set_num_threads( 4 )
memory 2 gb

molecule MOL {
0 1

H	 2.462321	 -2.217123	 0.000000
O	 2.777308	 -1.330836	 -0.000000
C	 1.763124	 -0.447653	 0.000000
C	 2.088794	 0.901072	 -0.000000
C	 0.441023	 -0.838047	 0.000000
H	 3.123097	 1.182805	 -0.000000
C	 1.092753	 1.850416	 0.000000
H	 0.161188	 -1.870999	 0.000000
C	 -0.532198	 0.141550	 0.000000
H	 1.353892	 2.890394	 -0.000000
C	 -0.242505	 1.482952	 0.000000
N	 -1.937205	 -0.281244	 0.000000
H	 -1.026200	 2.208586	 0.000000
O	 -2.159706	 -1.446391	 -0.000000
O	 -2.765142	 0.565643	 -0.000000

	symmetry c1
}
ee,wfn = energy('scf', return_wfn=True)
oeprop( wfn, 'DIPOLE', 'QUADRUPOLE', 'MULLIKEN_CHARGES')
oeprop( wfn, 'GRID_ESP')
f=open( 'psi4out.xyz', 'w' )
f.write( "15  " )
f.write( str(ee) + "\n" )
f.write( MOL.save_string_xyz() )
f.close()
--------------------------------------------------------------------------

    Molecular point group: c1

    Geometry (in Angstrom), charge = 0, multiplicity = 1:

       Center              X                  Y                   Z               Mass
    ------------   -----------------  -----------------  -----------------  -----------------
           H          2.462485157698    -2.216993030113     0.000000000000     1.007825032070
           O          2.777472157698    -1.330706030113     0.000000000000    15.994914619560
           C          1.763288157698    -0.447523030113     0.000000000000    12.000000000000
           C          2.088958157698     0.901201969887     0.000000000000    12.000000000000
           C          0.441187157698    -0.837917030113     0.000000000000    12.000000000000
           H          3.123261157698     1.182934969887     0.000000000000     1.007825032070
           C          1.092917157698     1.850545969887     0.000000000000    12.000000000000
           H          0.161352157698    -1.870869030113     0.000000000000     1.007825032070
           C         -0.532033842302     0.141679969887     0.000000000000    12.000000000000
           H          1.354056157698     2.890523969887     0.000000000000     1.007825032070
           C         -0.242340842302     1.483081969887     0.000000000000    12.000000000000
           N         -1.937040842302    -0.281114030113     0.000000000000    14.003074004780
           H         -1.026035842302     2.208715969887     0.000000000000     1.007825032070
           O         -2.159541842302    -1.446261030113     0.000000000000    15.994914619560
           O         -2.764977842302     0.565772969887     0.000000000000    15.994914619560

  Charge       = 0
  Multiplicity = 1
  Basis Set: CC-PVTZ
  Basis Set:

    Orbital Energies (a.u.)
    -----------------------

    Doubly Occupied:

       1A    -20.608406     2A    -20.595055     3A    -20.594538
       4A    -15.850652     5A    -11.327658     6A    -11.308957
       7A    -11.263129     8A    -11.262775     9A    -11.258491
      10A    -11.256588    11A     -1.644328    12A     -1.441017
      13A     -1.426738    14A     -1.202480    15A     -1.095486
      16A     -1.047894    17A     -0.966850    18A     -0.881346
      19A     -0.831994    20A     -0.795486    21A     -0.756021
      22A     -0.743629    23A     -0.729557    24A     -0.709387
      25A     -0.677185    26A     -0.636044    27A     -0.621637
      28A     -0.598520    29A     -0.560538    30A     -0.546594
      31A     -0.520071    32A     -0.494942    33A     -0.493648
      34A     -0.460322    35A     -0.380213    36A     -0.346124

  @DF-RHF Final Energy:  -509.21911147891376

   => Energetics <=

    Nuclear Repulsion Energy =            504.7360363576129885
    One-Electron Energy =               -1696.0420734944000287
    Two-Electron Energy =                 682.0869256578725981
    DFT Exchange-Correlation Energy =       0.0000000000000000
    Empirical Dispersion Energy =           0.0000000000000000
    PCM Polarization Energy =               0.0000000000000000
    EFP Energy =                            0.0000000000000000
    Total Energy =                       -509.2191114789143285

  Mulliken Charges: (a.u.)
   Center  Symbol    Alpha    Beta     Spin     Total
       1     H     0.38406  0.38406  0.00000  0.23187
       2     O     4.16874  4.16874  0.00000 -0.33748
       3     C     2.84352  2.84352  0.00000  0.31295
       4     C     3.09740  3.09740  0.00000 -0.19479
       5     C     3.13347  3.13347  0.00000 -0.26694
       6     H     0.41313  0.41313  0.00000  0.17374
       7     C     3.05670  3.05670  0.00000 -0.11340
       8     H     0.40728  0.40728  0.00000  0.18544
       9     C     2.98298  2.98298  0.00000  0.03405
      10     H     0.41597  0.41597  0.00000  0.16807
      11     C     3.09523  3.09523  0.00000 -0.19047
      12     N     3.24898  3.24898  0.00000  0.50204
      13     H     0.39950  0.39950  0.00000  0.20100
      14     O     4.17846  4.17846  0.00000 -0.35691
      15     O     4.17459  4.17459  0.00000 -0.34917

   Total alpha = 36.00000, Total beta = 36.00000, Total charge = -0.00000

*** Psi4 exiting successfully. Buy a developer a beer!
