  ==> Input File <==

--------------------------------------------------------------------------
set {
	reference rhf
	basis 6-31G*
}

set_num_threads( 1 )
memory 2 gb

molecule MOL {
0 1

O	 0.749854	 1.307668	 -0.000040
C	 0.576249	 0.131685	 -0.000108
C	 -0.766779	 -0.556801	 -0.000461
O	 1.568443	 -0.749345	 -0.000005
C	 -1.945214	 0.412366	 0.000161
H	 -0.796911	 -1.211249	 -0.867467
H	 -0.796854	 -1.212390	 0.865687
C	 -1.984451	 1.268521	 -1.264761
H	 -1.884692	 1.048998	 0.876311
H	 -2.869147	 -0.147624	 0.096767
H	 -1.081477	 1.863884	 -1.367886
H	 -2.828281	 1.950388	 -1.244519
H	 -2.077979	 0.654103	 -2.155949
C	 2.886820	 -0.232538	 0.000322
H	 3.059106	 0.369571	 -0.880203
H	 3.540187	 -1.091012	 0.000050
H	 3.059019	 0.368956	 0.881266

	symmetry c1
}
set optking {
	frozen_dihedral = ("
		1 2 3 6,
		14 4 2 1
	")
}

ee = energy('scf')
oeprop('DIPOLE', 'QUADRUPOLE', 'MULLIKEN_CHARGES')
f=open( 'psi4out.xyz', 'w' )
f.write( "17  " )
f.write( str(ee) + "\n" )
f.write( MOL.save_string_xyz() )
f.close()
--------------------------------------------------------------------------

    Molecular point group: c1

    Geometry (in Angstrom), charge = 0, multiplicity = 1:

       Center              X                  Y                   Z               Mass
    ------------   -----------------  -----------------  -----------------  -----------------
           O          0.557996900068     1.074264520512     0.186154648012    15.994914619560
           C          0.384391900068    -0.101718479488     0.186086648012    12.000000000000
           C         -0.958636099932    -0.790204479488     0.185733648012    12.000000000000
           O          1.376585900068    -0.982748479488     0.186189648012    15.994914619560
           C         -2.137071099932     0.178962520512     0.186355648012    12.000000000000
           H         -0.988768099932    -1.444652479488    -0.681272351988     1.007825032070
           H         -0.988711099932    -1.445793479488     1.051881648012     1.007825032070
           C         -2.176308099932     1.035117520512    -1.078566351988    12.000000000000
           H         -2.076549099932     0.815594520512     1.062505648012     1.007825032070
           H         -3.061004099932    -0.381027479488     0.282961648012     1.007825032070
           H         -1.273334099932     1.630480520512    -1.181691351988     1.007825032070
           H         -3.020138099932     1.716984520512    -1.058324351988     1.007825032070
           H         -2.269836099932     0.420699520512    -1.969754351988     1.007825032070
           C          2.694962900068    -0.465941479488     0.186516648012    12.000000000000
           H          2.867248900068     0.136167520512    -0.694008351988     1.007825032070
           H          3.348329900068    -1.324415479488     0.186244648012     1.007825032070
           H          2.867161900068     0.135552520512     1.067460648012     1.007825032070

  Charge       = 0
  Multiplicity = 1
  Basis Set: 6-31G*
  Basis Set:

    Orbital Energies (a.u.)
    -----------------------

    Doubly Occupied:

       1A    -20.605294     2A    -20.547132     3A    -11.374230
       4A    -11.281985     5A    -11.236070     6A    -11.221698
       7A    -11.201647     8A     -1.471309     9A     -1.365330
      10A     -1.079277    11A     -0.998864    12A     -0.935900
      13A     -0.828641    14A     -0.767635    15A     -0.701274
      16A     -0.682600    17A     -0.672566    18A     -0.620533
      19A     -0.614667    20A     -0.566185    21A     -0.561343
      22A     -0.533083    23A     -0.522234    24A     -0.492641
      25A     -0.481602    26A     -0.480580    27A     -0.456881
      28A     -0.433987

  @DF-RHF Final Energy:  -344.90485369078402

   => Energetics <=

    Nuclear Repulsion Energy =            319.6856732749819798
    One-Electron Energy =               -1103.7107678436279912
    Two-Electron Energy =                 439.1202408778610788
    DFT Exchange-Correlation Energy =       0.0000000000000000
    Empirical Dispersion Energy =           0.0000000000000000
    PCM Polarization Energy =               0.0000000000000000
    EFP Energy =                            0.0000000000000000
    Total Energy =                       -344.9048536907848757

  Mulliken Charges: (a.u.)
   Center  Symbol    Alpha    Beta     Spin     Total
       1     O     4.28595  4.28595  0.00000 -0.57189
       2     C     2.60597  2.60597  0.00000  0.78807
       3     C     3.20825  3.20825  0.00000 -0.41650
       4     O     4.30646  4.30646  0.00000 -0.61292
       5     C     3.15230  3.15230  0.00000 -0.30459
       6     H     0.40065  0.40065  0.00000  0.19871
       7     H     0.39856  0.39856  0.00000  0.20289
       8     C     3.25110  3.25110  0.00000 -0.50219
       9     H     0.41161  0.41161  0.00000  0.17678
      10     H     0.41771  0.41771  0.00000  0.16459
      11     H     0.39643  0.39643  0.00000  0.20715
      12     H     0.41989  0.41989  0.00000  0.16022
      13     H     0.42661  0.42661  0.00000  0.14678
      14     C     3.09252  3.09252  0.00000 -0.18504
      15     H     0.40903  0.40903  0.00000  0.18194
      16     H     0.40813  0.40813  0.00000  0.18375
      17     H     0.40886  0.40886  0.00000  0.18229

   Total alpha = 28.00000, Total beta = 28.00000, Total charge =  0.00000
