                              Psi4 1.0.54 Driver

  ==> Input File <==

--------------------------------------------------------------------------
set {
	reference rhf
	basis cc-pvtz
}

set_num_threads( 4 )
memory 2 gb

molecule MOL {
0 1

H	 1.320404	 -1.768100	 1.041655
O	 0.648038	 -1.199032	 0.715863
C	 1.135873	 0.113391	 0.608264
C	 0.027642	 1.012027	 0.090274
H	 1.974205	 0.149782	 -0.082854
H	 1.494396	 0.464834	 1.571805
C	 -1.138737	 0.285728	 -0.581921
H	 0.464661	 1.708096	 -0.618252
H	 -0.340737	 1.603071	 0.925246
C	 -1.933983	 -0.631436	 0.343653
H	 -0.763151	 -0.285569	 -1.422081
H	 -1.808359	 1.035291	 -0.992333
H	 -2.789188	 -1.049673	 -0.174718
H	 -1.335629	 -1.461368	 0.700418
H	 -2.305435	 -0.092167	 1.209725

	symmetry c1
}
set optking {
	frozen_dihedral = ("
		2 3 4 8
	")
}

ee,wfn = optimize('scf', return_wfn=True)
oeprop( wfn, 'DIPOLE', 'QUADRUPOLE', 'MULLIKEN_CHARGES')
f=open( 'psi4out.xyz', 'w' )
f.write( "15  " )
f.write( str(ee) + "\n" )
f.write( MOL.save_string_xyz() )
f.close()
--------------------------------------------------------------------------

    Molecular point group: c1
  Charge       = 0
  Multiplicity = 1
  Basis Set: CC-PVTZ
  Basis Set:
  @DF-RHF Final Energy:  -232.22181409189076
    Total Energy =                       -232.2218140918905647
    Molecular point group: c1
  Basis Set: CC-PVTZ
  Basis Set:
  Basis Set: CC-PVTZ
  Basis Set:
  @DF-RHF Final Energy:  -232.22797051203264
    Total Energy =                       -232.2279705120327549
  Basis Set: CC-PVTZ
  Basis Set:
  Basis Set: CC-PVTZ
  Basis Set:
  @DF-RHF Final Energy:  -232.22932467320723
    Total Energy =                       -232.2293246732073158
  Basis Set: CC-PVTZ
  Basis Set:
  Basis Set: CC-PVTZ
  Basis Set:
  @DF-RHF Final Energy:  -232.22968348121537
    Total Energy =                       -232.2296834812152611
  Basis Set: CC-PVTZ
  Basis Set:
  Basis Set: CC-PVTZ
  Basis Set:
  @DF-RHF Final Energy:  -232.22982119767909
    Total Energy =                       -232.2298211976790867
  Basis Set: CC-PVTZ
  Basis Set:
  Basis Set: CC-PVTZ
  Basis Set:
  @DF-RHF Final Energy:  -232.22983019237216
    Total Energy =                       -232.2298301923722761
  Basis Set: CC-PVTZ
  Basis Set:
  Basis Set: CC-PVTZ
  Basis Set:
  @DF-RHF Final Energy:  -232.22983228754245
    Total Energy =                       -232.2298322875425356
  Basis Set: CC-PVTZ
  Basis Set:
  Charge       = 0
  Multiplicity = 1
  Basis Set: CC-PVTZ
  Basis Set:

    Orbital Energies (a.u.)
    -----------------------

    Doubly Occupied:

       1A    -20.547598     2A    -11.267689     3A    -11.212068
       4A    -11.206101     5A    -11.191922     6A     -1.365763
       7A     -1.058841     8A     -0.969088     9A     -0.862106
      10A     -0.776299    11A     -0.706729    12A     -0.648561
      13A     -0.607479    14A     -0.578274    15A     -0.548061
      16A     -0.536787    17A     -0.509078    18A     -0.475861
      19A     -0.460886    20A     -0.446962    21A     -0.429052

  @DF-RHF Final Energy:  -232.22983250661656

   => Energetics <=

    Nuclear Repulsion Energy =            192.9755361791265500
    One-Electron Energy =                -697.6003296056449017
    Two-Electron Energy =                 272.3949609199017345
    DFT Exchange-Correlation Energy =       0.0000000000000000
    Empirical Dispersion Energy =           0.0000000000000000
    PCM Polarization Energy =               0.0000000000000000
    EFP Energy =                            0.0000000000000000
    Total Energy =                       -232.2298325066166171
    Molecular point group: c1
  Basis Set: CC-PVTZ
  Basis Set:

  -Total Gradient:
     Atom            X                  Y                   Z
    ------   -----------------  -----------------  -----------------
       1        0.000006342625    -0.000005071522     0.000002387984
       2        0.001020480835    -0.000320179575    -0.003096209267
       3       -0.001438254126    -0.000089257963     0.003481192902
       4        0.000770759432     0.003033842145     0.002788885843
       5       -0.000004827664    -0.000002959313    -0.000003219558
       6        0.000001578883    -0.000001537419     0.000005765362
       7       -0.000007587146    -0.000012636207    -0.000022417030
       8       -0.000356259733    -0.002598613934    -0.003168390233
       9        0.000004211496     0.000005042626     0.000008145292
      10        0.000012026457     0.000001340429     0.000020330866
      11       -0.000004042119    -0.000005027363    -0.000003615492
      12        0.000002097946     0.000004722060    -0.000001523565
      13       -0.000017316927    -0.000014507022    -0.000009914482
      14        0.000010555883    -0.000011109695     0.000002016552
      15        0.000000234160     0.000015952753    -0.000003435172

  **** Optimization is complete! (in 8 steps) ****
    Final optimized geometry and variables:
    Molecular point group: c1

    Geometry (in Angstrom), charge = 0, multiplicity = 1:

    H            1.881834751338    -1.499791730836     0.764866725875
    O            1.114627481921    -1.050750128093     0.462089529057
    C            1.372244730016     0.328271834377     0.391619848618
    C            0.141777000802     1.106320948748    -0.104780844752
    H            2.197401274618     0.498667302994    -0.294862583412
    H            1.678463625538     0.706504198738     1.362407781198
    C           -0.908728774058     0.289923314700    -0.871244855954
    H            0.504891136774     1.875125021155    -0.777911125103
    H           -0.340824017192     1.610018909563     0.725574848354
    C           -1.889544486824    -0.473738730797     0.014723248126
    H           -0.414789287116    -0.397824146536    -1.547622844132
    H           -1.472559257177     0.980044469922    -1.491665485899
    H           -2.616688623127    -1.005692342270    -0.589487568661
    H           -1.379835582527    -1.192421656847     0.639658190292
    H           -2.436478069206     0.208745186885     0.658459074698

  Mulliken Charges: (a.u.)
   Center  Symbol    Alpha    Beta     Spin     Total
       1     H     0.39839  0.39839  0.00000  0.20323
       2     O     4.19122  4.19122  0.00000 -0.38245
       3     C     2.96797  2.96797  0.00000  0.06406
       4     C     3.10530  3.10530  0.00000 -0.21060
       5     H     0.47136  0.47136  0.00000  0.05729
       6     H     0.46944  0.46944  0.00000  0.06112
       7     C     3.08313  3.08313  0.00000 -0.16626
       8     H     0.44913  0.44913  0.00000  0.10174
       9     H     0.45403  0.45403  0.00000  0.09195
      10     C     3.14732  3.14732  0.00000 -0.29463
      11     H     0.45204  0.45204  0.00000  0.09592
      12     H     0.45094  0.45094  0.00000  0.09812
      13     H     0.45303  0.45303  0.00000  0.09394
      14     H     0.44599  0.44599  0.00000  0.10802
      15     H     0.46071  0.46071  0.00000  0.07857

   Total alpha = 21.00000, Total beta = 21.00000, Total charge = -0.00000

*** Psi4 exiting successfully. Buy a developer a beer!
