                              Psi4 1.0.54 Driver

  ==> Input File <==

--------------------------------------------------------------------------
set {
	reference rhf
	basis cc-pvtz
}

set_num_threads( 4 )
memory 2 gb

molecule MOL {
0 1

H	 1.436497	 -1.413834	 -0.575642
O	 1.583947	 -0.677544	 -0.001533
C	 0.489979	 0.078084	 0.002623
C	 -0.763662	 -0.754014	 0.000816
O	 0.539051	 1.259395	 -0.000088
C	 -2.038001	 0.074705	 -0.000833
H	 -0.712945	 -1.405886	 -0.864342
H	 -0.715137	 -1.405770	 0.866182
H	 -2.087267	 0.710831	 -0.874232
H	 -2.903419	 -0.576199	 -0.001922
H	 -2.089467	 0.710909	 0.872389

	symmetry c1
}
set optking {
	frozen_dihedral = ("
		1 2 3 5
	")
}

ee,wfn = optimize('scf', return_wfn=True)
oeprop( wfn, 'DIPOLE', 'QUADRUPOLE', 'MULLIKEN_CHARGES')
f=open( 'psi4out.xyz', 'w' )
f.write( "11  " )
f.write( str(ee) + "\n" )
f.write( MOL.save_string_xyz() )
f.close()
--------------------------------------------------------------------------

    Molecular point group: c1
  Charge       = 0
  Multiplicity = 1
  Basis Set: CC-PVTZ
  Basis Set:
  @DF-RHF Final Energy:  -266.93776593202529
    Total Energy =                       -266.9377659320254566
    Molecular point group: c1
  Basis Set: CC-PVTZ
  Basis Set:
  Basis Set: CC-PVTZ
  Basis Set:
  @DF-RHF Final Energy:  -266.93906149173847
    Total Energy =                       -266.9390614917384141
  Basis Set: CC-PVTZ
  Basis Set:
  Basis Set: CC-PVTZ
  Basis Set:
  @DF-RHF Final Energy:  -266.93915711009015
    Total Energy =                       -266.9391571100899796
  Basis Set: CC-PVTZ
  Basis Set:
  Basis Set: CC-PVTZ
  Basis Set:
  @DF-RHF Final Energy:  -266.93905887170581
    Total Energy =                       -266.9390588717056971
  Basis Set: CC-PVTZ
  Basis Set:
  Basis Set: CC-PVTZ
  Basis Set:
  @DF-RHF Final Energy:  -266.93919660133827
    Total Energy =                       -266.9391966013381534
  Basis Set: CC-PVTZ
  Basis Set:
  Charge       = 0
  Multiplicity = 1
  Basis Set: CC-PVTZ
  Basis Set:

    Orbital Energies (a.u.)
    -----------------------

    Doubly Occupied:

       1A    -20.598300     2A    -20.543243     3A    -11.374183
       4A    -11.251669     5A    -11.223445     6A     -1.468863
       7A     -1.374495     8A     -1.068586     9A     -0.909454
      10A     -0.825934    11A     -0.719032    12A     -0.671665
      13A     -0.662003    14A     -0.617469    15A     -0.585535
      16A     -0.534150    17A     -0.525933    18A     -0.511579
      19A     -0.487400    20A     -0.447292

  @DF-RHF Final Energy:  -266.93919756714183

   => Energetics <=

    Nuclear Repulsion Energy =            179.8193343741127421
    One-Electron Energy =                -720.7166016624330496
    Two-Electron Energy =                 273.9580697211785036
    DFT Exchange-Correlation Energy =       0.0000000000000000
    Empirical Dispersion Energy =           0.0000000000000000
    PCM Polarization Energy =               0.0000000000000000
    EFP Energy =                            0.0000000000000000
    Total Energy =                       -266.9391975671418322
    Molecular point group: c1
  Basis Set: CC-PVTZ
  Basis Set:

  -Total Gradient:
     Atom            X                  Y                   Z
    ------   -----------------  -----------------  -----------------
       1        0.002193676493     0.003830037364    -0.005275731067
       2       -0.002968156222    -0.004723222007     0.004043424624
       3        0.001004721098     0.000686506452     0.007134498361
       4        0.000017482663     0.000015408250     0.000083355806
       5       -0.000222159712     0.000202851044    -0.005937981641
       6       -0.000003940159     0.000010535870    -0.000017736252
       7        0.000006598291     0.000008314954    -0.000024533850
       8       -0.000020048784    -0.000015116459    -0.000023159579
       9        0.000009364395    -0.000008425118     0.000016286098
      10       -0.000016842634    -0.000004221337     0.000006106265
      11       -0.000000695429    -0.000002669014    -0.000004528763

  **** Optimization is complete! (in 6 steps) ****
    Final optimized geometry and variables:
    Molecular point group: c1

    Geometry (in Angstrom), charge = 0, multiplicity = 1:

    H            1.552118248190    -1.378861651640    -0.630766333061
    O            1.632860248563    -0.636602481437    -0.056910663553
    C            0.498689571218     0.083366138010    -0.003603934501
    C           -0.768853198042    -0.738805889187     0.026813111293
    O            0.537493852876     1.257151892404     0.018455228679
    C           -2.036302582248     0.099791077881     0.059641053754
    H           -0.763498989991    -1.392592396721    -0.842169945438
    H           -0.706135205818    -1.391471845723     0.891333629631
    H           -2.102221276529     0.737538372525    -0.811356100454
    H           -2.908057554611    -0.542420793696     0.082556927586
    H           -2.054601782077     0.735252402855     0.934233978098

  Mulliken Charges: (a.u.)
   Center  Symbol    Alpha    Beta     Spin     Total
       1     H     0.38813  0.38813  0.00000  0.22375
       2     O     4.15525  4.15525  0.00000 -0.31051
       3     C     2.80640  2.80640  0.00000  0.38720
       4     C     3.11022  3.11022  0.00000 -0.22045
       5     O     4.16789  4.16789  0.00000 -0.33579
       6     C     3.14000  3.14000  0.00000 -0.28000
       7     H     0.45333  0.45333  0.00000  0.09333
       8     H     0.43703  0.43703  0.00000  0.12593
       9     H     0.44693  0.44693  0.00000  0.10614
      10     H     0.45033  0.45033  0.00000  0.09934
      11     H     0.44447  0.44447  0.00000  0.11106

   Total alpha = 20.00000, Total beta = 20.00000, Total charge = -0.00000

*** Psi4 exiting successfully. Buy a developer a beer!
