                              Psi4 1.0.54 Driver

  ==> Input File <==

--------------------------------------------------------------------------
set {
	reference rhf
	basis cc-pvtz
}

set_num_threads( 4 )
memory 2 gb

molecule MOL {
0 1

O	 1.434664	 0.499990	 -1.028480
C	 0.860843	 0.273204	 -0.013120
C	 -0.623368	 -0.117453	 -0.005652
C	 1.599603	 0.375837	 1.306623
C	 -0.892588	 -1.253841	 -1.002900
C	 -1.473463	 1.100646	 -0.372896
C	 -0.981836	 -0.579025	 1.418506
H	 -0.609333	 -0.970024	 -2.010649
H	 -1.950451	 -1.487353	 -1.013175
H	 -0.360848	 -2.161259	 -0.746463
H	 -1.232203	 1.461623	 -1.364827
H	 -2.524364	 0.834451	 -0.354500
H	 -1.312381	 1.914833	 0.318657
H	 -2.035706	 -0.826342	 1.468082
H	 -0.425078	 -1.458934	 1.716857
H	 -0.788494	 0.205047	 2.140903
H	 1.859666	 -0.620128	 1.647481
H	 2.508017	 0.937654	 1.152954
H	 1.004206	 0.840174	 2.080656

	symmetry c1
}
set optking {
	frozen_dihedral = ("
		1 2 3 5
	")
}

ee,wfn = optimize('scf', return_wfn=True)
oeprop( wfn, 'DIPOLE', 'QUADRUPOLE', 'MULLIKEN_CHARGES')
f=open( 'psi4out.xyz', 'w' )
f.write( "19  " )
f.write( str(ee) + "\n" )
f.write( MOL.save_string_xyz() )
f.close()
--------------------------------------------------------------------------

    Molecular point group: c1
  Charge       = 0
  Multiplicity = 1
  Basis Set: CC-PVTZ
  Basis Set:
  @DF-RHF Final Energy:  -309.16808981552686
    Total Energy =                       -309.1680898155269688
    Molecular point group: c1
  Basis Set: CC-PVTZ
  Basis Set:
  Basis Set: CC-PVTZ
  Basis Set:
  @DF-RHF Final Energy:  -309.16883364949825
    Total Energy =                       -309.1688336494981968
  Basis Set: CC-PVTZ
  Basis Set:
  Basis Set: CC-PVTZ
  Basis Set:
  @DF-RHF Final Energy:  -309.17218931881661
    Total Energy =                       -309.1721893188170611
  Basis Set: CC-PVTZ
  Basis Set:
  Basis Set: CC-PVTZ
  Basis Set:
  @DF-RHF Final Energy:  -309.17278201949932
    Total Energy =                       -309.1727820194990954
  Basis Set: CC-PVTZ
  Basis Set:
  @DF-RHF Final Energy:  -309.17219651940877
    Total Energy =                       -309.1721965194096811
  @DF-RHF Final Energy:  -309.17265401710580
    Total Energy =                       -309.1726540171054012
  @DF-RHF Final Energy:  -309.17302005741357
    Total Energy =                       -309.1730200574136234
  @DF-RHF Final Energy:  -309.17297772144570
    Total Energy =                       -309.1729777214457044
  @DF-RHF Final Energy:  -309.17297843604138
    Total Energy =                       -309.1729784360411486
  Basis Set: CC-PVTZ
  Basis Set:
  @DF-RHF Final Energy:  -309.17307883836190
    Total Energy =                       -309.1730788383615049
  Basis Set: CC-PVTZ
  Basis Set:
  Basis Set: CC-PVTZ
  Basis Set:
  @DF-RHF Final Energy:  -309.17308077870348
    Total Energy =                       -309.1730807787034792
  Basis Set: CC-PVTZ
  Basis Set:
  Basis Set: CC-PVTZ
  Basis Set:
  @DF-RHF Final Energy:  -309.17308259619762
    Total Energy =                       -309.1730825961976734
  Basis Set: CC-PVTZ
  Basis Set:
  Charge       = 0
  Multiplicity = 1
  Basis Set: CC-PVTZ
  Basis Set:

    Orbital Energies (a.u.)
    -----------------------

    Doubly Occupied:

       1A    -20.536351     2A    -11.318516     3A    -11.245513
       4A    -11.226104     5A    -11.219838     6A    -11.216893
       7A    -11.211748     8A     -1.398283     9A     -1.109042
      10A     -1.004747    11A     -0.943165    12A     -0.939291
      13A     -0.833999    14A     -0.705720    15A     -0.666835
      16A     -0.633602    17A     -0.624167    18A     -0.589030
      19A     -0.586578    20A     -0.573399    21A     -0.552634
      22A     -0.546681    23A     -0.523510    24A     -0.515009
      25A     -0.503123    26A     -0.472442    27A     -0.463029
      28A     -0.393776

  @DF-RHF Final Energy:  -309.17308300612109

   => Energetics <=

    Nuclear Repulsion Energy =            326.7908217979369851
    One-Electron Energy =               -1066.8217590606805061
    Two-Electron Energy =                 430.8578542566223177
    DFT Exchange-Correlation Energy =       0.0000000000000000
    Empirical Dispersion Energy =           0.0000000000000000
    PCM Polarization Energy =               0.0000000000000000
    EFP Energy =                            0.0000000000000000
    Total Energy =                       -309.1730830061211464
    Molecular point group: c1
  Basis Set: CC-PVTZ
  Basis Set:

  -Total Gradient:
     Atom            X                  Y                   Z
    ------   -----------------  -----------------  -----------------
       1       -0.000231157768     0.000914880813     0.000100632561
       2        0.000437732077    -0.001412267680     0.000063549873
       3       -0.000320355429     0.000905889869    -0.000630601485
       4       -0.000007419949     0.000030181894    -0.000009227207
       5        0.000158014420    -0.000423992370     0.000511988021
       6       -0.000022483081    -0.000020062390     0.000019938707
       7        0.000001771122     0.000013008952     0.000001467328
       8       -0.000001907831     0.000011233992    -0.000020991531
       9       -0.000019691534    -0.000007378948    -0.000000074822
      10        0.000004206890    -0.000007376349     0.000011019832
      11        0.000010228665     0.000005591509    -0.000008686227
      12       -0.000021375180    -0.000001744453    -0.000004552912
      13        0.000005014137     0.000004208315     0.000009705104
      14        0.000000811228    -0.000003411409    -0.000002560066
      15        0.000006279133     0.000006650629    -0.000004019796
      16       -0.000011618954    -0.000010479219    -0.000010977925
      17       -0.000011490704     0.000009405292    -0.000021582771
      18        0.000009095869    -0.000001146223     0.000006896876
      19        0.000014346893    -0.000013192225    -0.000011923564

  **** Optimization is complete! (in 13 steps) ****
    Final optimized geometry and variables:
    Molecular point group: c1

    Geometry (in Angstrom), charge = 0, multiplicity = 1:

    O            1.308744663663     0.459292522579    -1.195009007850
    C            0.864601927989     0.246587592848    -0.113167123261
    C           -0.604396421730    -0.191706589017     0.035015165634
    C            1.727985771669     0.450156396654     1.111700437648
    C           -0.854159824933    -1.356326983367    -0.932595831168
    C           -1.467357993810     1.015288532171    -0.367699824269
    C           -0.970615509957    -0.629821720033     1.457564056695
    H           -0.610898728966    -1.075181619259    -1.946566944206
    H           -1.896086533357    -1.653513141081    -0.894329833896
    H           -0.252594448440    -2.219918374859    -0.669538383022
    H           -1.244676437616     1.325224438011    -1.379166050205
    H           -2.518409652711     0.756848605653    -0.308076554173
    H           -1.297607422345     1.861327321163     0.290544158767
    H           -2.012365639749    -0.925933472247     1.486762482654
    H           -0.383441095266    -1.480616934710     1.782997030869
    H           -0.840565277469     0.166144001753     2.180282941297
    H            1.822047747092    -0.470081887996     1.674958534413
    H            2.704120038306     0.785363119895     0.797704012507
    H            1.285564517594     1.187504238199     1.771236157207

  Mulliken Charges: (a.u.)
   Center  Symbol    Alpha    Beta     Spin     Total
       1     O     4.18140  4.18140  0.00000 -0.36280
       2     C     2.84612  2.84612  0.00000  0.30775
       3     C     3.00577  3.00577  0.00000 -0.01153
       4     C     3.16275  3.16275  0.00000 -0.32550
       5     C     3.15347  3.15347  0.00000 -0.30694
       6     C     3.15338  3.15338  0.00000 -0.30675
       7     C     3.16565  3.16565  0.00000 -0.33131
       8     H     0.43507  0.43507  0.00000  0.12987
       9     H     0.45074  0.45074  0.00000  0.09852
      10     H     0.45029  0.45029  0.00000  0.09943
      11     H     0.43684  0.43684  0.00000  0.12632
      12     H     0.44915  0.44915  0.00000  0.10170
      13     H     0.44976  0.44976  0.00000  0.10048
      14     H     0.44252  0.44252  0.00000  0.11496
      15     H     0.44549  0.44549  0.00000  0.10902
      16     H     0.44574  0.44574  0.00000  0.10852
      17     H     0.44719  0.44719  0.00000  0.10562
      18     H     0.43169  0.43169  0.00000  0.13661
      19     H     0.44698  0.44698  0.00000  0.10604

   Total alpha = 28.00000, Total beta = 28.00000, Total charge = -0.00000

*** Psi4 exiting successfully. Buy a developer a beer!
