  ==> Input File <==

--------------------------------------------------------------------------
set {
	reference rhf
	basis 6-31G*
}

set_num_threads( 1 )
memory 2 gb

molecule MOL {
0 1

H	 -2.646374	 -0.642757	 1.268656
C	 -2.083525	 -0.384536	 0.393091
O	 -0.807605	 -0.127164	 0.768327
F	 -2.118945	 -1.383102	 -0.486752
F	 -2.621877	 0.670592	 -0.209486
C	 0.084052	 0.273579	 -0.209957
C	 1.475445	 0.219810	 0.407535
Cl	 -0.287264	 1.912588	 -0.769411
H	 0.069460	 -0.375392	 -1.068092
F	 2.383938	 0.577933	 -0.474807
F	 1.728773	 -1.020317	 0.775432
F	 1.580108	 0.994561	 1.459571

	symmetry c1
}
set optking {
	frozen_dihedral = ("
		10 7 6 9,
		6 3 2 4
	")
}

ee = energy('scf')
oeprop('DIPOLE', 'QUADRUPOLE', 'MULLIKEN_CHARGES')
f=open( 'psi4out.xyz', 'w' )
f.write( "12  " )
f.write( str(ee) + "\n" )
f.write( MOL.save_string_xyz() )
f.close()
--------------------------------------------------------------------------

    Molecular point group: c1

    Geometry (in Angstrom), charge = 0, multiplicity = 1:

       Center              X                  Y                   Z               Mass
    ------------   -----------------  -----------------  -----------------  -----------------
           H         -2.571569684906    -0.980206562042     1.198603986343     1.007825032070
           C         -2.008720684906    -0.721985562042     0.323038986343    12.000000000000
           O         -0.732800684906    -0.464613562042     0.698274986343    15.994914619560
           F         -2.044140684906    -1.720551562042    -0.556804013657    18.998403224000
           F         -2.547072684906     0.333142437958    -0.279538013657    18.998403224000
           C          0.158856315094    -0.063870562042    -0.280009013657    12.000000000000
           C          1.550249315094    -0.117639562042     0.337482986343    12.000000000000
          CL         -0.212459684906     1.575138437958    -0.839463013657    34.968852682000
           H          0.144264315094    -0.712841562042    -1.138144013657     1.007825032070
           F          2.458742315094     0.240483437958    -0.544859013657    18.998403224000
           F          1.803577315094    -1.357766562042     0.705379986343    18.998403224000
           F          1.654912315094     0.657111437958     1.389518986343    18.998403224000

  Charge       = 0
  Multiplicity = 1
  Basis Set: 6-31G*
  Basis Set:

    Orbital Energies (a.u.)
    -----------------------

    Doubly Occupied:

       1A   -104.837592     2A    -26.360863     3A    -26.358848
       4A    -26.357923     5A    -26.345376     6A    -26.340368
       7A    -20.650091     8A    -11.529282     9A    -11.488115
      10A    -11.399504    11A    -10.572879    12A     -8.042227
      13A     -8.038633    14A     -8.038572    15A     -1.761491
      16A     -1.715510    17A     -1.658066    18A     -1.656487
      19A     -1.636002    20A     -1.485852    21A     -1.177701
      22A     -1.053487    23A     -0.984875    24A     -0.919005
      25A     -0.858432    26A     -0.851794    27A     -0.846133
      28A     -0.815979    29A     -0.809268    30A     -0.790007
      31A     -0.729873    32A     -0.726213    33A     -0.709806
      34A     -0.696554    35A     -0.679965    36A     -0.675026
      37A     -0.658403    38A     -0.656354    39A     -0.644634
      40A     -0.635702    41A     -0.598554    42A     -0.573119
      43A     -0.524826    44A     -0.469974    45A     -0.463932

  @DF-RHF Final Energy: -1146.30773024708083

   => Energetics <=

    Nuclear Repulsion Energy =            741.3262395548822496
    One-Electron Energy =               -3065.6212876718982443
    Two-Electron Energy =                1177.9873178699358505
    DFT Exchange-Correlation Energy =       0.0000000000000000
    Empirical Dispersion Energy =           0.0000000000000000
    PCM Polarization Energy =               0.0000000000000000
    EFP Energy =                            0.0000000000000000
    Total Energy =                      -1146.3077302470801442

  Mulliken Charges: (a.u.)
   Center  Symbol    Alpha    Beta     Spin     Total
       1     H     0.40172  0.40172  0.00000  0.19657
       2     C     2.55372  2.55372  0.00000  0.89257
       3     O     4.30550  4.30550  0.00000 -0.61100
       4     F     4.68863  4.68863  0.00000 -0.37726
       5     F     4.68215  4.68215  0.00000 -0.36431
       6     C     3.04892  3.04892  0.00000 -0.09785
       7     C     2.42947  2.42947  0.00000  1.14106
       8    CL     8.50180  8.50180  0.00000 -0.00360
       9     H     0.36881  0.36881  0.00000  0.26238
      10     F     4.67452  4.67452  0.00000 -0.34905
      11     F     4.67635  4.67635  0.00000 -0.35270
      12     F     4.66841  4.66841  0.00000 -0.33682

   Total alpha = 45.00000, Total beta = 45.00000, Total charge =  0.00000
