                              Psi4 1.0.54 Driver

  ==> Input File <==

--------------------------------------------------------------------------
set {
	reference rhf
	basis cc-pvtz
}

set_num_threads( 4 )
memory 2 gb

molecule MOL {
0 1

H	 -3.941973	 0.934228	 -0.390224
C	 -3.240162	 0.342701	 0.161016
C	 -2.105997	 -0.000418	 -0.398703
H	 -3.485368	 0.047206	 1.162193
O	 -1.189946	 -0.765863	 0.237511
H	 -1.846458	 0.297311	 -1.398265
C	 0.026572	 -0.995256	 -0.379403
C	 1.057223	 0.049888	 -0.004615
H	 -0.054361	 -1.010670	 -1.459674
H	 0.397526	 -1.952058	 -0.044198
F	 0.669497	 1.228125	 -0.450154
F	 1.207787	 0.145666	 1.299097
F	 2.233065	 -0.209342	 -0.522934

	symmetry c1
}
set optking {
	frozen_dihedral = ("
		11 8 7 9
	")
}

ee,wfn = optimize('scf', return_wfn=True)
oeprop( wfn, 'DIPOLE', 'QUADRUPOLE', 'MULLIKEN_CHARGES')
f=open( 'psi4out.xyz', 'w' )
f.write( "13  " )
f.write( str(ee) + "\n" )
f.write( MOL.save_string_xyz() )
f.close()
--------------------------------------------------------------------------

    Molecular point group: c1
  Charge       = 0
  Multiplicity = 1
  Basis Set: CC-PVTZ
  Basis Set:
  @DF-RHF Final Energy:  -527.74149901282442
    Total Energy =                       -527.7414990128240788
    Molecular point group: c1
  Basis Set: CC-PVTZ
  Basis Set:
  Basis Set: CC-PVTZ
  Basis Set:
  @DF-RHF Final Energy:  -527.74193753833254
    Total Energy =                       -527.7419375383325360
  Basis Set: CC-PVTZ
  Basis Set:
  Basis Set: CC-PVTZ
  Basis Set:
  @DF-RHF Final Energy:  -527.74205090852934
    Total Energy =                       -527.7420509085291087
  Basis Set: CC-PVTZ
  Basis Set:
  Basis Set: CC-PVTZ
  Basis Set:
  @DF-RHF Final Energy:  -527.74206470721469
    Total Energy =                       -527.7420647072148085
  Basis Set: CC-PVTZ
  Basis Set:
  Basis Set: CC-PVTZ
  Basis Set:
  @DF-RHF Final Energy:  -527.74206649996199
    Total Energy =                       -527.7420664999618793
  Basis Set: CC-PVTZ
  Basis Set:
  Charge       = 0
  Multiplicity = 1
  Basis Set: CC-PVTZ
  Basis Set:

    Orbital Energies (a.u.)
    -----------------------

    Doubly Occupied:

       1A    -26.341640     2A    -26.340602     3A    -26.338309
       4A    -20.604065     5A    -11.497878     6A    -11.320183
       7A    -11.298649     8A    -11.213873     9A     -1.750494
      10A     -1.646757    11A     -1.645658    12A     -1.444632
      13A     -1.088161    14A     -1.020674    15A     -0.932303
      16A     -0.844009    17A     -0.839546    18A     -0.827213
      19A     -0.798327    20A     -0.728691    21A     -0.719288
      22A     -0.703755    23A     -0.681879    24A     -0.668098
      25A     -0.661719    26A     -0.650986    27A     -0.640930
      28A     -0.588042    29A     -0.566404    30A     -0.528898
      31A     -0.518540    32A     -0.356681

  @DF-RHF Final Energy:  -527.74206715300693

   => Energetics <=

    Nuclear Repulsion Energy =            413.6092800666235121
    One-Electron Energy =               -1551.0889264317704601
    Two-Electron Energy =                 609.7375792121399627
    DFT Exchange-Correlation Energy =       0.0000000000000000
    Empirical Dispersion Energy =           0.0000000000000000
    PCM Polarization Energy =               0.0000000000000000
    EFP Energy =                            0.0000000000000000
    Total Energy =                       -527.7420671530069285
    Molecular point group: c1
  Basis Set: CC-PVTZ
  Basis Set:

  -Total Gradient:
     Atom            X                  Y                   Z
    ------   -----------------  -----------------  -----------------
       1       -0.000012603306    -0.000013897273    -0.000009314571
       2       -0.000001331695     0.000003334805    -0.000006150480
       3        0.000042795533     0.000090597944     0.000012372970
       4       -0.000001723711    -0.000001087281     0.000010283166
       5        0.000016007235    -0.000095005966    -0.000004142585
       6       -0.000014734853    -0.000007431144    -0.000016557807
       7        0.000432832270    -0.000356363790    -0.000185448573
       8       -0.000441452701     0.000231973768     0.000618755468
       9       -0.000350201652     0.000310496775     0.000041676305
      10        0.000002444613    -0.000026289343     0.000020283795
      11        0.000216745110    -0.000151545630    -0.000333456496
      12       -0.000040492106     0.000025491920    -0.000008231796
      13        0.000151715256    -0.000010274784    -0.000140069395

  **** Optimization is complete! (in 6 steps) ****
    Final optimized geometry and variables:
    Molecular point group: c1

    Geometry (in Angstrom), charge = 0, multiplicity = 1:

    H           -3.939004720313     0.910173863878    -0.409346264771
    C           -3.237242607432     0.323415943001     0.147065447043
    C           -2.100487286538    -0.019523850871    -0.407602371889
    H           -3.484756403748     0.032081145538     1.148918358953
    O           -1.184829118017    -0.780471625339     0.234488933223
    H           -1.838980852985     0.274210628473    -1.407877096856
    C            0.038136906902    -1.000770414207    -0.373289371575
    C            1.055000560569     0.058382919943     0.000475011250
    H           -0.038021206798    -1.021519203081    -1.453810303772
    H            0.416568003050    -1.951631516187    -0.029904869614
    F            0.701598012589     1.250976970474    -0.429529511220
    F            1.232002034411     0.138004598477     1.296489377160
    F            2.216225760089    -0.235413409774    -0.550172992438

  Mulliken Charges: (a.u.)
   Center  Symbol    Alpha    Beta     Spin     Total
       1     H     0.42515  0.42515  0.00000  0.14969
       2     C     3.19734  3.19734  0.00000 -0.39468
       3     C     2.95895  2.95895  0.00000  0.08209
       4     H     0.42473  0.42473  0.00000  0.15055
       5     O     4.14448  4.14448  0.00000 -0.28897
       6     H     0.43446  0.43446  0.00000  0.13108
       7     C     3.01911  3.01911  0.00000 -0.03823
       8     C     2.67566  2.67566  0.00000  0.64868
       9     H     0.45520  0.45520  0.00000  0.08961
      10     H     0.43506  0.43506  0.00000  0.12988
      11     F     4.61067  4.61067  0.00000 -0.22134
      12     F     4.60645  4.60645  0.00000 -0.21291
      13     F     4.61272  4.61272  0.00000 -0.22545

   Total alpha = 32.00000, Total beta = 32.00000, Total charge = -0.00000

*** Psi4 exiting successfully. Buy a developer a beer!
