                              Psi4 1.0.54 Driver

  ==> Input File <==

--------------------------------------------------------------------------
set {
	reference rhf
	basis cc-pvtz
}

set_num_threads( 4 )
memory 2 gb

molecule MOL {
0 1

H	 -1.706885	 1.865234	 3.888537
O	 -1.013563	 1.300094	 3.601978
C	 -1.019177	 1.200286	 2.202541
C	 0.110431	 0.282917	 1.779998
H	 -1.969770	 0.802791	 1.853052
H	 -0.888425	 2.181259	 1.750405
C	 0.196029	 0.106276	 0.266738
H	 -0.031278	 -0.680302	 2.259944
H	 1.042540	 0.686985	 2.161860
C	 1.330220	 -0.826136	 -0.155230
H	 -0.751697	 -0.274434	 -0.101488
H	 0.340130	 1.076496	 -0.203889
C	 2.719700	 -0.407669	 0.328325
H	 1.339388	 -0.911200	 -1.239363
H	 1.119001	 -1.821953	 0.224128
C	 3.241564	 0.893452	 -0.276737
H	 3.418299	 -1.204729	 0.093035
H	 2.711776	 -0.323368	 1.411960
H	 3.254204	 0.841071	 -1.360784
H	 2.634460	 1.745075	 0.005842
H	 4.254264	 1.092401	 0.054971

	symmetry c1
}
set optking {
	frozen_dihedral = ("
		4 7 10 14
	")
}

ee,wfn = optimize('scf', return_wfn=True)
oeprop( wfn, 'DIPOLE', 'QUADRUPOLE', 'MULLIKEN_CHARGES')
f=open( 'psi4out.xyz', 'w' )
f.write( "21  " )
f.write( str(ee) + "\n" )
f.write( MOL.save_string_xyz() )
f.close()
--------------------------------------------------------------------------

    Molecular point group: c1
  Charge       = 0
  Multiplicity = 1
  Basis Set: CC-PVTZ
  Basis Set:
  @DF-RHF Final Energy:  -310.33043152196478
    Total Energy =                       -310.3304315219643854
    Molecular point group: c1
  Basis Set: CC-PVTZ
  Basis Set:
  Basis Set: CC-PVTZ
  Basis Set:
  @DF-RHF Final Energy:  -310.33098743388399
    Total Energy =                       -310.3309874338837631
  Basis Set: CC-PVTZ
  Basis Set:
  Basis Set: CC-PVTZ
  Basis Set:
  @DF-RHF Final Energy:  -310.33142679774932
    Total Energy =                       -310.3314267977493159
  Basis Set: CC-PVTZ
  Basis Set:
  Basis Set: CC-PVTZ
  Basis Set:
  @DF-RHF Final Energy:  -310.33145070711788
    Total Energy =                       -310.3314507071178809
  Basis Set: CC-PVTZ
  Basis Set:
  Basis Set: CC-PVTZ
  Basis Set:
  @DF-RHF Final Energy:  -310.33145212767448
    Total Energy =                       -310.3314521276747655
  Basis Set: CC-PVTZ
  Basis Set:
  Charge       = 0
  Multiplicity = 1
  Basis Set: CC-PVTZ
  Basis Set:

    Orbital Energies (a.u.)
    -----------------------

    Doubly Occupied:

       1A    -20.545532     2A    -11.265171     3A    -11.213403
       4A    -11.211868     5A    -11.211125     6A    -11.208786
       7A    -11.205353     8A     -1.363398     9A     -1.087297
      10A     -1.031115    11A     -0.956809    12A     -0.876182
      13A     -0.819714    14A     -0.764882    15A     -0.693633
      16A     -0.661409    17A     -0.628443    18A     -0.616907
      19A     -0.575447    20A     -0.560288    21A     -0.554532
      22A     -0.527697    23A     -0.501627    24A     -0.492504
      25A     -0.480230    26A     -0.456831    27A     -0.449325
      28A     -0.447423    29A     -0.437566

  @DF-RHF Final Energy:  -310.33145220918237

   => Energetics <=

    Nuclear Repulsion Energy =            319.2765873565506922
    One-Electron Energy =               -1053.5270812421933897
    Two-Electron Energy =                 423.9190416764602105
    DFT Exchange-Correlation Energy =       0.0000000000000000
    Empirical Dispersion Energy =           0.0000000000000000
    PCM Polarization Energy =               0.0000000000000000
    EFP Energy =                            0.0000000000000000
    Total Energy =                       -310.3314522091825438
    Molecular point group: c1
  Basis Set: CC-PVTZ
  Basis Set:

  -Total Gradient:
     Atom            X                  Y                   Z
    ------   -----------------  -----------------  -----------------
       1        0.000001662624     0.000002412303     0.000004048290
       2       -0.000010006935     0.000000594196     0.000004691861
       3        0.000000627682    -0.000005175719    -0.000004079780
       4        0.000488466469     0.000664318600    -0.000098235161
       5       -0.000000559561     0.000001686007     0.000003368930
       6        0.000004448854    -0.000007571665     0.000000816049
       7       -0.000546964926    -0.000771628082     0.000108205245
       8       -0.000003350293     0.000006920929     0.000005080534
       9        0.000010478618    -0.000000842735    -0.000006447127
      10       -0.000608287956    -0.000818622183     0.000136506146
      11       -0.000000353181     0.000003569966     0.000004642029
      12        0.000017369863     0.000002875760    -0.000011017243
      13       -0.000009398250     0.000002745169    -0.000011332281
      14        0.000672202372     0.000907767251    -0.000136382120
      15       -0.000012706639     0.000006817207     0.000005159698
      16        0.000013774441    -0.000002613383    -0.000011018278
      17       -0.000004381351    -0.000001055233    -0.000008191032
      18       -0.000005843190    -0.000005856108     0.000017632390
      19        0.000007712289     0.000004876208    -0.000004983259
      20       -0.000013012060     0.000002453737     0.000000039926
      21       -0.000001878872     0.000006327778     0.000001495184

  **** Optimization is complete! (in 6 steps) ****
    Final optimized geometry and variables:
    Molecular point group: c1

    Geometry (in Angstrom), charge = 0, multiplicity = 1:

    H           -2.656910559068     1.480108837185     2.594320858645
    O           -1.888963891917     0.990987008814     2.363779509808
    C           -1.877555462387     0.731069231286     0.985111121929
    C           -0.627054857882    -0.058256092487     0.653225099818
    H           -2.760765617783     0.164980059807     0.697154254221
    H           -1.887595210097     1.662204487523     0.422140442681
    C           -0.511665220928    -0.366547419471    -0.837673248265
    H           -0.640258910386    -0.980621118528     1.226164229456
    H            0.229838932357     0.509471843964     0.996221586148
    C            0.656787713036    -1.282954154868    -1.212283233575
    H           -1.428972389827    -0.842332102575    -1.174153498069
    H           -0.439354897479     0.564674385718    -1.392053918295
    C            2.054457593185    -0.796883428290    -0.818687580463
    H            0.640105647365    -1.431941979276    -2.288745363434
    H            0.492287276778    -2.258919590851    -0.764360484315
    C            2.470850359129     0.522040410846    -1.464867586475
    H            2.766819439619    -1.564970933185    -1.104046383276
    H            2.128165188282    -0.709431259624     0.260120417955
    H            2.405868487915     0.464597063946    -2.546835752540
    H            1.847228950845     1.346965316003    -1.140887079057
    H            3.494722235523     0.769302621400    -1.208943401142

  Mulliken Charges: (a.u.)
   Center  Symbol    Alpha    Beta     Spin     Total
       1     H     0.39744  0.39744  0.00000  0.20513
       2     O     4.19496  4.19496  0.00000 -0.38992
       3     C     2.96412  2.96412  0.00000  0.07177
       4     C     3.08773  3.08773  0.00000 -0.17546
       5     H     0.47330  0.47330  0.00000  0.05340
       6     H     0.47478  0.47478  0.00000  0.05044
       7     C     3.11633  3.11633  0.00000 -0.23266
       8     H     0.44978  0.44978  0.00000  0.10043
       9     H     0.44929  0.44929  0.00000  0.10141
      10     C     3.09949  3.09949  0.00000 -0.19898
      11     H     0.44525  0.44525  0.00000  0.10951
      12     H     0.45112  0.45112  0.00000  0.09776
      13     C     3.09793  3.09793  0.00000 -0.19586
      14     H     0.44862  0.44862  0.00000  0.10277
      15     H     0.44817  0.44817  0.00000  0.10367
      16     C     3.15236  3.15236  0.00000 -0.30471
      17     H     0.44513  0.44513  0.00000  0.10974
      18     H     0.44963  0.44963  0.00000  0.10074
      19     H     0.45450  0.45450  0.00000  0.09101
      20     H     0.45422  0.45422  0.00000  0.09156
      21     H     0.44587  0.44587  0.00000  0.10826

   Total alpha = 29.00000, Total beta = 29.00000, Total charge =  0.00000

*** Psi4 exiting successfully. Buy a developer a beer!
