  ==> Input File <==

--------------------------------------------------------------------------
set {
	reference rhf
	basis 6-31G*
}

set_num_threads( 4 )
memory 2 gb

molecule MOL {
0 1

H	 -2.657337	 -0.498583	 -0.790384
O	 -2.347518	 -0.290803	 0.079804
C	 -1.184022	 0.487508	 -0.006784
C	 0.062599	 -0.378592	 0.031606
H	 -1.176523	 1.099369	 -0.904519
H	 -1.187323	 1.153111	 0.844927
O	 1.171513	 0.459272	 -0.058250
H	 0.050699	 -1.089204	 -0.797170
H	 0.078739	 -0.954914	 0.954740
C	 2.397842	 -0.198080	 -0.002151
H	 2.508049	 -0.905315	 -0.822092
H	 3.173794	 0.550865	 -0.078850
H	 2.517602	 -0.735921	 0.936026

	symmetry c1
}
set optking {
	frozen_dihedral = ("
		1 2 3 5
	")
}

ee = optimize('scf')
oeprop('DIPOLE', 'QUADRUPOLE', 'MULLIKEN_CHARGES')
f=open( 'psi4out.xyz', 'w' )
f.write( "13  " )
f.write( str(ee) + "\n" )
f.write( MOL.save_string_xyz() )
f.close()
--------------------------------------------------------------------------

    Molecular point group: c1
  Charge       = 0
  Multiplicity = 1
  Basis Set: 6-31G*
  Basis Set:
  @DF-RHF Final Energy:  -267.95020558803611
    Total Energy =                       -267.9502055880361695
    Molecular point group: c1
  Basis Set: 6-31G*
  Basis Set:
  Basis Set: 6-31G*
  Basis Set:
  @DF-RHF Final Energy:  -267.95025618476461
    Total Energy =                       -267.9502561847650099
  Basis Set: 6-31G*
  Basis Set:
  Basis Set: 6-31G*
  Basis Set:
  @DF-RHF Final Energy:  -267.95028084211896
    Total Energy =                       -267.9502808421189570
  Basis Set: 6-31G*
  Basis Set:
  Charge       = 0
  Multiplicity = 1
  Basis Set: 6-31G*
  Basis Set:

    Orbital Energies (a.u.)
    -----------------------

    Doubly Occupied:

       1A    -20.560719     2A    -20.559460     3A    -11.269342
       4A    -11.269020     5A    -11.268062     6A     -1.387011
       7A     -1.364330     8A     -1.017836     9A     -0.912479
      10A     -0.838307    11A     -0.711705    12A     -0.674256
      13A     -0.655361    14A     -0.638751    15A     -0.598110
      16A     -0.561969    17A     -0.545772    18A     -0.486019
      19A     -0.484605    20A     -0.437367    21A     -0.420395

  @DF-RHF Final Energy:  -267.95028118091227

   => Energetics <=

    Nuclear Repulsion Energy =            190.1753988680916052
    One-Electron Energy =                -742.9296079228137160
    Two-Electron Energy =                 284.8039278738098687
    DFT Exchange-Correlation Energy =       0.0000000000000000
    Empirical Dispersion Energy =           0.0000000000000000
    PCM Polarization Energy =               0.0000000000000000
    EFP Energy =                            0.0000000000000000
    Total Energy =                       -267.9502811809122136
    Molecular point group: c1
  Basis Set: 6-31G*
  Basis Set:

  -Total Gradient:
     Atom            X                  Y                   Z
    ------   -----------------  -----------------  -----------------
       1       -0.000650437242     0.000917880884    -0.000005458904
       2        0.000957524183    -0.001306901674    -0.000207781266
       3       -0.000783139666     0.001143093136     0.000738669661
       4        0.000032795782    -0.000001500968    -0.000011910576
       5        0.000435909479    -0.000758821041    -0.000487285333
       6        0.000015475770     0.000021002479    -0.000002020781
       7       -0.000000957434     0.000004117242    -0.000009767973
       8        0.000019235103    -0.000022472999    -0.000006126306
       9       -0.000018289118     0.000010988344    -0.000001800543
      10       -0.000001147220    -0.000015475199    -0.000007545762
      11        0.000005154073     0.000001500682    -0.000000349078
      12       -0.000011287257     0.000004973460    -0.000000594953
      13       -0.000000836456     0.000001615654     0.000001971814

  **** Optimization is complete! (in 4 steps) ****
    Final optimized geometry and variables:
    Molecular point group: c1

    Geometry (in Angstrom), charge = 0, multiplicity = 1:

    H           -2.645605167355    -0.522857912167    -0.783212957260
    O           -2.339928842231    -0.299446525592     0.083317131098
    C           -1.182500495144     0.490667669738    -0.006618110098
    C            0.061403527364    -0.378890028832     0.027047607711
    H           -1.176091669265     1.091315380639    -0.911116101527
    H           -1.176551077262     1.164369784824     0.839428844267
    O            1.173172309405     0.457745051884    -0.054584160470
    H            0.046654394471    -1.083170253960    -0.805709960732
    H            0.074665061884    -0.960309842572     0.946881489976
    C            2.397459071987    -0.203468542565    -0.001652883950
    H            2.506526948217    -0.904756882094    -0.826826994874
    H            3.175908420134     0.543704045137    -0.071612177247
    H            2.514341046330    -0.748858948574     0.932584840395

  Mulliken Charges: (a.u.)
   Center  Symbol    Alpha    Beta     Spin     Total
       1     H     0.27936  0.27936  0.00000  0.44129
       2     O     4.37242  4.37242  0.00000 -0.74483
       3     C     3.00695  3.00695  0.00000 -0.01390
       4     C     2.99341  2.99341  0.00000  0.01318
       5     H     0.42267  0.42267  0.00000  0.15467
       6     H     0.40987  0.40987  0.00000  0.18027
       7     O     4.30840  4.30840  0.00000 -0.61679
       8     H     0.43530  0.43530  0.00000  0.12941
       9     H     0.42359  0.42359  0.00000  0.15282
      10     C     3.07963  3.07963  0.00000 -0.15925
      11     H     0.42936  0.42936  0.00000  0.14127
      12     H     0.41121  0.41121  0.00000  0.17757
      13     H     0.42785  0.42785  0.00000  0.14431

   Total alpha = 21.00000, Total beta = 21.00000, Total charge = -0.00000
