  ==> Input File <==

--------------------------------------------------------------------------
set {
	reference rhf
	basis 6-31G*
}

set_num_threads( 4 )
memory 2 gb

molecule MOL {
0 1

O	 1.846825	 1.296220	 0.000415
C	 1.705091	 0.115954	 0.001797
C	 0.381791	 -0.609817	 0.001258
O	 2.721346	 -0.737485	 -0.000216
C	 -0.823008	 0.326187	 0.001381
H	 0.371250	 -1.265087	 -0.865474
H	 0.370908	 -1.265746	 0.867490
C	 -1.799948	 0.014593	 1.136088
H	 -1.332331	 0.253549	 -0.954392
H	 -0.478597	 1.352415	 0.082288
C	 -3.015098	 0.943602	 1.150662
H	 -2.138887	 -1.016889	 1.051470
H	 -1.282664	 0.086771	 2.091645
C	 -3.990254	 0.632561	 2.285375
H	 -3.534423	 0.870746	 0.197701
H	 -2.678188	 1.974302	 1.236028
H	 -4.372025	 -0.381558	 2.207739
H	 -4.840225	 1.307643	 2.269168
H	 -3.508806	 0.730333	 3.254375
C	 4.024888	 -0.184556	 -0.001949
H	 4.179030	 0.422472	 -0.882452
H	 4.701782	 -1.024608	 -0.003642
H	 4.181981	 0.421185	 0.878906

	symmetry c1
}
set optking {
	frozen_dihedral = ("
		9 5 3 6
	")
}

ee = optimize('scf')
oeprop('DIPOLE', 'QUADRUPOLE', 'MULLIKEN_CHARGES')
f=open( 'psi4out.xyz', 'w' )
f.write( "23  " )
f.write( str(ee) + "\n" )
f.write( MOL.save_string_xyz() )
f.close()
--------------------------------------------------------------------------

    Molecular point group: c1
  Charge       = 0
  Multiplicity = 1
  Basis Set: 6-31G*
  Basis Set:
  @DF-RHF Final Energy:  -422.97151264143787
    Total Energy =                       -422.9715126414380393
    Molecular point group: c1
  Basis Set: 6-31G*
  Basis Set:
  Basis Set: 6-31G*
  Basis Set:
  @DF-RHF Final Energy:  -422.97173138455747
    Total Energy =                       -422.9717313845578701
  Basis Set: 6-31G*
  Basis Set:
  Basis Set: 6-31G*
  Basis Set:
  @DF-RHF Final Energy:  -422.97167802430226
    Total Energy =                       -422.9716780243023777
  Basis Set: 6-31G*
  Basis Set:
  Basis Set: 6-31G*
  Basis Set:
  @DF-RHF Final Energy:  -422.97189600144054
    Total Energy =                       -422.9718960014407685
  Basis Set: 6-31G*
  Basis Set:
  Basis Set: 6-31G*
  Basis Set:
  @DF-RHF Final Energy:  -422.97189970459317
    Total Energy =                       -422.9718997045931701
  Basis Set: 6-31G*
  Basis Set:
  Charge       = 0
  Multiplicity = 1
  Basis Set: 6-31G*
  Basis Set:

    Orbital Energies (a.u.)
    -----------------------

    Doubly Occupied:

       1A    -20.603837     2A    -20.546217     3A    -11.373040
       4A    -11.281016     5A    -11.235379     6A    -11.217407
       7A    -11.216676     8A    -11.215278     9A    -11.208777
      10A     -1.469856    11A     -1.363202    12A     -1.090643
      13A     -1.042453    14A     -0.986537    15A     -0.931385
      16A     -0.843909    17A     -0.794725    18A     -0.766791
      19A     -0.700303    20A     -0.681340    21A     -0.672177
      22A     -0.644916    23A     -0.611035    24A     -0.599465
      25A     -0.570854    26A     -0.557507    27A     -0.555981
      28A     -0.527883    29A     -0.523340    30A     -0.501002
      31A     -0.486306    32A     -0.467881    33A     -0.463178
      34A     -0.457768    35A     -0.455285    36A     -0.437697

  @DF-RHF Final Energy:  -422.97190021192222

   => Energetics <=

    Nuclear Repulsion Energy =            453.8596399413362974
    One-Electron Energy =               -1475.4609840574025839
    Two-Electron Energy =                 598.6294439041439546
    DFT Exchange-Correlation Energy =       0.0000000000000000
    Empirical Dispersion Energy =           0.0000000000000000
    PCM Polarization Energy =               0.0000000000000000
    EFP Energy =                            0.0000000000000000
    Total Energy =                       -422.9719002119222750
    Molecular point group: c1
  Basis Set: 6-31G*
  Basis Set:

  -Total Gradient:
     Atom            X                  Y                   Z
    ------   -----------------  -----------------  -----------------
       1        0.000015046382    -0.000019930979    -0.000049339627
       2       -0.000086944427     0.000087432200     0.000069313378
       3       -0.000947515420    -0.001214250232     0.000961329098
       4       -0.000036741647    -0.000006352263     0.000004034304
       5        0.000985690941     0.001326017790    -0.000758055483
       6        0.000585337257     0.000808916743    -0.000653995562
       7        0.000014285621     0.000008960113    -0.000018524860
       8       -0.000016373946    -0.000072761227     0.000031191817
       9       -0.000628255911    -0.000902250802     0.000421886761
      10        0.000057343820    -0.000017613767     0.000008647433
      11        0.000046484869     0.000005917943    -0.000019178845
      12       -0.000009097515     0.000010883257    -0.000017755738
      13       -0.000005440758    -0.000032432319     0.000013457377
      14        0.000011437984     0.000015386981     0.000023548941
      15       -0.000003505503    -0.000008444554     0.000003304635
      16       -0.000011394669     0.000009408296    -0.000013079739
      17        0.000004752414     0.000005532202    -0.000007414034
      18        0.000000332135     0.000002751175     0.000004361672
      19       -0.000004165154    -0.000004612781     0.000002349083
      20        0.000028405659    -0.000004925212     0.000000961334
      21       -0.000001296180    -0.000000004232    -0.000001523149
      22        0.000005767147     0.000004674427    -0.000002667355
      23       -0.000004153110    -0.000002302761    -0.000002851438

  **** Optimization is complete! (in 6 steps) ****
    Final optimized geometry and variables:
    Molecular point group: c1

    Geometry (in Angstrom), charge = 0, multiplicity = 1:

    O            1.732192456014     1.102644181070    -0.485811670516
    C            1.567399369063    -0.074393642702    -0.503298335488
    C            0.236378453055    -0.792365868630    -0.489164792482
    O            2.569305548879    -0.944255967536    -0.535461088172
    C           -0.987742515936     0.137376460960    -0.486261586276
    H            0.237450476405    -1.454887580071    -1.348623156014
    H            0.247273551823    -1.442424377827     0.380791095015
    C           -1.976927094179    -0.182056688121     0.637907753451
    H           -1.502891161026     0.056172468285    -1.438999374810
    H           -0.655896340810     1.163941131995    -0.396911308517
    C           -3.203388552857     0.730846235827     0.631614241358
    H           -2.300256276132    -1.218954154247     0.556858443645
    H           -1.468846561587    -0.094717843723     1.597048127067
    C           -4.184296514153     0.420644768482     1.761751031833
    H           -3.714418061020     0.640288482571    -0.324633005390
    H           -2.879894061480     1.766496742481     0.707593196602
    H           -4.552017114034    -0.599393869725     1.693348815743
    H           -5.042914128832     1.084137695634     1.730291765943
    H           -3.712397878807     0.536662259266     2.733334419702
    C            3.882052238062    -0.413551804034    -0.547256446053
    H            4.033487763144     0.206357611393    -1.419172171542
    H            4.544167402061    -1.264930291242    -0.574189231995
    H            4.062766694676     0.173357022027     0.341764154674

  Mulliken Charges: (a.u.)
   Center  Symbol    Alpha    Beta     Spin     Total
       1     O     4.28487  4.28487  0.00000 -0.56974
       2     C     2.61322  2.61322  0.00000  0.77357
       3     C     3.20944  3.20944  0.00000 -0.41888
       4     O     4.30539  4.30539  0.00000 -0.61079
       5     C     3.16148  3.16148  0.00000 -0.32296
       6     H     0.39748  0.39748  0.00000  0.20504
       7     H     0.39772  0.39772  0.00000  0.20456
       8     C     3.15519  3.15519  0.00000 -0.31037
       9     H     0.41882  0.41882  0.00000  0.16236
      10     H     0.39404  0.39404  0.00000  0.21193
      11     C     3.15260  3.15260  0.00000 -0.30520
      12     H     0.42441  0.42441  0.00000  0.15118
      13     H     0.42223  0.42223  0.00000  0.15555
      14     C     3.23943  3.23943  0.00000 -0.47887
      15     H     0.42283  0.42283  0.00000  0.15434
      16     H     0.41997  0.41997  0.00000  0.16005
      17     H     0.42221  0.42221  0.00000  0.15559
      18     H     0.41877  0.41877  0.00000  0.16246
      19     H     0.42132  0.42132  0.00000  0.15736
      20     C     3.09198  3.09198  0.00000 -0.18396
      21     H     0.40899  0.40899  0.00000  0.18203
      22     H     0.40848  0.40848  0.00000  0.18303
      23     H     0.40914  0.40914  0.00000  0.18172

   Total alpha = 36.00000, Total beta = 36.00000, Total charge = -0.00000
