                              Psi4 1.0.54 Driver

  ==> Input File <==

--------------------------------------------------------------------------
set {
	reference rhf
	basis cc-pvtz
}

set_num_threads( 4 )
memory 2 gb

molecule MOL {
0 1

H	 -2.491821	 -2.555349	 0.315932
C	 -2.865611	 -1.685141	 -0.240759
C	 -2.682079	 -0.362640	 0.452927
O	 -3.375180	 -1.833119	 -1.297049
C	 -1.240895	 -0.131610	 0.916920
H	 -3.018767	 0.423724	 -0.210101
H	 -3.339170	 -0.373190	 1.319774
C	 -0.247837	 0.040196	 -0.230469
H	 -1.220744	 0.751486	 1.546265
H	 -0.929239	 -0.959614	 1.548958
C	 1.181757	 0.280428	 0.247371
H	 -0.565712	 0.872305	 -0.853089
H	 -0.268941	 -0.838282	 -0.870202
C	 2.151032	 -0.811012	 -0.202643
H	 1.515939	 1.247397	 -0.115449
H	 1.191514	 0.341223	 1.333422
C	 3.580021	 -0.656538	 0.320835
H	 2.170545	 -0.847575	 -1.289412
H	 1.766632	 -1.772905	 0.124928
C	 4.327657	 0.562694	 -0.213579
H	 4.138806	 -1.549270	 0.057813
H	 3.561991	 -0.620783	 1.406976
H	 4.355973	 0.557257	 -1.298551
H	 3.867136	 1.491650	 0.100501
H	 5.351524	 0.571613	 0.142204

	symmetry c1
}
set optking {
	frozen_dihedral = ("
		12 8 11 14
	")
}

ee,wfn = optimize('scf', return_wfn=True)
oeprop( wfn, 'DIPOLE', 'QUADRUPOLE', 'MULLIKEN_CHARGES')
f=open( 'psi4out.xyz', 'w' )
f.write( "25  " )
f.write( str(ee) + "\n" )
f.write( MOL.save_string_xyz() )
f.close()
--------------------------------------------------------------------------

    Molecular point group: c1
  Charge       = 0
  Multiplicity = 1
  Basis Set: CC-PVTZ
  Basis Set:
  @DF-RHF Final Energy:  -387.25472978723843
    Total Energy =                       -387.2547297872383751
    Molecular point group: c1
  Basis Set: CC-PVTZ
  Basis Set:
  Basis Set: CC-PVTZ
  Basis Set:
  @DF-RHF Final Energy:  -387.25495176911767
    Total Energy =                       -387.2549517691176106
  Basis Set: CC-PVTZ
  Basis Set:
  Basis Set: CC-PVTZ
  Basis Set:
  @DF-RHF Final Energy:  -387.25500603506043
    Total Energy =                       -387.2550060350608874
  Basis Set: CC-PVTZ
  Basis Set:
  Basis Set: CC-PVTZ
  Basis Set:
  @DF-RHF Final Energy:  -387.25466062653470
    Total Energy =                       -387.2546606265347009
  Basis Set: CC-PVTZ
  Basis Set:
  Basis Set: CC-PVTZ
  Basis Set:
  @DF-RHF Final Energy:  -387.25501317171671
    Total Energy =                       -387.2550131717165414
  Basis Set: CC-PVTZ
  Basis Set:
  Basis Set: CC-PVTZ
  Basis Set:
  @DF-RHF Final Energy:  -387.25500669176341
    Total Energy =                       -387.2550066917631284
  Basis Set: CC-PVTZ
  Basis Set:
  Basis Set: CC-PVTZ
  Basis Set:
  @DF-RHF Final Energy:  -387.25501453864257
    Total Energy =                       -387.2550145386423992
  Basis Set: CC-PVTZ
  Basis Set:
  Charge       = 0
  Multiplicity = 1
  Basis Set: CC-PVTZ
  Basis Set:

    Orbital Energies (a.u.)
    -----------------------

    Doubly Occupied:

       1A    -20.551358     2A    -11.321016     3A    -11.233785
       4A    -11.233181     5A    -11.221471     6A    -11.217478
       7A    -11.216629     8A    -11.216015     9A    -11.208800
      10A     -1.406392    11A     -1.104081    12A     -1.070930
      13A     -1.012896    14A     -0.943276    15A     -0.877341
      16A     -0.821858    17A     -0.788786    18A     -0.783043
      19A     -0.668521    20A     -0.657429    21A     -0.632736
      22A     -0.626639    23A     -0.607010    24A     -0.593953
      25A     -0.580136    26A     -0.555844    27A     -0.531598
      28A     -0.527634    29A     -0.512678    30A     -0.498186
      31A     -0.490092    32A     -0.480848    33A     -0.463594
      34A     -0.453775    35A     -0.443707    36A     -0.411887

  @DF-RHF Final Energy:  -387.25501461201463

   => Energetics <=

    Nuclear Repulsion Energy =            441.4090818857522436
    One-Electron Energy =               -1399.3989845401574712
    Two-Electron Energy =                 570.7348880423908213
    DFT Exchange-Correlation Energy =       0.0000000000000000
    Empirical Dispersion Energy =           0.0000000000000000
    PCM Polarization Energy =               0.0000000000000000
    EFP Energy =                            0.0000000000000000
    Total Energy =                       -387.2550146120144063
    Molecular point group: c1
  Basis Set: CC-PVTZ
  Basis Set:

  -Total Gradient:
     Atom            X                  Y                   Z
    ------   -----------------  -----------------  -----------------
       1        0.000003295557     0.000013061039     0.000007326681
       2       -0.000004850579    -0.000011701605    -0.000007070086
       3       -0.000007062562    -0.000000120193     0.000000279609
       4        0.000005121184     0.000011403127    -0.000003367873
       5        0.000009224913     0.000007517666    -0.000002096130
       6       -0.000001979554    -0.000004252357     0.000001416272
       7        0.000001034011    -0.000004995269     0.000000508539
       8       -0.000125312672     0.000213830713     0.000226394395
       9        0.000008234055    -0.000000763726     0.000000998310
      10       -0.000003041093     0.000000840677    -0.000001906862
      11       -0.000029158165    -0.000187728875     0.000219557797
      12        0.000107482391    -0.000151779998    -0.000249430903
      13       -0.000001341615     0.000000810908     0.000001141049
      14        0.000045492399     0.000118156751    -0.000190611388
      15       -0.000001428691    -0.000005180574    -0.000001293515
      16       -0.000002269432     0.000000714682     0.000000247792
      17       -0.000002085574     0.000003978920     0.000000115712
      18       -0.000004877501    -0.000001615209    -0.000000837266
      19        0.000005086006     0.000001139470     0.000001868286
      20        0.000000443733    -0.000002315647    -0.000002677193
      21        0.000001535847    -0.000000571877     0.000000401645
      22       -0.000003320600     0.000000628878    -0.000000266016
      23       -0.000000471995     0.000002009995    -0.000001592757
      24        0.000000305113    -0.000001213449     0.000001553564
      25       -0.000000055185    -0.000001854045    -0.000000659660

  **** Optimization is complete! (in 8 steps) ****
    Final optimized geometry and variables:
    Molecular point group: c1

    Geometry (in Angstrom), charge = 0, multiplicity = 1:

    H           -2.588711390123    -2.042361548295     0.347564445754
    C           -2.968683465951    -1.172201266230    -0.205023088118
    C           -2.789855942558     0.148927301881     0.492664574054
    O           -3.481073050654    -1.319122102826    -1.260068634037
    C           -1.350293991549     0.384066032578     0.957918323212
    H           -3.129161428861     0.936092861696    -0.168170697088
    H           -3.447467121873     0.133427256143     1.359086333250
    C           -0.355816768554     0.560825660635    -0.188832115684
    H           -1.332102155698     1.266294283234     1.588439012741
    H           -1.034695708201    -0.443767971497     1.588716826087
    C            1.092117092547     0.794820221077     0.288903282233
    H           -0.683002876501     1.388425661276    -0.809177226835
    H           -0.388293519464    -0.314683069997    -0.830277240037
    C            2.060857607001    -0.297911037329    -0.163362384949
    H            1.437565937926     1.757630498935    -0.067116079840
    H            1.113423982356     0.852729169711     1.373802350631
    C            3.490975712755    -0.145463332961     0.356166893609
    H            2.075809810890    -0.334589271036    -1.250090649715
    H            1.675073997156    -1.259687932674     0.165177920064
    C            4.239994920524     1.070779719741    -0.183451896610
    H            4.047206873810    -1.040100201952     0.093907623155
    H            3.475730101113    -0.106789807589     1.442348412569
    H            4.263270001696     1.063533566932    -1.268468746541
    H            3.784061041368     2.001689470011     0.131258600477
    H            5.265486181462     1.076670126680     0.167645298236

  Mulliken Charges: (a.u.)
   Center  Symbol    Alpha    Beta     Spin     Total
       1     H     0.46397  0.46397  0.00000  0.07206
       2     C     2.90573  2.90573  0.00000  0.18855
       3     C     3.08829  3.08829  0.00000 -0.17658
       4     O     4.16622  4.16622  0.00000 -0.33244
       5     C     3.11443  3.11443  0.00000 -0.22885
       6     H     0.44306  0.44306  0.00000  0.11389
       7     H     0.44070  0.44070  0.00000  0.11859
       8     C     3.09861  3.09861  0.00000 -0.19721
       9     H     0.44188  0.44188  0.00000  0.11625
      10     H     0.44942  0.44942  0.00000  0.10115
      11     C     3.10079  3.10079  0.00000 -0.20159
      12     H     0.44398  0.44398  0.00000  0.11204
      13     H     0.44757  0.44757  0.00000  0.10486
      14     C     3.09586  3.09586  0.00000 -0.19172
      15     H     0.44412  0.44412  0.00000  0.11175
      16     H     0.45484  0.45484  0.00000  0.09032
      17     C     3.09054  3.09054  0.00000 -0.18109
      18     H     0.45074  0.45074  0.00000  0.09853
      19     H     0.44967  0.44967  0.00000  0.10066
      20     C     3.15246  3.15246  0.00000 -0.30493
      21     H     0.44793  0.44793  0.00000  0.10414
      22     H     0.45480  0.45480  0.00000  0.09039
      23     H     0.45416  0.45416  0.00000  0.09167
      24     H     0.45410  0.45410  0.00000  0.09180
      25     H     0.44612  0.44612  0.00000  0.10776

   Total alpha = 36.00000, Total beta = 36.00000, Total charge =  0.00000

*** Psi4 exiting successfully. Buy a developer a beer!
