  ==> Input File <==

--------------------------------------------------------------------------
set {
	reference rhf
	basis cc-pvtz
}

set_num_threads( 4 )
memory 2 gb

molecule MOL {
0 1

H	 -2.362939	 -1.309000	 -0.383250
C	 -1.359344	 -1.272457	 0.020748
C	 -0.684082	 0.000127	 -0.464918
H	 -0.825835	 -2.151141	 -0.318537
H	 -1.416276	 -1.292399	 1.099455
C	 -1.359089	 1.272668	 0.021259
N	 0.742439	 -0.000109	 0.007333
H	 -0.596914	 0.000345	 -1.538146
H	 -2.362696	 1.309620	 -0.382686
H	 -0.825392	 2.151374	 -0.317674
H	 -1.415983	 1.292181	 1.099973
O	 1.201818	 1.036116	 0.352085
O	 1.318715	 -1.036542	 0.005609

	symmetry c1
}
set optking {
	frozen_dihedral = ("
		12 7 3 8
	")
}

ee = optimize('scf')
oeprop('DIPOLE', 'QUADRUPOLE', 'MULLIKEN_CHARGES')
f=open( 'psi4out.xyz', 'w' )
f.write( "13  " )
f.write( str(ee) + "\n" )
f.write( MOL.save_string_xyz() )
f.close()
--------------------------------------------------------------------------

    Molecular point group: c1
  Charge       = 0
  Multiplicity = 1
  Basis Set: CC-PVTZ
  Basis Set:
  @DF-RHF Final Energy:  -321.86123144600805
    Total Energy =                       -321.8612314460079347
    Molecular point group: c1
  Basis Set: CC-PVTZ
  Basis Set:
  Basis Set: CC-PVTZ
  Basis Set:
  @DF-RHF Final Energy:  -321.85810245161889
    Total Energy =                       -321.8581024516189473
  Basis Set: CC-PVTZ
  Basis Set:
  Basis Set: CC-PVTZ
  Basis Set:
  @DF-RHF Final Energy:  -321.85963759869549
    Total Energy =                       -321.8596375986954854
  Basis Set: CC-PVTZ
  Basis Set:
  Basis Set: CC-PVTZ
  Basis Set:
  @DF-RHF Final Energy:  -321.86197197617935
    Total Energy =                       -321.8619719761794045
  Basis Set: CC-PVTZ
  Basis Set:
  Basis Set: CC-PVTZ
  Basis Set:
  @DF-RHF Final Energy:  -321.86222257678384
    Total Energy =                       -321.8622225767836653
  Basis Set: CC-PVTZ
  Basis Set:
  Basis Set: CC-PVTZ
  Basis Set:
  @DF-RHF Final Energy:  -321.86225101897503
    Total Energy =                       -321.8622510189751438
  Basis Set: CC-PVTZ
  Basis Set:
  Basis Set: CC-PVTZ
  Basis Set:
  @DF-RHF Final Energy:  -321.86225604636894
    Total Energy =                       -321.8622560463686568
  Basis Set: CC-PVTZ
  Basis Set:
  Charge       = 0
  Multiplicity = 1
  Basis Set: CC-PVTZ
  Basis Set:

    Orbital Energies (a.u.)
    -----------------------

    Doubly Occupied:

       1A    -20.590043     2A    -20.586849     3A    -15.833953
       4A    -11.306988     5A    -11.239485     6A    -11.237551
       7A     -1.634514     8A     -1.418127     9A     -1.139747
      10A     -0.967719    11A     -0.958340    12A     -0.815045
      13A     -0.764942    14A     -0.730069    15A     -0.722887
      16A     -0.639984    17A     -0.595907    18A     -0.586447
      19A     -0.570347    20A     -0.522332    21A     -0.521387
      22A     -0.483353    23A     -0.472421    24A     -0.452163

  @DF-RHF Final Energy:  -321.86225653773823

   => Energetics <=

    Nuclear Repulsion Energy =            257.2165898339396222
    One-Electron Energy =                -948.5764908842497789
    Two-Electron Energy =                 369.4976445125719238
    DFT Exchange-Correlation Energy =       0.0000000000000000
    Empirical Dispersion Energy =           0.0000000000000000
    PCM Polarization Energy =               0.0000000000000000
    EFP Energy =                            0.0000000000000000
    Total Energy =                       -321.8622565377381761
    Molecular point group: c1
  Basis Set: CC-PVTZ
  Basis Set:

  -Total Gradient:
     Atom            X                  Y                   Z
    ------   -----------------  -----------------  -----------------
       1        0.000008816015     0.000003740888     0.000000597656
       2        0.000008363346    -0.000006199410    -0.000004018343
       3        0.000080674872    -0.000837968075    -0.000271247664
       4        0.000000895348    -0.000013906083     0.000001500575
       5        0.000001399525     0.000004275339    -0.000002422183
       6       -0.000019277988     0.000006916911     0.000001851211
       7       -0.000371007297    -0.000093154124     0.000980252451
       8        0.000012726583     0.000777992802     0.000010881884
       9        0.000007788119    -0.000002411834     0.000000801927
      10        0.000002138578     0.000012903109    -0.000002504622
      11       -0.000003066235     0.000001662681     0.000005326263
      12        0.000264624660     0.000109676381    -0.000738672298
      13        0.000005924475     0.000036471415     0.000017653144

  **** Optimization is complete! (in 8 steps) ****
    Final optimized geometry and variables:
    Molecular point group: c1

    Geometry (in Angstrom), charge = 0, multiplicity = 1:

    H           -2.394377637637    -1.257218681337    -0.367324847250
    C           -1.381450693000    -1.264859909921     0.013774624103
    C           -0.685958006172     0.008134070133    -0.440546683163
    H           -0.878112215679    -2.144959385192    -0.351237272098
    H           -1.426832798518    -1.313079687409     1.094975469477
    C           -1.389885640183     1.275224454731     0.008620139983
    N            0.753218990499    -0.001991315721     0.024765166404
    H           -0.578998878562     0.007728792435    -1.517769978785
    H           -2.399107646824     1.258066427319    -0.383172585418
    H           -0.892454113826     2.160148450119    -0.354523536807
    H           -1.443249234852     1.330093308245     1.088034316559
    O            1.236514294001     1.022372130885     0.369505320233
    O            1.328778325025    -1.037076627060    -0.027631488454

  Mulliken Charges: (a.u.)
   Center  Symbol    Alpha    Beta     Spin     Total
       1     H     0.45048  0.45048  0.00000  0.09905
       2     C     3.14394  3.14394  0.00000 -0.28789
       3     C     3.00660  3.00660  0.00000 -0.01320
       4     H     0.43066  0.43066  0.00000  0.13867
       5     H     0.44663  0.44663  0.00000  0.10674
       6     C     3.14262  3.14262  0.00000 -0.28523
       7     N     3.27540  3.27540  0.00000  0.44921
       8     H     0.43042  0.43042  0.00000  0.13917
       9     H     0.45058  0.45058  0.00000  0.09884
      10     H     0.43349  0.43349  0.00000  0.13301
      11     H     0.44500  0.44500  0.00000  0.11001
      12     O     4.17034  4.17034  0.00000 -0.34068
      13     O     4.17385  4.17385  0.00000 -0.34770

   Total alpha = 24.00000, Total beta = 24.00000, Total charge = -0.00000
