  ==> Input File <==

--------------------------------------------------------------------------
set {
	reference rhf
	basis 6-31G*
}

set_num_threads( 4 )
memory 2 gb

molecule MOL {
0 1

H	 -2.499100	 -0.730091	 -0.745082
O	 -2.347518	 -0.290803	 0.079804
C	 -1.184022	 0.487508	 -0.006784
C	 0.062599	 -0.378592	 0.031606
H	 -1.176523	 1.099369	 -0.904519
H	 -1.187323	 1.153111	 0.844927
O	 0.822850	 -0.088697	 -1.098775
H	 -0.215085	 -1.434360	 0.046602
H	 0.620604	 -0.175469	 0.943722
C	 2.022886	 -0.790109	 -1.182895
H	 1.853851	 -1.864627	 -1.221223
H	 2.518990	 -0.480876	 -2.092377
H	 2.670279	 -0.572545	 -0.335936

	symmetry c1
}
set optking {
	frozen_dihedral = ("
		8 4 3 5
	")
}

ee = optimize('scf')
oeprop('DIPOLE', 'QUADRUPOLE', 'MULLIKEN_CHARGES')
f=open( 'psi4out.xyz', 'w' )
f.write( "13  " )
f.write( str(ee) + "\n" )
f.write( MOL.save_string_xyz() )
f.close()
--------------------------------------------------------------------------

    Molecular point group: c1
  Charge       = 0
  Multiplicity = 1
  Basis Set: 6-31G*
  Basis Set:
  @DF-RHF Final Energy:  -267.94456290600931
    Total Energy =                       -267.9445629060094234
    Molecular point group: c1
  Basis Set: 6-31G*
  Basis Set:
  Basis Set: 6-31G*
  Basis Set:
  @DF-RHF Final Energy:  -267.94515306121366
    Total Energy =                       -267.9451530612139436
  Basis Set: 6-31G*
  Basis Set:
  Basis Set: 6-31G*
  Basis Set:
  @DF-RHF Final Energy:  -267.94537476485249
    Total Energy =                       -267.9453747648526587
  Basis Set: 6-31G*
  Basis Set:
  Basis Set: 6-31G*
  Basis Set:
  @DF-RHF Final Energy:  -267.94537783774217
    Total Energy =                       -267.9453778377421713
  Basis Set: 6-31G*
  Basis Set:
  Charge       = 0
  Multiplicity = 1
  Basis Set: 6-31G*
  Basis Set:

    Orbital Energies (a.u.)
    -----------------------

    Doubly Occupied:

       1A    -20.562338     2A    -20.556181     3A    -11.271491
       4A    -11.270365     5A    -11.269084     6A     -1.387961
       7A     -1.361359     8A     -1.015499     9A     -0.914762
      10A     -0.842062    11A     -0.704408    12A     -0.678604
      13A     -0.656907    14A     -0.629127    15A     -0.606670
      16A     -0.565198    17A     -0.537958    18A     -0.491743
      19A     -0.483579    20A     -0.437580    21A     -0.419713

  @DF-RHF Final Energy:  -267.94537823840113

   => Energetics <=

    Nuclear Repulsion Energy =            190.3829337316421970
    One-Electron Energy =                -743.3314456157994528
    Two-Electron Energy =                 285.0031336457560656
    DFT Exchange-Correlation Energy =       0.0000000000000000
    Empirical Dispersion Energy =           0.0000000000000000
    PCM Polarization Energy =               0.0000000000000000
    EFP Energy =                            0.0000000000000000
    Total Energy =                       -267.9453782384011902
    Molecular point group: c1
  Basis Set: 6-31G*
  Basis Set:

  -Total Gradient:
     Atom            X                  Y                   Z
    ------   -----------------  -----------------  -----------------
       1       -0.000013947160    -0.000011956296    -0.000003538740
       2        0.000014644337    -0.000002943151    -0.000018424568
       3        0.000061238139     0.000118784089     0.000079395967
       4       -0.000012060579     0.000020206496     0.000075348816
       5       -0.000063634462    -0.000084759853    -0.000060747106
       6        0.000014622430     0.000004832168    -0.000001094776
       7       -0.000033872659    -0.000020288664     0.000059726709
       8        0.000006172260    -0.000015274881    -0.000112552403
       9       -0.000005270593    -0.000001420789    -0.000001130956
      10        0.000026801806    -0.000005914682    -0.000014644434
      11       -0.000000117142     0.000001218666    -0.000002136825
      12        0.000003204804    -0.000003016121     0.000001036403
      13        0.000002218824     0.000000533018    -0.000001238090

  **** Optimization is complete! (in 5 steps) ****
    Final optimized geometry and variables:
    Molecular point group: c1

    Geometry (in Angstrom), charge = 0, multiplicity = 1:

    H           -2.354936028631    -0.518181455885    -0.285059173561
    O           -2.231158076073    -0.044295542300     0.525775076915
    C           -1.050537364630     0.710118284632     0.446120212978
    C            0.216217320365    -0.154086805758     0.468347558529
    H           -1.030876209152     1.316415266929    -0.453414533736
    H           -1.074336830580     1.377543941653     1.296260255748
    O            0.982612544267     0.135049912710    -0.664276089697
    H           -0.068405601197    -1.205006268513     0.477536998314
    H            0.801975990338     0.030260434845     1.367515785585
    C            2.180287947517    -0.570837953632    -0.738004528483
    H            2.008246426142    -1.645173943158    -0.771700383035
    H            2.683247205288    -0.267725485444    -1.645935801041
    H            2.824199446954    -0.352172049314     0.111790828613

  Mulliken Charges: (a.u.)
   Center  Symbol    Alpha    Beta     Spin     Total
       1     H     0.28117  0.28117  0.00000  0.43767
       2     O     4.37108  4.37108  0.00000 -0.74216
       3     C     3.00868  3.00868  0.00000 -0.01736
       4     C     3.00730  3.00730  0.00000 -0.01459
       5     H     0.41189  0.41189  0.00000  0.17621
       6     H     0.41261  0.41261  0.00000  0.17478
       7     O     4.30809  4.30809  0.00000 -0.61618
       8     H     0.42320  0.42320  0.00000  0.15359
       9     H     0.42640  0.42640  0.00000  0.14720
      10     C     3.08090  3.08090  0.00000 -0.16179
      11     H     0.42919  0.42919  0.00000  0.14162
      12     H     0.41100  0.41100  0.00000  0.17801
      13     H     0.42850  0.42850  0.00000  0.14300

   Total alpha = 21.00000, Total beta = 21.00000, Total charge =  0.00000
