  ==> Input File <==

--------------------------------------------------------------------------
set {
	reference rhf
	basis 6-31G*
}

set_num_threads( 4 )
memory 2 gb

molecule MOL {
0 1

O	 3.674889	 0.022349	 -0.843566
C	 2.843464	 0.164689	 -0.000222
C	 1.546494	 -0.624492	 -0.000609
C	 3.031233	 1.150866	 1.134394
C	 0.291004	 0.242674	 0.000989
H	 1.557904	 -1.283758	 -0.867573
H	 1.558622	 -1.285963	 0.864672
C	 -0.994322	 -0.586602	 0.000262
H	 0.309117	 0.896430	 -0.865270
H	 0.309661	 0.894078	 0.869017
C	 -2.259874	 0.272531	 0.000494
H	 -1.004862	 -1.240012	 -0.870939
H	 -1.005220	 -1.241071	 0.870675
C	 -3.549786	 -0.549746	 -0.000374
H	 -2.250389	 0.926680	 -0.869574
H	 -2.250838	 0.925513	 0.871430
C	 -4.809590	 0.315458	 -0.000369
H	 -3.560515	 -1.202009	 -0.871156
H	 -3.561123	 -1.202955	 0.869711
H	 -4.844746	 0.956611	 -0.876632
H	 -5.706986	 -0.295590	 -0.001609
H	 -4.845960	 0.954827	 0.877144
H	 2.991364	 0.639332	 2.091662
H	 3.985184	 1.648929	 1.030733
H	 2.234584	 1.889084	 1.130192

	symmetry c1
}
set optking {
	frozen_dihedral = ("
		1 2 3 6
	")
}

ee = optimize('scf')
oeprop('DIPOLE', 'QUADRUPOLE', 'MULLIKEN_CHARGES')
f=open( 'psi4out.xyz', 'w' )
f.write( "25  " )
f.write( str(ee) + "\n" )
f.write( MOL.save_string_xyz() )
f.close()
--------------------------------------------------------------------------

    Molecular point group: c1
  Charge       = 0
  Multiplicity = 1
  Basis Set: 6-31G*
  Basis Set:
  @DF-RHF Final Energy:  -387.13301378520970
    Total Energy =                       -387.1330137852102098
    Molecular point group: c1
  Basis Set: 6-31G*
  Basis Set:
  Basis Set: 6-31G*
  Basis Set:
  @DF-RHF Final Energy:  -387.13251034990753
    Total Energy =                       -387.1325103499068518
  Basis Set: 6-31G*
  Basis Set:
  Basis Set: 6-31G*
  Basis Set:
  @DF-RHF Final Energy:  -387.13290256307585
    Total Energy =                       -387.1329025630764136
  Basis Set: 6-31G*
  Basis Set:
  Basis Set: 6-31G*
  Basis Set:
  @DF-RHF Final Energy:  -387.13396498728059
    Total Energy =                       -387.1339649872801374
  Basis Set: 6-31G*
  Basis Set:
  @DF-RHF Final Energy:  -387.13402909428549
    Total Energy =                       -387.1340290942853244
  Basis Set: 6-31G*
  Basis Set:
  @DF-RHF Final Energy:  -387.13406062343807
    Total Energy =                       -387.1340606234381312
  Basis Set: 6-31G*
  Basis Set:
  Basis Set: 6-31G*
  Basis Set:
  @DF-RHF Final Energy:  -387.13407817609277
    Total Energy =                       -387.1340781760925438
  Basis Set: 6-31G*
  Basis Set:
  Basis Set: 6-31G*
  Basis Set:
  @DF-RHF Final Energy:  -387.13408476580884
    Total Energy =                       -387.1340847658095754
  Basis Set: 6-31G*
  Basis Set:
  Charge       = 0
  Multiplicity = 1
  Basis Set: 6-31G*
  Basis Set:

    Orbital Energies (a.u.)
    -----------------------

    Doubly Occupied:

       1A    -20.547565     2A    -11.324144     3A    -11.232737
       4A    -11.229533     5A    -11.227209     6A    -11.224134
       7A    -11.220432     8A    -11.219763     9A    -11.212336
      10A     -1.392866    11A     -1.101440    12A     -1.061031
      13A     -1.010944    14A     -0.970783    15A     -0.897239
      16A     -0.820999    17A     -0.797361    18A     -0.732064
      19A     -0.668930    20A     -0.647166    21A     -0.638137
      22A     -0.615668    23A     -0.603307    24A     -0.588588
      25A     -0.564927    26A     -0.559889    27A     -0.545036
      28A     -0.535526    29A     -0.512603    30A     -0.500459
      31A     -0.486534    32A     -0.481243    33A     -0.469438
      34A     -0.468785    35A     -0.456398    36A     -0.395829

  @DF-RHF Final Energy:  -387.13408566268760

   => Energetics <=

    Nuclear Repulsion Energy =            438.9084319237751401
    One-Electron Energy =               -1394.1629561021404697
    Two-Electron Energy =                 568.1204385156779608
    DFT Exchange-Correlation Energy =       0.0000000000000000
    Empirical Dispersion Energy =           0.0000000000000000
    PCM Polarization Energy =               0.0000000000000000
    EFP Energy =                            0.0000000000000000
    Total Energy =                       -387.1340856626873119
    Molecular point group: c1
  Basis Set: 6-31G*
  Basis Set:

  -Total Gradient:
     Atom            X                  Y                   Z
    ------   -----------------  -----------------  -----------------
       1        0.000062587963    -0.000220011752     0.000214877756
       2       -0.000257554923     0.000390888107    -0.000319080971
       3        0.000259519682    -0.000437405892     0.000224958891
       4        0.000027006939    -0.000029085537     0.000045305873
       5       -0.000054334662     0.000058450202     0.000041096791
       6       -0.000074675886     0.000153710280    -0.000167875931
       7        0.000018720266    -0.000001769000    -0.000007878510
       8        0.000069295361     0.000019519498     0.000048889434
       9       -0.000053450667     0.000003241601    -0.000022649025
      10       -0.000064511501     0.000003475841    -0.000009601577
      11       -0.000004729269     0.000025339524    -0.000042613849
      12        0.000037333188     0.000026280057     0.000008663191
      13        0.000009059225    -0.000021007463    -0.000000981378
      14        0.000000384661     0.000007856345     0.000004613266
      15       -0.000010042850    -0.000003424033    -0.000020508939
      16       -0.000009187219     0.000009905999    -0.000022263049
      17       -0.000004492009    -0.000002270535     0.000030792446
      18       -0.000003552991     0.000018808922    -0.000006513693
      19        0.000007350902    -0.000015752312    -0.000007876109
      20        0.000005519164    -0.000008324435     0.000000840596
      21       -0.000001304084     0.000001448432     0.000006753127
      22       -0.000005396690     0.000006670964     0.000001155008
      23        0.000020305818     0.000005116920     0.000001139555
      24        0.000005838314     0.000009208046     0.000010891662
      25        0.000020311266    -0.000000869781    -0.000012134564

  **** Optimization is complete! (in 9 steps) ****
    Final optimized geometry and variables:
    Molecular point group: c1

    Geometry (in Angstrom), charge = 0, multiplicity = 1:

    O            3.668506038497    -0.043818145074    -0.916894822326
    C            2.875516293692     0.114519403629    -0.039239273144
    C            1.579933594522    -0.674989898172     0.002170529116
    C            3.134533662942     1.110041325650     1.073902792694
    C            0.316977175024     0.198370692987     0.016777933185
    H            1.578304647025    -1.327129423943    -0.862825490433
    H            1.593864971432    -1.302943332395     0.891656186904
    C           -0.965033043278    -0.634978128113    -0.028599398573
    H            0.337342520978     0.873730962448    -0.835964450613
    H            0.304935896505     0.822102515940     0.906869124936
    C           -2.235399532680     0.216953543559    -0.017244992250
    H           -0.955743160061    -1.257595225320    -0.920743423741
    H           -0.979795092031    -1.316833912926     0.819921953313
    C           -3.519342078417    -0.613687180604    -0.059906263953
    H           -2.220212924565     0.897610629800    -0.866738853232
    H           -2.242633640721     0.842304425418     0.874066806282
    C           -4.784959670811     0.242679376814    -0.041285991002
    H           -3.516696250089    -1.234165950011    -0.953404296210
    H           -3.533970911754    -1.297454298454     0.786170315939
    H           -4.816935741810     0.913640635313    -0.895024548301
    H           -5.677569610422    -0.374281906537    -0.072286369578
    H           -4.834177508131     0.850491412444     0.857808396885
    H            2.857834636392     0.706139154515     2.042397253186
    H            4.180580626430     1.383727121089     1.073124273666
    H            2.541092426727     2.005344834081     0.912322110006

  Mulliken Charges: (a.u.)
   Center  Symbol    Alpha    Beta     Spin     Total
       1     O     4.26103  4.26103  0.00000 -0.52206
       2     C     2.73298  2.73298  0.00000  0.53404
       3     C     3.20537  3.20537  0.00000 -0.41073
       4     C     3.29043  3.29043  0.00000 -0.58085
       5     C     3.16496  3.16496  0.00000 -0.32992
       6     H     0.39925  0.39925  0.00000  0.20150
       7     H     0.41222  0.41222  0.00000  0.17555
       8     C     3.15198  3.15198  0.00000 -0.30395
       9     H     0.41426  0.41426  0.00000  0.17148
      10     H     0.41881  0.41881  0.00000  0.16238
      11     C     3.15149  3.15149  0.00000 -0.30298
      12     H     0.41915  0.41915  0.00000  0.16170
      13     H     0.42223  0.42223  0.00000  0.15554
      14     C     3.15199  3.15199  0.00000 -0.30398
      15     H     0.42225  0.42225  0.00000  0.15549
      16     H     0.42386  0.42386  0.00000  0.15229
      17     C     3.23960  3.23960  0.00000 -0.47920
      18     H     0.42183  0.42183  0.00000  0.15635
      19     H     0.42270  0.42270  0.00000  0.15459
      20     H     0.42111  0.42111  0.00000  0.15778
      21     H     0.41838  0.41838  0.00000  0.16324
      22     H     0.42168  0.42168  0.00000  0.15664
      23     H     0.41213  0.41213  0.00000  0.17575
      24     H     0.39617  0.39617  0.00000  0.20767
      25     H     0.40415  0.40415  0.00000  0.19169

   Total alpha = 36.00000, Total beta = 36.00000, Total charge =  0.00000
