                              Psi4 1.0.54 Driver

  ==> Input File <==

--------------------------------------------------------------------------
set {
	reference rhf
	basis cc-pvtz
}

set_num_threads( 4 )
memory 2 gb

molecule MOL {
0 1

O	 0.395927	 1.296676	 -0.000076
C	 0.503051	 0.114301	 -0.000074
C	 -0.701422	 -0.805636	 -0.000109
C	 1.858118	 -0.556123	 0.000212
C	 -2.013807	 -0.108697	 0.322383
H	 -0.746659	 -1.286226	 -0.973979
H	 -0.502820	 -1.605598	 0.708451
H	 -2.225047	 0.672164	 -0.395852
H	 -2.831185	 -0.819666	 0.305878
H	 -1.979064	 0.349962	 1.301492
H	 1.961106	 -1.191101	 -0.872843
H	 2.636688	 0.191085	 -0.000109
H	 1.961070	 -1.190284	 0.873873

	symmetry c1
}
set optking {
	frozen_dihedral = ("
		6 3 2 1
	")
}

ee,wfn = optimize('scf', return_wfn=True)
oeprop( wfn, 'DIPOLE', 'QUADRUPOLE', 'MULLIKEN_CHARGES')
f=open( 'psi4out.xyz', 'w' )
f.write( "13  " )
f.write( str(ee) + "\n" )
f.write( MOL.save_string_xyz() )
f.close()
--------------------------------------------------------------------------

    Molecular point group: c1
  Charge       = 0
  Multiplicity = 1
  Basis Set: CC-PVTZ
  Basis Set:
  @DF-RHF Final Energy:  -231.08330037409630
    Total Energy =                       -231.0833003740963250
    Molecular point group: c1
  Basis Set: CC-PVTZ
  Basis Set:
  Basis Set: CC-PVTZ
  Basis Set:
  @DF-RHF Final Energy:  -231.08237349080852
    Total Energy =                       -231.0823734908085783
  Basis Set: CC-PVTZ
  Basis Set:
  Basis Set: CC-PVTZ
  Basis Set:
  @DF-RHF Final Energy:  -231.08338535864647
    Total Energy =                       -231.0833853586464102
  Basis Set: CC-PVTZ
  Basis Set:
  Basis Set: CC-PVTZ
  Basis Set:
  @DF-RHF Final Energy:  -231.08345759516513
    Total Energy =                       -231.0834575951653278
  Basis Set: CC-PVTZ
  Basis Set:
  Basis Set: CC-PVTZ
  Basis Set:
  @DF-RHF Final Energy:  -231.08347328587089
    Total Energy =                       -231.0834732858706957
  Basis Set: CC-PVTZ
  Basis Set:
  Basis Set: CC-PVTZ
  Basis Set:
  @DF-RHF Final Energy:  -231.08349006102807
    Total Energy =                       -231.0834900610281579
  Basis Set: CC-PVTZ
  Basis Set:
  Charge       = 0
  Multiplicity = 1
  Basis Set: CC-PVTZ
  Basis Set:

    Orbital Energies (a.u.)
    -----------------------

    Doubly Occupied:

       1A    -20.539566     2A    -11.321346     3A    -11.233688
       4A    -11.227654     5A    -11.212895     6A     -1.399859
       7A     -1.062899     8A     -1.001383     9A     -0.879194
      10A     -0.731157    11A     -0.660860    12A     -0.642280
      13A     -0.623932    14A     -0.584368    15A     -0.571829
      16A     -0.522953    17A     -0.514669    18A     -0.508794
      19A     -0.488404    20A     -0.404900

  @DF-RHF Final Energy:  -231.08349121035727

   => Energetics <=

    Nuclear Repulsion Energy =            177.2952363050154361
    One-Electron Energy =                -664.4921907332441151
    Two-Electron Energy =                 256.1134632178715833
    DFT Exchange-Correlation Energy =       0.0000000000000000
    Empirical Dispersion Energy =           0.0000000000000000
    PCM Polarization Energy =               0.0000000000000000
    EFP Energy =                            0.0000000000000000
    Total Energy =                       -231.0834912103570673
    Molecular point group: c1
  Basis Set: CC-PVTZ
  Basis Set:

  -Total Gradient:
     Atom            X                  Y                   Z
    ------   -----------------  -----------------  -----------------
       1       -0.000018265480     0.000054440335    -0.000624664812
       2       -0.000020484393     0.000031240857     0.000828310554
       3        0.000370647518    -0.000537311608    -0.000000081988
       4        0.000040176688     0.000037353276    -0.000010174678
       5       -0.000000047297    -0.000009229462    -0.000003814818
       6       -0.000332659847     0.000455454467    -0.000216442899
       7       -0.000006014359    -0.000002781090    -0.000004069795
       8        0.000004732008    -0.000005988507     0.000005370324
       9       -0.000009505226    -0.000002247022     0.000004399847
      10       -0.000003769034     0.000002850126     0.000005332855
      11       -0.000015323454    -0.000005404706    -0.000002940205
      12        0.000014629101    -0.000000059690    -0.000007282232
      13       -0.000024116224    -0.000018316974     0.000026057846

  **** Optimization is complete! (in 7 steps) ****
    Final optimized geometry and variables:
    Molecular point group: c1

    Geometry (in Angstrom), charge = 0, multiplicity = 1:

    O            0.418932390915     1.293442939669    -0.034675502352
    C            0.502439699832     0.109230621080    -0.050502707643
    C           -0.720716537832    -0.785462208619    -0.076081092589
    C            1.842924696934    -0.588705567457    -0.059330170967
    C           -2.025474424178    -0.058094747503     0.210497959490
    H           -0.749951342079    -1.242471145775    -1.062857987224
    H           -0.565070760564    -1.602626754947     0.621882489672
    H           -2.190283962725     0.736105111429    -0.504114310472
    H           -2.859902630299    -0.747160968699     0.158555399252
    H           -2.013292196686     0.387317143714     1.197107727201
    H            1.876692879346    -1.348833652665    -0.831435532773
    H            2.632041890423     0.131050083843    -0.213722099579
    H            1.993578311243    -1.088143691746     0.892192362708

  Mulliken Charges: (a.u.)
   Center  Symbol    Alpha    Beta     Spin     Total
       1     O     4.17039  4.17039  0.00000 -0.34078
       2     C     2.86234  2.86234  0.00000  0.27532
       3     C     3.10106  3.10106  0.00000 -0.20213
       4     C     3.14995  3.14995  0.00000 -0.29990
       5     C     3.14167  3.14167  0.00000 -0.28334
       6     H     0.44584  0.44584  0.00000  0.10832
       7     H     0.44694  0.44694  0.00000  0.10612
       8     H     0.44484  0.44484  0.00000  0.11032
       9     H     0.45064  0.45064  0.00000  0.09871
      10     H     0.45036  0.45036  0.00000  0.09929
      11     H     0.45124  0.45124  0.00000  0.09752
      12     H     0.43575  0.43575  0.00000  0.12849
      13     H     0.44897  0.44897  0.00000  0.10205

   Total alpha = 20.00000, Total beta = 20.00000, Total charge = -0.00000

*** Psi4 exiting successfully. Buy a developer a beer!
