  ==> Input File <==

--------------------------------------------------------------------------
set {
	reference rhf
	basis cc-pvtz
}

set_num_threads( 4 )
memory 2 gb

molecule MOL {
0 1

H	 -2.698799	 -0.000846	 0.036018
C	 -1.694291	 -0.000483	 0.434279
O	 -0.828718	 -0.000608	 -0.655022
H	 -1.576855	 0.881100	 1.056504
H	 -1.576401	 -0.881658	 1.057001
C	 0.543293	 -0.214103	 -0.431676
C	 1.180233	 0.892650	 0.401197
C	 0.836604	 -1.601532	 0.128018
H	 0.966845	 -0.163442	 -1.426992
H	 0.920984	 1.864108	 -0.001442
H	 2.259305	 0.792923	 0.381111
H	 0.868483	 0.856107	 1.438530
H	 0.339123	 -2.359785	 -0.464105
H	 1.903204	 -1.791909	 0.098114
H	 0.515639	 -1.704280	 1.158050

	symmetry c1
}
set optking {
	frozen_dihedral = ("
		6 3 2 1
	")
}

ee = optimize('scf')
oeprop('DIPOLE', 'QUADRUPOLE', 'MULLIKEN_CHARGES')
f=open( 'psi4out.xyz', 'w' )
f.write( "15  " )
f.write( str(ee) + "\n" )
f.write( MOL.save_string_xyz() )
f.close()
--------------------------------------------------------------------------

    Molecular point group: c1
  Charge       = 0
  Multiplicity = 1
  Basis Set: CC-PVTZ
  Basis Set:
  @DF-RHF Final Energy:  -232.22599348889267
    Total Energy =                       -232.2259934888926409
    Molecular point group: c1
  Basis Set: CC-PVTZ
  Basis Set:
  Basis Set: CC-PVTZ
  Basis Set:
  @DF-RHF Final Energy:  -232.22597382394198
    Total Energy =                       -232.2259738239420130
  Basis Set: CC-PVTZ
  Basis Set:
  Basis Set: CC-PVTZ
  Basis Set:
  @DF-RHF Final Energy:  -232.22608228503387
    Total Energy =                       -232.2260822850338968
  Basis Set: CC-PVTZ
  Basis Set:
  Basis Set: CC-PVTZ
  Basis Set:
  @DF-RHF Final Energy:  -232.22608396881651
    Total Energy =                       -232.2260839688165106
  Basis Set: CC-PVTZ
  Basis Set:
  Basis Set: CC-PVTZ
  Basis Set:
  @DF-RHF Final Energy:  -232.22608523455364
    Total Energy =                       -232.2260852345535795
  Basis Set: CC-PVTZ
  Basis Set:
  Charge       = 0
  Multiplicity = 1
  Basis Set: CC-PVTZ
  Basis Set:

    Orbital Energies (a.u.)
    -----------------------

    Doubly Occupied:

       1A    -20.541740     2A    -11.272665     3A    -11.258623
       4A    -11.209297     5A    -11.208088     6A     -1.373479
       7A     -1.051549     8A     -0.940480     9A     -0.931397
      10A     -0.781513    11A     -0.675829    12A     -0.642452
      13A     -0.634979    14A     -0.573637    15A     -0.565250
      16A     -0.552871    17A     -0.534148    18A     -0.498580
      19A     -0.497438    20A     -0.444815    21A     -0.409265

  @DF-RHF Final Energy:  -232.22608530776250

   => Energetics <=

    Nuclear Repulsion Energy =            199.0460755850721739
    One-Electron Energy =                -709.3481369467322111
    Two-Electron Energy =                 278.0759760538976479
    DFT Exchange-Correlation Energy =       0.0000000000000000
    Empirical Dispersion Energy =           0.0000000000000000
    PCM Polarization Energy =               0.0000000000000000
    EFP Energy =                            0.0000000000000000
    Total Energy =                       -232.2260853077623892
    Molecular point group: c1
  Basis Set: CC-PVTZ
  Basis Set:

  -Total Gradient:
     Atom            X                  Y                   Z
    ------   -----------------  -----------------  -----------------
       1        0.000001949288    -0.000594402571     0.000053122610
       2       -0.000052733631     0.000493958069    -0.000068740948
       3        0.000093567777     0.000598403633     0.000034383947
       4       -0.000004250254    -0.000009080597    -0.000006905128
       5        0.000001187132    -0.000002096262     0.000006087603
       6       -0.000074370379    -0.000480684040    -0.000015978210
       7        0.000018350193    -0.000002268687     0.000000757957
       8        0.000003352962     0.000001703793    -0.000002842211
       9        0.000014104113    -0.000004795555     0.000002701555
      10        0.000001277440    -0.000001961874    -0.000001333002
      11       -0.000004038255     0.000001956160     0.000001044158
      12        0.000003555117     0.000000178316     0.000000318228
      13       -0.000002775868    -0.000000317140     0.000001038431
      14        0.000000568410    -0.000001554348     0.000000228844
      15        0.000000255955     0.000000961103    -0.000003883833

  **** Optimization is complete! (in 6 steps) ****
    Final optimized geometry and variables:
    Molecular point group: c1

    Geometry (in Angstrom), charge = 0, multiplicity = 1:

    H           -2.684530807210     0.187454022947     0.066903205905
    C           -1.674694765758     0.226649507158     0.449840022419
    O           -0.821319932076     0.149695961507    -0.646635176007
    H           -1.552013188978     1.154250328989     1.000283211399
    H           -1.545246133798    -0.602447588982     1.138144169321
    C            0.554834647948    -0.034625889107    -0.422819438467
    C            1.168090029332     1.073524615464     0.425295402718
    C            0.872312894155    -1.423721442507     0.120057954002
    H            0.980203270853     0.035137304705    -1.416236184533
    H            0.901002397166     2.045667509008     0.029039021504
    H            2.248463328491     0.988308458551     0.416589297612
    H            0.843900411298     1.022984007210     1.458460527277
    H            0.394296631123    -2.181814780441    -0.487828351683
    H            1.942848237118    -1.592715072716     0.096509397044
    H            0.545273709970    -1.549266428266     1.145546746381

  Mulliken Charges: (a.u.)
   Center  Symbol    Alpha    Beta     Spin     Total
       1     H     0.44146  0.44146  0.00000  0.11708
       2     C     3.03938  3.03938  0.00000 -0.07876
       3     O     4.18334  4.18334  0.00000 -0.36668
       4     H     0.46822  0.46822  0.00000  0.06356
       5     H     0.47116  0.47116  0.00000  0.05768
       6     C     2.93420  2.93420  0.00000  0.13160
       7     C     3.16080  3.16080  0.00000 -0.32160
       8     C     3.15525  3.15525  0.00000 -0.31049
       9     H     0.44700  0.44700  0.00000  0.10599
      10     H     0.44381  0.44381  0.00000  0.11237
      11     H     0.44859  0.44859  0.00000  0.10282
      12     H     0.45533  0.45533  0.00000  0.08934
      13     H     0.44433  0.44433  0.00000  0.11134
      14     H     0.45085  0.45085  0.00000  0.09830
      15     H     0.45626  0.45626  0.00000  0.08747

   Total alpha = 21.00000, Total beta = 21.00000, Total charge = -0.00000
