                              Psi4 1.0.54 Driver

  ==> Input File <==

--------------------------------------------------------------------------
set {
	reference rhf
	basis cc-pvtz
}

set_num_threads( 4 )
memory 2 gb

molecule MOL {
0 1

H	 -2.708670	 0.707792	 -0.096405
O	 -2.313989	 -0.142475	 -0.025864
C	 -0.943808	 -0.065018	 -0.330000
H	 -0.812293	 -0.225641	 -1.398673
C	 -0.231030	 -1.182113	 0.407592
C	 -0.353797	 1.300461	 0.050970
H	 -0.312800	 -0.992012	 1.473041
H	 -0.738841	 -2.119564	 0.220514
C	 1.246176	 -1.268044	 -0.015480
H	 -0.539537	 2.008579	 -0.751815
H	 -0.889989	 1.662858	 0.920677
C	 1.153605	 1.231851	 0.356834
H	 1.823096	 -1.684665	 0.802361
H	 1.352335	 -1.958223	 -0.845114
C	 1.826409	 0.100723	 -0.416008
H	 1.622968	 2.181508	 0.128734
H	 1.301983	 1.066493	 1.419367
H	 2.897299	 0.112407	 -0.249665
H	 1.683458	 0.265621	 -1.480024

	symmetry c1
}
set optking {
	frozen_dihedral = ("
		1 2 3 4
	")
}

ee,wfn = optimize('scf', return_wfn=True)
oeprop( wfn, 'DIPOLE', 'QUADRUPOLE', 'MULLIKEN_CHARGES')
f=open( 'psi4out.xyz', 'w' )
f.write( "19  " )
f.write( str(ee) + "\n" )
f.write( MOL.save_string_xyz() )
f.close()
--------------------------------------------------------------------------

    Molecular point group: c1
  Charge       = 0
  Multiplicity = 1
  Basis Set: CC-PVTZ
  Basis Set:
  @DF-RHF Final Energy:  -309.16269502991719
    Total Energy =                       -309.1626950299172449
    Molecular point group: c1
  Basis Set: CC-PVTZ
  Basis Set:
  Basis Set: CC-PVTZ
  Basis Set:
  @DF-RHF Final Energy:  -309.16273933321077
    Total Energy =                       -309.1627393332106521
  Basis Set: CC-PVTZ
  Basis Set:
  Basis Set: CC-PVTZ
  Basis Set:
  @DF-RHF Final Energy:  -309.16275447517785
    Total Energy =                       -309.1627544751780192
  Basis Set: CC-PVTZ
  Basis Set:
  Charge       = 0
  Multiplicity = 1
  Basis Set: CC-PVTZ
  Basis Set:

    Orbital Energies (a.u.)
    -----------------------

    Doubly Occupied:

       1A    -20.542332     2A    -11.267026     3A    -11.217520
       4A    -11.216760     5A    -11.214627     6A    -11.213411
       7A    -11.206328     8A     -1.362571     9A     -1.111271
      10A     -1.004952    11A     -0.989894    12A     -0.846757
      13A     -0.838973    14A     -0.739535    15A     -0.687666
      16A     -0.668237    17A     -0.628003    18A     -0.597269
      19A     -0.582803    20A     -0.549851    21A     -0.529089
      22A     -0.520702    23A     -0.501502    24A     -0.487089
      25A     -0.467505    26A     -0.449943    27A     -0.427151
      28A     -0.415828

  @DF-RHF Final Energy:  -309.16275482491505

   => Energetics <=

    Nuclear Repulsion Energy =            332.0866347000388714
    One-Electron Energy =               -1077.9295897664137556
    Two-Electron Energy =                 436.6802002414597155
    DFT Exchange-Correlation Energy =       0.0000000000000000
    Empirical Dispersion Energy =           0.0000000000000000
    PCM Polarization Energy =               0.0000000000000000
    EFP Energy =                            0.0000000000000000
    Total Energy =                       -309.1627548249151687
    Molecular point group: c1
  Basis Set: CC-PVTZ
  Basis Set:

  -Total Gradient:
     Atom            X                  Y                   Z
    ------   -----------------  -----------------  -----------------
       1        0.000325408368     0.000300384793     0.001698408831
       2       -0.000373890607    -0.000758429086    -0.002021792660
       3       -0.000100542800     0.001905984315     0.000080866023
       4        0.000160418928    -0.001473755177     0.000269966930
       5       -0.000015851804    -0.000020449556    -0.000030636914
       6        0.000043016188     0.000002674335    -0.000020769469
       7        0.000005055610     0.000000314540    -0.000009352172
       8       -0.000007095778    -0.000017739800     0.000007959487
       9       -0.000008795565     0.000006604114    -0.000000867350
      10        0.000013476629     0.000005048063     0.000010979691
      11        0.000009588853     0.000002385056     0.000013652053
      12       -0.000007049361     0.000031817438    -0.000017775432
      13       -0.000009703330    -0.000005942357     0.000012564640
      14       -0.000007866317    -0.000004510163     0.000014669856
      15       -0.000013425202    -0.000011908786    -0.000006562249
      16       -0.000000465890     0.000015237226     0.000009780936
      17       -0.000009262232    -0.000002393585    -0.000005796262
      18       -0.000003315862     0.000008063145    -0.000003577138
      19        0.000000300176     0.000016615483    -0.000001718800

  **** Optimization is complete! (in 4 steps) ****
    Final optimized geometry and variables:
    Molecular point group: c1

    Geometry (in Angstrom), charge = 0, multiplicity = 1:

    H           -2.720299508932     0.688445661457    -0.155426007368
    O           -2.316885457460    -0.155574063310    -0.070206333703
    C           -0.938878669589    -0.068871188769    -0.337198014807
    H           -0.786434670620    -0.235712953411    -1.401724348361
    C           -0.229057206496    -1.182044921489     0.411031462386
    C           -0.360592097912     1.297495299250     0.050955544653
    H           -0.317477573112    -0.989096661604     1.475564971798
    H           -0.734030131354    -2.121247238129     0.224011553602
    C            1.250125965987    -1.265635935292    -0.004790643276
    H           -0.548806655058     2.007162779918    -0.749364153761
    H           -0.896340088353     1.655966398328     0.924332642323
    C            1.146018724685     1.235518513726     0.363060760168
    H            1.824496452403    -1.680443809880     0.815769786530
    H            1.362088457891    -1.955404598406    -0.833914314339
    C            1.827973985472     0.105164498467    -0.403227660185
    H            1.611521357424     2.186812044272     0.134226541825
    H            1.289937582170     1.073812640901     1.426607695663
    H            2.897345732148     0.122418014011    -0.228095060999
    H            1.692715885818     0.268177893159    -1.468303229665

  Mulliken Charges: (a.u.)
   Center  Symbol    Alpha    Beta     Spin     Total
       1     H     0.39407  0.39407  0.00000  0.21186
       2     O     4.20387  4.20387  0.00000 -0.40774
       3     C     2.92226  2.92226  0.00000  0.15549
       4     H     0.46091  0.46091  0.00000  0.07819
       5     C     3.09645  3.09645  0.00000 -0.19290
       6     C     3.12646  3.12646  0.00000 -0.25292
       7     H     0.45633  0.45633  0.00000  0.08735
       8     H     0.44055  0.44055  0.00000  0.11889
       9     C     3.11404  3.11404  0.00000 -0.22807
      10     H     0.44671  0.44671  0.00000  0.10658
      11     H     0.44991  0.44991  0.00000  0.10018
      12     C     3.10075  3.10075  0.00000 -0.20151
      13     H     0.44706  0.44706  0.00000  0.10588
      14     H     0.44718  0.44718  0.00000  0.10564
      15     C     3.10251  3.10251  0.00000 -0.20502
      16     H     0.44228  0.44228  0.00000  0.11545
      17     H     0.45233  0.45233  0.00000  0.09535
      18     H     0.44275  0.44275  0.00000  0.11450
      19     H     0.45360  0.45360  0.00000  0.09280

   Total alpha = 28.00000, Total beta = 28.00000, Total charge = -0.00000

*** Psi4 exiting successfully. Buy a developer a beer!
