  ==> Input File <==

--------------------------------------------------------------------------
set {
	reference rhf
	basis 6-31G*
}

set_num_threads( 1 )
memory 2 gb

molecule MOL {
0 1

H	 -3.543320	 -2.691797	 1.571668
C	 -3.069115	 -1.823623	 1.156862
C	 -1.834191	 -1.899739	 0.717351
H	 -3.625609	 -0.906409	 1.112772
O	 -1.180634	 -0.819263	 0.215062
H	 -1.262260	 -2.810384	 0.745914
C	 0.051604	 -1.018856	 -0.387932
C	 1.043764	 0.054862	 -0.001873
H	 -0.017620	 -1.041351	 -1.469781
H	 0.437898	 -1.966374	 -0.042284
F	 2.212596	 -0.199467	 -0.571921
F	 0.652529	 1.252447	 -0.405055
F	 1.230877	 0.110694	 1.300533

	symmetry c1
}
set optking {
	frozen_dihedral = ("
		11 8 7 9,
		6 3 2 1,
		6 3 5 7
	")
}

ee = energy('scf')
oeprop('DIPOLE', 'QUADRUPOLE', 'MULLIKEN_CHARGES')
f=open( 'psi4out.xyz', 'w' )
f.write( "13  " )
f.write( str(ee) + "\n" )
f.write( MOL.save_string_xyz() )
f.close()
--------------------------------------------------------------------------

    Molecular point group: c1

    Geometry (in Angstrom), charge = 0, multiplicity = 1:

       Center              X                  Y                   Z               Mass
    ------------   -----------------  -----------------  -----------------  -----------------
           H         -3.584298621727    -2.241628772574     1.338919170023     1.007825032070
           C         -3.110093621727    -1.373454772574     0.924113170023    12.000000000000
           C         -1.875169621727    -1.449570772574     0.484602170023    12.000000000000
           H         -3.666587621727    -0.456240772574     0.880023170023     1.007825032070
           O         -1.221612621727    -0.369094772574    -0.017686829977    15.994914619560
           H         -1.303238621727    -2.360215772574     0.513165170023     1.007825032070
           C          0.010625378273    -0.568687772574    -0.620680829977    12.000000000000
           C          1.002785378273     0.505030227426    -0.234621829977    12.000000000000
           H         -0.058598621727    -0.591182772574    -1.702529829977     1.007825032070
           H          0.396919378273    -1.516205772574    -0.275032829977     1.007825032070
           F          2.171617378273     0.250701227426    -0.804669829977    18.998403224000
           F          0.611550378273     1.702615227426    -0.637803829977    18.998403224000
           F          1.189898378273     0.560862227426     1.067784170023    18.998403224000

  Charge       = 0
  Multiplicity = 1
  Basis Set: 6-31G*
  Basis Set:

    Orbital Energies (a.u.)
    -----------------------

    Doubly Occupied:

       1A    -26.345087     2A    -26.340808     3A    -26.337663
       4A    -20.607499     5A    -11.505060     6A    -11.319228
       7A    -11.303491     8A    -11.218714     9A     -1.740094
      10A     -1.639379    11A     -1.634941    12A     -1.438094
      13A     -1.086542    14A     -1.016735    15A     -0.923590
      16A     -0.836884    17A     -0.829899    18A     -0.809415
      19A     -0.801640    20A     -0.722232    21A     -0.711649
      22A     -0.698026    23A     -0.678400    24A     -0.658227
      25A     -0.652732    26A     -0.640978    27A     -0.637135
      28A     -0.581857    29A     -0.559228    30A     -0.526430
      31A     -0.515974    32A     -0.353447

  @DF-RHF Final Energy:  -527.53280990659709

   => Energetics <=

    Nuclear Repulsion Energy =            406.2444982809755629
    One-Electron Energy =               -1536.2125345065906004
    Two-Electron Energy =                 602.4352263190185113
    DFT Exchange-Correlation Energy =       0.0000000000000000
    Empirical Dispersion Energy =           0.0000000000000000
    PCM Polarization Energy =               0.0000000000000000
    EFP Energy =                            0.0000000000000000
    Total Energy =                       -527.5328099065964125

  Mulliken Charges: (a.u.)
   Center  Symbol    Alpha    Beta     Spin     Total
       1     H     0.40690  0.40690  0.00000  0.18619
       2     C     3.23554  3.23554  0.00000 -0.47107
       3     C     2.89650  2.89650  0.00000  0.20700
       4     H     0.40041  0.40041  0.00000  0.19918
       5     O     4.30428  4.30428  0.00000 -0.60856
       6     H     0.40749  0.40749  0.00000  0.18502
       7     C     3.04748  3.04748  0.00000 -0.09497
       8     C     2.45386  2.45386  0.00000  1.09227
       9     H     0.40123  0.40123  0.00000  0.19755
      10     H     0.41006  0.41006  0.00000  0.17989
      11     F     4.68295  4.68295  0.00000 -0.36589
      12     F     4.67788  4.67788  0.00000 -0.35575
      13     F     4.67543  4.67543  0.00000 -0.35087

   Total alpha = 32.00000, Total beta = 32.00000, Total charge =  0.00000
