  ==> Input File <==

--------------------------------------------------------------------------
set {
	reference rhf
	basis 6-31G*
}

set_num_threads( 1 )
memory 2 gb

molecule MOL {
0 1

O	 -1.302675	 0.146346	 -1.057793
C	 -1.083277	 0.139568	 0.115197
C	 0.323299	 -0.082943	 0.642902
C	 -2.188354	 0.325211	 1.131155
C	 1.355627	 -0.005344	 -0.493127
H	 0.396251	 -1.044647	 1.143147
H	 0.528637	 0.693580	 1.371677
C	 2.786168	 -0.195604	 0.007473
H	 1.132807	 -0.760304	 -1.243899
H	 1.259610	 0.958506	 -0.981915
H	 3.495561	 -0.130713	 -0.811210
H	 2.912696	 -1.165395	 0.480041
H	 3.049284	 0.565503	 0.735850
H	 -2.166461	 -0.467458	 1.873358
H	 -3.148749	 0.337531	 0.634945
H	 -2.043734	 1.263501	 1.660213

	symmetry c1
}
set optking {
	frozen_dihedral = ("
		9 5 3 2
	")
}

ee = energy('scf')
oeprop('DIPOLE', 'QUADRUPOLE', 'MULLIKEN_CHARGES')
f=open( 'psi4out.xyz', 'w' )
f.write( "16  " )
f.write( str(ee) + "\n" )
f.write( MOL.save_string_xyz() )
f.close()
--------------------------------------------------------------------------

    Molecular point group: c1

    Geometry (in Angstrom), charge = 0, multiplicity = 1:

       Center              X                  Y                   Z               Mass
    ------------   -----------------  -----------------  -----------------  -----------------
           O         -1.290402443322     0.091003445209    -1.113840029395    15.994914619560
           C         -1.071004443322     0.084225445209     0.059149970605    12.000000000000
           C          0.335571556678    -0.138285554791     0.586854970605    12.000000000000
           C         -2.176081443322     0.269868445209     1.075107970605    12.000000000000
           C          1.367899556678    -0.060686554791    -0.549174029395    12.000000000000
           H          0.408523556678    -1.099989554791     1.087099970605     1.007825032070
           H          0.540909556678     0.638237445209     1.315629970605     1.007825032070
           C          2.798440556678    -0.250946554791    -0.048574029395    12.000000000000
           H          1.145079556678    -0.815646554791    -1.299946029395     1.007825032070
           H          1.271882556678     0.903163445209    -1.037962029395     1.007825032070
           H          3.507833556678    -0.186055554791    -0.867257029395     1.007825032070
           H          2.924968556678    -1.220737554791     0.423993970605     1.007825032070
           H          3.061556556678     0.510160445209     0.679802970605     1.007825032070
           H         -2.154188443322    -0.522800554791     1.817310970605     1.007825032070
           H         -3.136476443322     0.282188445209     0.578897970605     1.007825032070
           H         -2.031461443322     1.208158445209     1.604165970605     1.007825032070

  Charge       = 0
  Multiplicity = 1
  Basis Set: 6-31G*
  Basis Set:

    Orbital Energies (a.u.)
    -----------------------

    Doubly Occupied:

       1A    -20.550565     2A    -11.326479     3A    -11.231640
       4A    -11.229516     5A    -11.218187     6A    -11.211637
       7A     -1.396469     8A     -1.074473     9A     -1.015380
      10A     -0.946762    11A     -0.820447    12A     -0.732058
      13A     -0.655066    14A     -0.652068    15A     -0.624455
      16A     -0.597795    17A     -0.567046    18A     -0.558420
      19A     -0.548818    20A     -0.496352    21A     -0.489006
      22A     -0.479113    23A     -0.476928    24A     -0.402092

  @DF-RHF Final Energy:  -270.03118169478375

   => Energetics <=

    Nuclear Repulsion Energy =            237.3539248357471081
    One-Electron Energy =                -836.1687327112937282
    Two-Electron Energy =                 328.7836261807634628
    DFT Exchange-Correlation Energy =       0.0000000000000000
    Empirical Dispersion Energy =           0.0000000000000000
    PCM Polarization Energy =               0.0000000000000000
    EFP Energy =                            0.0000000000000000
    Total Energy =                       -270.0311816947831858

  Mulliken Charges: (a.u.)
   Center  Symbol    Alpha    Beta     Spin     Total
       1     O     4.26029  4.26029  0.00000 -0.52059
       2     C     2.73722  2.73722  0.00000  0.52555
       3     C     3.20921  3.20921  0.00000 -0.41842
       4     C     3.28609  3.28609  0.00000 -0.57219
       5     C     3.14854  3.14854  0.00000 -0.29709
       6     H     0.40615  0.40615  0.00000  0.18770
       7     H     0.41240  0.41240  0.00000  0.17521
       8     C     3.24122  3.24122  0.00000 -0.48244
       9     H     0.40904  0.40904  0.00000  0.18192
      10     H     0.41408  0.41408  0.00000  0.17184
      11     H     0.41615  0.41615  0.00000  0.16769
      12     H     0.42295  0.42295  0.00000  0.15410
      13     H     0.42350  0.42350  0.00000  0.15300
      14     H     0.40944  0.40944  0.00000  0.18113
      15     H     0.39639  0.39639  0.00000  0.20722
      16     H     0.40732  0.40732  0.00000  0.18535

   Total alpha = 24.00000, Total beta = 24.00000, Total charge =  0.00000
