                              Psi4 1.0.54 Driver

  ==> Input File <==

--------------------------------------------------------------------------
set {
	reference rhf
	basis cc-pvtz
}

set_num_threads( 4 )
memory 2 gb

molecule MOL {
0 1

O	 -2.081319	 -0.951530	 -0.502732
N	 -1.613558	 0.006676	 0.014756
C	 -0.329345	 -0.171618	 0.743966
O	 -2.068523	 1.100482	 -0.024385
C	 0.791951	 0.522240	 -0.019150
H	 -0.169637	 -1.234783	 0.811735
H	 -0.477387	 0.260228	 1.719581
C	 2.131328	 0.365726	 0.696210
H	 0.852538	 0.100881	 -1.015816
H	 0.548361	 1.573158	 -0.123897
C	 3.270567	 1.057915	 -0.043714
H	 2.360542	 -0.690102	 0.806323
H	 2.053614	 0.771263	 1.700654
H	 3.394106	 0.649637	 -1.040581
H	 3.083755	 2.121514	 -0.141570
H	 4.207776	 0.932824	 0.484636

	symmetry c1
}
set optking {
	frozen_dihedral = ("
		5 3 2 1
	")
}

ee,wfn = optimize('scf', return_wfn=True)
oeprop( wfn, 'DIPOLE', 'QUADRUPOLE', 'MULLIKEN_CHARGES')
f=open( 'psi4out.xyz', 'w' )
f.write( "16  " )
f.write( str(ee) + "\n" )
f.write( MOL.save_string_xyz() )
f.close()
--------------------------------------------------------------------------

    Molecular point group: c1
  Charge       = 0
  Multiplicity = 1
  Basis Set: CC-PVTZ
  Basis Set:
  @DF-RHF Final Energy:  -360.90928772003997
    Total Energy =                       -360.9092877200401404
    Molecular point group: c1
  Basis Set: CC-PVTZ
  Basis Set:
  Basis Set: CC-PVTZ
  Basis Set:
  @DF-RHF Final Energy:  -360.90301196532039
    Total Energy =                       -360.9030119653207294
  Basis Set: CC-PVTZ
  Basis Set:
  Basis Set: CC-PVTZ
  Basis Set:
  @DF-RHF Final Energy:  -360.90906109693111
    Total Energy =                       -360.9090610969311683
  Basis Set: CC-PVTZ
  Basis Set:
  Basis Set: CC-PVTZ
  Basis Set:
  @DF-RHF Final Energy:  -360.90937668393497
    Total Energy =                       -360.9093766839350792
  Basis Set: CC-PVTZ
  Basis Set:
  Basis Set: CC-PVTZ
  Basis Set:
  @DF-RHF Final Energy:  -360.90925315096297
    Total Energy =                       -360.9092531509628543
  Basis Set: CC-PVTZ
  Basis Set:
  Basis Set: CC-PVTZ
  Basis Set:
  @DF-RHF Final Energy:  -360.90938454716184
    Total Energy =                       -360.9093845471618920
  Basis Set: CC-PVTZ
  Basis Set:
  Basis Set: CC-PVTZ
  Basis Set:
  @DF-RHF Final Energy:  -360.90938652753522
    Total Energy =                       -360.9093865275352755
  Basis Set: CC-PVTZ
  Basis Set:
  Charge       = 0
  Multiplicity = 1
  Basis Set: CC-PVTZ
  Basis Set:

    Orbital Energies (a.u.)
    -----------------------

    Doubly Occupied:

       1A    -20.591475     2A    -20.588268     3A    -15.836454
       4A    -11.296503     5A    -11.249573     6A    -11.241525
       7A    -11.225637     8A     -1.635461     9A     -1.419684
      10A     -1.136137    11A     -1.059932    12A     -0.948809
      13A     -0.843449    14A     -0.828177    15A     -0.758307
      16A     -0.739257    17A     -0.728451    18A     -0.678080
      19A     -0.615560    20A     -0.607389    21A     -0.567468
      22A     -0.541244    23A     -0.517564    24A     -0.503886
      25A     -0.496209    26A     -0.486398    27A     -0.469799
      28A     -0.452598

  @DF-RHF Final Energy:  -360.90938677582562

   => Energetics <=

    Nuclear Repulsion Energy =            312.8713959501795898
    One-Electron Energy =               -1111.4349717925683763
    Two-Electron Energy =                 437.6541890665627079
    DFT Exchange-Correlation Energy =       0.0000000000000000
    Empirical Dispersion Energy =           0.0000000000000000
    PCM Polarization Energy =               0.0000000000000000
    EFP Energy =                            0.0000000000000000
    Total Energy =                       -360.9093867758260785
    Molecular point group: c1
  Basis Set: CC-PVTZ
  Basis Set:

  -Total Gradient:
     Atom            X                  Y                   Z
    ------   -----------------  -----------------  -----------------
       1       -0.000229719904    -0.000047267834     0.000309827099
       2        0.000282884720     0.000167954157    -0.000373829311
       3       -0.000025020012    -0.000341607360    -0.000070656966
       4       -0.000009825279    -0.000043210610    -0.000011991831
       5       -0.000041385697     0.000270562517     0.000167427134
       6       -0.000016766990     0.000004754064    -0.000004314039
       7        0.000013395025     0.000002405500     0.000000491921
       8        0.000007724820    -0.000016985758    -0.000027706041
       9       -0.000000351258    -0.000005576917     0.000017438026
      10        0.000001732389     0.000009971615    -0.000011731705
      11        0.000009880540     0.000006528914     0.000012410409
      12        0.000011175120    -0.000009431325     0.000003284808
      13       -0.000005361702    -0.000001389025    -0.000011525053
      14       -0.000001097240    -0.000004268373     0.000003502446
      15       -0.000001715510     0.000001787015    -0.000002632095
      16        0.000004450975     0.000005773425     0.000000005195

  **** Optimization is complete! (in 8 steps) ****
    Final optimized geometry and variables:
    Molecular point group: c1

    Geometry (in Angstrom), charge = 0, multiplicity = 1:

    O           -2.057968689101    -1.226780403422    -0.621882113194
    N           -1.590501808504    -0.267829448061    -0.106883456537
    C           -0.303126216437    -0.434232690669     0.622006409385
    O           -2.058846554097     0.821360771927    -0.129994422057
    C            0.824388194308     0.257916761832    -0.131125903874
    H           -0.146742106814    -1.495272165886     0.710583392681
    H           -0.459797078178     0.009717573531     1.592909831178
    C            2.159010079136     0.088009354139     0.590387051719
    H            0.890564758388    -0.159643247057    -1.130364610524
    H            0.586534364293     1.308623242287    -0.234336380370
    C            3.307980852503     0.771189028911    -0.142897591186
    H            2.379532189987    -0.969511919522     0.701803183837
    H            2.079365502281     0.493956109567     1.594673544632
    H            3.433444375292     0.362624987327    -1.139462971594
    H            3.130415620574     1.836305060530    -0.241046932357
    H            4.241415504550     0.637855886941     0.390132935712

  Mulliken Charges: (a.u.)
   Center  Symbol    Alpha    Beta     Spin     Total
       1     O     4.17043  4.17043  0.00000 -0.34085
       2     N     3.27632  3.27632  0.00000  0.44736
       3     C     3.04081  3.04081  0.00000 -0.08163
       4     O     4.17534  4.17534  0.00000 -0.35067
       5     C     3.10136  3.10136  0.00000 -0.20272
       6     H     0.43268  0.43268  0.00000  0.13465
       7     H     0.43555  0.43555  0.00000  0.12890
       8     C     3.09360  3.09360  0.00000 -0.18719
       9     H     0.44164  0.44164  0.00000  0.11672
      10     H     0.43424  0.43424  0.00000  0.13152
      11     C     3.14819  3.14819  0.00000 -0.29637
      12     H     0.45036  0.45036  0.00000  0.09928
      13     H     0.45072  0.45072  0.00000  0.09856
      14     H     0.45196  0.45196  0.00000  0.09607
      15     H     0.45155  0.45155  0.00000  0.09689
      16     H     0.44526  0.44526  0.00000  0.10947

   Total alpha = 28.00000, Total beta = 28.00000, Total charge =  0.00000

*** Psi4 exiting successfully. Buy a developer a beer!
