                              Psi4 1.0.54 Driver

  ==> Input File <==

--------------------------------------------------------------------------
set {
	reference rhf
	basis cc-pvtz
}

set_num_threads( 4 )
memory 2 gb

molecule MOL {
0 1

O	 -2.081319	 -0.951530	 -0.502732
N	 -1.613558	 0.006676	 0.014756
C	 -0.329345	 -0.171618	 0.743966
O	 -2.068523	 1.100482	 -0.024385
C	 0.835904	 0.041968	 -0.213982
H	 -0.346048	 -1.174374	 1.137184
H	 -0.333613	 0.555559	 1.538590
C	 0.405664	 -0.153608	 -1.665468
H	 1.226839	 1.043160	 -0.074902
H	 1.628084	 -0.654666	 0.034791
C	 1.556110	 0.047530	 -2.645517
H	 -0.395571	 0.540597	 -1.901138
H	 -0.004142	 -1.151696	 -1.789108
H	 1.964670	 1.048934	 -2.568270
H	 2.359962	 -0.654482	 -2.453901
H	 1.224832	 -0.097897	 -3.666432

	symmetry c1
}
set optking {
	frozen_dihedral = ("
		9 5 3 2
	")
}

ee,wfn = optimize('scf', return_wfn=True)
oeprop( wfn, 'DIPOLE', 'QUADRUPOLE', 'MULLIKEN_CHARGES')
f=open( 'psi4out.xyz', 'w' )
f.write( "16  " )
f.write( str(ee) + "\n" )
f.write( MOL.save_string_xyz() )
f.close()
--------------------------------------------------------------------------

    Molecular point group: c1
  Charge       = 0
  Multiplicity = 1
  Basis Set: CC-PVTZ
  Basis Set:
  @DF-RHF Final Energy:  -360.89902125825097
    Total Energy =                       -360.8990212582509685
    Molecular point group: c1
  Basis Set: CC-PVTZ
  Basis Set:
  Basis Set: CC-PVTZ
  Basis Set:
  @DF-RHF Final Energy:  -360.89817354638211
    Total Energy =                       -360.8981735463825089
  Basis Set: CC-PVTZ
  Basis Set:
  Basis Set: CC-PVTZ
  Basis Set:
  @DF-RHF Final Energy:  -360.90147508383683
    Total Energy =                       -360.9014750838365444
  Basis Set: CC-PVTZ
  Basis Set:
  Basis Set: CC-PVTZ
  Basis Set:
  @DF-RHF Final Energy:  -360.90359099722866
    Total Energy =                       -360.9035909972284344
  Basis Set: CC-PVTZ
  Basis Set:
  @DF-RHF Final Energy:  -360.90375405839069
    Total Energy =                       -360.9037540583902910
  @DF-RHF Final Energy:  -360.90382404368239
    Total Energy =                       -360.9038240436826754
  Basis Set: CC-PVTZ
  Basis Set:
  @DF-RHF Final Energy:  -360.90387313761164
    Total Energy =                       -360.9038731376118676
  Basis Set: CC-PVTZ
  Basis Set:
  Basis Set: CC-PVTZ
  Basis Set:
  @DF-RHF Final Energy:  -360.90389530044939
    Total Energy =                       -360.9038953004497898
  Basis Set: CC-PVTZ
  Basis Set:
  Basis Set: CC-PVTZ
  Basis Set:
  @DF-RHF Final Energy:  -360.90390216507279
    Total Energy =                       -360.9039021650727364
  Basis Set: CC-PVTZ
  Basis Set:
  Charge       = 0
  Multiplicity = 1
  Basis Set: CC-PVTZ
  Basis Set:

    Orbital Energies (a.u.)
    -----------------------

    Doubly Occupied:

       1A    -20.591947     2A    -20.588295     3A    -15.836114
       4A    -11.296832     5A    -11.251326     6A    -11.232848
       7A    -11.221007     8A     -1.635497     9A     -1.419649
      10A     -1.131979    11A     -1.054844    12A     -0.947494
      13A     -0.857678    14A     -0.814707    15A     -0.750384
      16A     -0.738195    17A     -0.729961    18A     -0.670596
      19A     -0.616496    20A     -0.599398    21A     -0.576441
      22A     -0.539582    23A     -0.507948    24A     -0.496027
      25A     -0.494518    26A     -0.478767    27A     -0.473028
      28A     -0.452764

  @DF-RHF Final Energy:  -360.90390291762554

   => Energetics <=

    Nuclear Repulsion Energy =            322.0574903335524937
    One-Electron Energy =               -1129.9141466102621507
    Two-Electron Energy =                 446.9527533590842268
    DFT Exchange-Correlation Energy =       0.0000000000000000
    Empirical Dispersion Energy =           0.0000000000000000
    PCM Polarization Energy =               0.0000000000000000
    EFP Energy =                            0.0000000000000000
    Total Energy =                       -360.9039029176253734
    Molecular point group: c1
  Basis Set: CC-PVTZ
  Basis Set:

  -Total Gradient:
     Atom            X                  Y                   Z
    ------   -----------------  -----------------  -----------------
       1       -0.000128813518    -0.000167244400    -0.000072204693
       2       -0.000152973380    -0.004173120484    -0.001398627337
       3        0.001355712499     0.005095664217     0.002823480914
       4       -0.000029042481     0.000136470432    -0.000012979406
       5       -0.005234436091     0.001668700086    -0.004736551224
       6       -0.000011504816     0.000010691704    -0.000004959428
       7        0.000022683937    -0.000002508688    -0.000002382819
       8       -0.000014459306     0.000013533285    -0.000002983062
       9        0.004168861104    -0.002587553542     0.003415905786
      10        0.000018365440     0.000016812872    -0.000030014185
      11        0.000004006691    -0.000017212628     0.000022327878
      12        0.000023567385     0.000011346391    -0.000010108869
      13       -0.000010417866     0.000000241664    -0.000003080803
      14       -0.000009413991    -0.000002451284     0.000000930611
      15        0.000003218078     0.000004613404     0.000001237301
      16       -0.000005353683    -0.000007983030     0.000010009338

  **** Optimization is complete! (in 10 steps) ****
    Final optimized geometry and variables:
    Molecular point group: c1

    Geometry (in Angstrom), charge = 0, multiplicity = 1:

    O           -1.762846278312    -0.939909755092     0.451674645237
    N           -1.107731682459    -0.009325535276     0.779350104033
    C            0.272295987347    -0.274983604134     1.270555155486
    O           -1.455023696565     1.124409895665     0.734954409500
    C            1.335176782906     0.029211069117     0.200528575712
    H            0.270842578138    -1.316306437472     1.541000448963
    H            0.398545622808     0.341949976295     2.143963204228
    C            0.893929643892    -0.089587528881    -1.256151052646
    H            1.773268962874     0.999270251226     0.398861474234
    H            2.136245201861    -0.681200657602     0.378169886637
    C            2.054889390893     0.141976572257    -2.217027299749
    H            0.109658977891     0.628589727584    -1.463220286983
    H            0.469877369483    -1.072855239085    -1.428076131331
    H            2.481184253710     1.130551770841    -2.085696746534
    H            2.845726183954    -0.584188681765    -2.062582224787
    H            1.724808545186     0.058194529419    -3.245049502553

  Mulliken Charges: (a.u.)
   Center  Symbol    Alpha    Beta     Spin     Total
       1     O     4.17299  4.17299  0.00000 -0.34598
       2     N     3.27658  3.27658  0.00000  0.44685
       3     C     3.04309  3.04309  0.00000 -0.08619
       4     O     4.17534  4.17534  0.00000 -0.35068
       5     C     3.09858  3.09858  0.00000 -0.19716
       6     H     0.43342  0.43342  0.00000  0.13316
       7     H     0.42932  0.42932  0.00000  0.14136
       8     C     3.09525  3.09525  0.00000 -0.19049
       9     H     0.44286  0.44286  0.00000  0.11429
      10     H     0.44838  0.44838  0.00000  0.10324
      11     C     3.15083  3.15083  0.00000 -0.30167
      12     H     0.43949  0.43949  0.00000  0.12102
      13     H     0.44188  0.44188  0.00000  0.11623
      14     H     0.45319  0.45319  0.00000  0.09361
      15     H     0.45498  0.45498  0.00000  0.09004
      16     H     0.44381  0.44381  0.00000  0.11238

   Total alpha = 28.00000, Total beta = 28.00000, Total charge =  0.00000

*** Psi4 exiting successfully. Buy a developer a beer!
