  ==> Input File <==

--------------------------------------------------------------------------
set {
	reference rhf
	basis cc-pvtz
}

set_num_threads( 4 )
memory 2 gb

molecule MOL {
0 1

H	 -3.852163	 -1.989470	 -0.712089
C	 -2.783371	 -1.894370	 -0.740647
C	 -2.051392	 -2.611470	 -1.669956
C	 -2.142470	 -1.055618	 0.151388
H	 -2.549532	 -3.262307	 -2.362032
C	 -0.678027	 -2.488742	 -1.706041
H	 -2.711031	 -0.499937	 0.871686
C	 -0.767365	 -0.931660	 0.116510
H	 -0.095925	 -3.036511	 -2.418898
C	 -0.030948	 -1.648559	 -0.813144
H	 -0.267932	 -0.282966	 0.805925
C	 1.454652	 -1.550814	 -0.892891
O	 1.968286	 -0.725612	 -0.000027
O	 2.113856	 -2.149691	 -1.675180
C	 3.373556	 -0.568203	 0.000011
H	 3.695416	 -0.031588	 -0.879663
H	 3.782700	 -1.565294	 -0.000152
H	 3.695405	 -0.031851	 0.879862

	symmetry c1
}
set optking {
	frozen_dihedral = ("
		12 13 15 16
	")
}

ee = optimize('scf')
oeprop('DIPOLE', 'QUADRUPOLE', 'MULLIKEN_CHARGES')
f=open( 'psi4out.xyz', 'w' )
f.write( "18  " )
f.write( str(ee) + "\n" )
f.write( MOL.save_string_xyz() )
f.close()
--------------------------------------------------------------------------

    Molecular point group: c1
  Charge       = 0
  Multiplicity = 1
  Basis Set: CC-PVTZ
  Basis Set:
  @DF-RHF Final Energy:  -457.50842130698885
    Total Energy =                       -457.5084213069885664
    Molecular point group: c1
  Basis Set: CC-PVTZ
  Basis Set:
  Basis Set: CC-PVTZ
  Basis Set:
  @DF-RHF Final Energy:  -457.50976255063620
    Total Energy =                       -457.5097625506364238
  Basis Set: CC-PVTZ
  Basis Set:
  Basis Set: CC-PVTZ
  Basis Set:
  @DF-RHF Final Energy:  -457.51009422510447
    Total Energy =                       -457.5100942251042397
  Basis Set: CC-PVTZ
  Basis Set:
  Basis Set: CC-PVTZ
  Basis Set:
  @DF-RHF Final Energy:  -457.50986195908126
    Total Energy =                       -457.5098619590812632
  Basis Set: CC-PVTZ
  Basis Set:
  Basis Set: CC-PVTZ
  Basis Set:
  @DF-RHF Final Energy:  -457.51010135546608
    Total Energy =                       -457.5101013554660767
  Basis Set: CC-PVTZ
  Basis Set:
  Charge       = 0
  Multiplicity = 1
  Basis Set: CC-PVTZ
  Basis Set:

    Orbital Energies (a.u.)
    -----------------------

    Doubly Occupied:

       1A    -20.600962     2A    -20.534441     3A    -11.371841
       4A    -11.281207     5A    -11.244988     6A    -11.243509
       7A    -11.242707     8A    -11.240060     9A    -11.236075
      10A    -11.235316    11A     -1.476917    12A     -1.368543
      13A     -1.170802    14A     -1.051868    15A     -1.029069
      16A     -0.980640    17A     -0.863233    18A     -0.838481
      19A     -0.781199    20A     -0.745047    21A     -0.687897
      22A     -0.681778    23A     -0.676410    24A     -0.634110
      25A     -0.630081    26A     -0.601310    27A     -0.587492
      28A     -0.565552    29A     -0.531447    30A     -0.520325
      31A     -0.509571    32A     -0.502236    33A     -0.464113
      34A     -0.449445    35A     -0.350233    36A     -0.346266

  @DF-RHF Final Energy:  -457.51010152167055

   => Energetics <=

    Nuclear Repulsion Energy =            494.0097894766607851
    One-Electron Energy =               -1602.4894407219176173
    Two-Electron Energy =                 650.9695497235867379
    DFT Exchange-Correlation Energy =       0.0000000000000000
    Empirical Dispersion Energy =           0.0000000000000000
    PCM Polarization Energy =               0.0000000000000000
    EFP Energy =                            0.0000000000000000
    Total Energy =                       -457.5101015216699807
    Molecular point group: c1
  Basis Set: CC-PVTZ
  Basis Set:

  -Total Gradient:
     Atom            X                  Y                   Z
    ------   -----------------  -----------------  -----------------
       1        0.000000219150     0.000000955860     0.000000892403
       2       -0.000000382664    -0.000007858766    -0.000008854717
       3       -0.000009001385     0.000004705304     0.000003851519
       4        0.000012050264     0.000003201241     0.000005676146
       5        0.000002183847    -0.000000508863    -0.000000288450
       6        0.000017233164     0.000003197846     0.000004309845
       7        0.000000375312     0.000000575088    -0.000000268264
       8       -0.000001874226     0.000002156374    -0.000001640397
       9        0.000000210705    -0.000001325986    -0.000001460324
      10        0.000001750509     0.000006480188    -0.000014101128
      11        0.000004542022     0.000003765484     0.000003205458
      12        0.000095746453    -0.000621430260     0.000525193211
      13       -0.000084347588     0.001061012933    -0.000597948122
      14       -0.000030899247     0.000004732545    -0.000037919622
      15        0.000133748397    -0.001225358988    -0.000309949231
      16       -0.000118534656     0.000760621857     0.000417832768
      17       -0.000018119132    -0.000003793664     0.000002687595
      18       -0.000004900927     0.000008871810     0.000008781307

  **** Optimization is complete! (in 6 steps) ****
    Final optimized geometry and variables:
    Molecular point group: c1

    Geometry (in Angstrom), charge = 0, multiplicity = 1:

    H           -4.025527899471    -0.441856334789     0.015262197095
    C           -2.956687064355    -0.348090972024    -0.016954745363
    C           -2.229055782396    -1.063791705577    -0.950887204919
    C           -2.311291397599     0.487482902572     0.874770514041
    H           -2.730630136605    -1.712178719152    -1.642864912247
    C           -0.855697441728    -0.942771871916    -0.991779871458
    H           -2.876272496475     1.042201333285     1.598663925647
    C           -0.936027797833     0.609680685137     0.835115970562
    H           -0.277076809760    -1.489449508639    -1.708376631116
    C           -0.204144612164    -0.105807988671    -0.099026072996
    H           -0.433325019284     1.256090227445     1.524385034194
    C            1.281631967830    -0.010211677032    -0.184260675382
    O            1.798995445482     0.814505174886     0.706799693995
    O            1.936541590903    -0.609291715611    -0.969904421037
    C            3.205336632185     0.959270048041     0.717304124989
    H            3.535901268831     1.488707933763    -0.164496654879
    H            3.689370756488    -0.003649769347     0.760355467682
    H            3.436693109638     1.535539932578     1.598519848671

  Mulliken Charges: (a.u.)
   Center  Symbol    Alpha    Beta     Spin     Total
       1     H     0.42029  0.42029  0.00000  0.15943
       2     C     3.06974  3.06974  0.00000 -0.13949
       3     C     3.07551  3.07551  0.00000 -0.15101
       4     C     3.07493  3.07493  0.00000 -0.14987
       5     H     0.42038  0.42038  0.00000  0.15923
       6     C     3.07589  3.07589  0.00000 -0.15178
       7     H     0.42189  0.42189  0.00000  0.15623
       8     C     3.08212  3.08212  0.00000 -0.16424
       9     H     0.40665  0.40665  0.00000  0.18669
      10     C     3.01284  3.01284  0.00000 -0.02567
      11     H     0.41104  0.41104  0.00000  0.17792
      12     C     2.78179  2.78179  0.00000  0.43642
      13     O     4.14848  4.14848  0.00000 -0.29695
      14     O     4.21131  4.21131  0.00000 -0.42261
      15     C     3.03665  3.03665  0.00000 -0.07330
      16     H     0.45424  0.45424  0.00000  0.09152
      17     H     0.45061  0.45061  0.00000  0.09879
      18     H     0.44566  0.44566  0.00000  0.10868

   Total alpha = 36.00000, Total beta = 36.00000, Total charge = -0.00000
