  ==> Input File <==

--------------------------------------------------------------------------
set {
	reference rhf
	basis 6-31G*
}

set_num_threads( 1 )
memory 2 gb

molecule MOL {
0 1

H	 2.803428	 0.819406	 1.101388
O	 3.517057	 0.607535	 0.517508
C	 3.528310	 -0.774642	 0.265487
C	 2.396637	 -1.227938	 -0.650245
H	 4.482210	 -0.980652	 -0.202818
H	 3.500229	 -1.332737	 1.200645
C	 0.999068	 -1.024226	 -0.060186
H	 2.477635	 -0.689591	 -1.590984
H	 2.544137	 -2.283023	 -0.874757
C	 -0.111885	 -1.538514	 -0.980029
H	 0.845735	 0.032940	 0.137939
H	 0.933290	 -1.536125	 0.900009
C	 -1.527195	 -1.436481	 -0.399662
H	 -0.071139	 -1.001022	 -1.925698
H	 0.089111	 -2.581452	 -1.215786
C	 -2.037799	 -0.007733	 -0.193645
H	 -2.209549	 -1.955177	 -1.069858
H	 -1.567198	 -1.973840	 0.546637
C	 -3.489788	 0.042957	 0.286558
H	 -1.950391	 0.543125	 -1.129073
H	 -1.411525	 0.513360	 0.526456
C	 -4.216917	 1.317354	 -0.141063
H	 -4.025645	 -0.823308	 -0.095450
H	 -3.513059	 -0.038752	 1.371301
H	 -4.239342	 1.411634	 -1.223113
H	 -5.243387	 1.322503	 0.212445
H	 -3.726170	 2.201406	 0.256408

	symmetry c1
}
set optking {
	frozen_dihedral = ("
		14 10 7 4,
		14 10 13 16,
		10 7 4 8,
		8 4 3 2,
		10 13 16 20,
		4 3 2 1
	")
}

ee = energy('scf')
oeprop('DIPOLE', 'QUADRUPOLE', 'MULLIKEN_CHARGES')
f=open( 'psi4out.xyz', 'w' )
f.write( "27  " )
f.write( str(ee) + "\n" )
f.write( MOL.save_string_xyz() )
f.close()
--------------------------------------------------------------------------

    Molecular point group: c1

    Geometry (in Angstrom), charge = 0, multiplicity = 1:

       Center              X                  Y                   Z               Mass
    ------------   -----------------  -----------------  -----------------  -----------------
           H          2.861996723562     1.238121482970     1.234282206796     1.007825032070
           O          3.575625723562     1.026250482970     0.650402206796    15.994914619560
           C          3.586878723562    -0.355926517030     0.398381206796    12.000000000000
           C          2.455205723562    -0.809222517030    -0.517350793204    12.000000000000
           H          4.540778723562    -0.561936517030    -0.069923793204     1.007825032070
           H          3.558797723562    -0.914021517030     1.333539206796     1.007825032070
           C          1.057636723562    -0.605510517030     0.072708206796    12.000000000000
           H          2.536203723562    -0.270875517030    -1.458089793204     1.007825032070
           H          2.602705723562    -1.864307517030    -0.741862793204     1.007825032070
           C         -0.053316276438    -1.119798517030    -0.847134793204    12.000000000000
           H          0.904303723562     0.451655482970     0.270833206796     1.007825032070
           H          0.991858723562    -1.117409517030     1.032903206796     1.007825032070
           C         -1.468626276438    -1.017765517030    -0.266767793204    12.000000000000
           H         -0.012570276438    -0.582306517030    -1.792803793204     1.007825032070
           H          0.147679723562    -2.162736517030    -1.082891793204     1.007825032070
           C         -1.979230276438     0.410982482970    -0.060750793204    12.000000000000
           H         -2.150980276438    -1.536461517030    -0.936963793204     1.007825032070
           H         -1.508629276438    -1.555124517030     0.679531206796     1.007825032070
           C         -3.431219276438     0.461672482970     0.419452206796    12.000000000000
           H         -1.891822276438     0.961840482970    -0.996178793204     1.007825032070
           H         -1.352956276438     0.932075482970     0.659350206796     1.007825032070
           C         -4.158348276438     1.736069482970    -0.008168793204    12.000000000000
           H         -3.967076276438    -0.404592517030     0.037444206796     1.007825032070
           H         -3.454490276438     0.379963482970     1.504195206796     1.007825032070
           H         -4.180773276438     1.830349482970    -1.090218793204     1.007825032070
           H         -5.184818276438     1.741218482970     0.345339206796     1.007825032070
           H         -3.667601276438     2.620121482970     0.389302206796     1.007825032070

  Charge       = 0
  Multiplicity = 1
  Basis Set: 6-31G*
  Basis Set:

    Orbital Energies (a.u.)
    -----------------------

    Doubly Occupied:

       1A    -20.552297     2A    -11.267040     3A    -11.219781
       4A    -11.217144     5A    -11.215874     6A    -11.215311
       7A    -11.215192     8A    -11.213648     9A    -11.209395
      10A     -1.359040    11A     -1.095241    12A     -1.061533
      13A     -1.011353    14A     -0.948285    15A     -0.888316
      16A     -0.820342    17A     -0.801243    18A     -0.778363
      19A     -0.693691    20A     -0.650688    21A     -0.639049
      22A     -0.614668    23A     -0.597296    24A     -0.585186
      25A     -0.580460    26A     -0.554626    27A     -0.540908
      28A     -0.529486    29A     -0.508856    30A     -0.491806
      31A     -0.483406    32A     -0.476683    33A     -0.468267
      34A     -0.459124    35A     -0.452228    36A     -0.441304
      37A     -0.422701

  @DF-RHF Final Energy:  -388.27905872994677

   => Energetics <=

    Nuclear Repulsion Energy =            459.5232924552482245
    One-Electron Energy =               -1437.0450440110309955
    Two-Electron Energy =                 589.2426928258352063
    DFT Exchange-Correlation Energy =       0.0000000000000000
    Empirical Dispersion Energy =           0.0000000000000000
    PCM Polarization Energy =               0.0000000000000000
    EFP Energy =                            0.0000000000000000
    Total Energy =                       -388.2790587299475646

  Mulliken Charges: (a.u.)
   Center  Symbol    Alpha    Beta     Spin     Total
       1     H     0.27992  0.27992  0.00000  0.44016
       2     O     4.37094  4.37094  0.00000 -0.74188
       3     C     2.99737  2.99737  0.00000  0.00526
       4     C     3.16093  3.16093  0.00000 -0.32186
       5     H     0.41444  0.41444  0.00000  0.17112
       6     H     0.43206  0.43206  0.00000  0.13588
       7     C     3.16329  3.16329  0.00000 -0.32657
       8     H     0.41496  0.41496  0.00000  0.17008
       9     H     0.42433  0.42433  0.00000  0.15133
      10     C     3.15226  3.15226  0.00000 -0.30453
      11     H     0.42295  0.42295  0.00000  0.15411
      12     H     0.42546  0.42546  0.00000  0.14908
      13     C     3.15464  3.15464  0.00000 -0.30929
      14     H     0.42157  0.42157  0.00000  0.15686
      15     H     0.42157  0.42157  0.00000  0.15687
      16     C     3.15386  3.15386  0.00000 -0.30771
      17     H     0.42093  0.42093  0.00000  0.15815
      18     H     0.42413  0.42413  0.00000  0.15173
      19     C     3.15221  3.15221  0.00000 -0.30443
      20     H     0.42288  0.42288  0.00000  0.15423
      21     H     0.42223  0.42223  0.00000  0.15554
      22     C     3.23967  3.23967  0.00000 -0.47933
      23     H     0.42228  0.42228  0.00000  0.15543
      24     H     0.42201  0.42201  0.00000  0.15599
      25     H     0.42140  0.42140  0.00000  0.15720
      26     H     0.41986  0.41986  0.00000  0.16029
      27     H     0.42185  0.42185  0.00000  0.15630

   Total alpha = 37.00000, Total beta = 37.00000, Total charge = -0.00000
