  ==> Input File <==

--------------------------------------------------------------------------
set {
	reference rhf
	basis cc-pvtz
}

set_num_threads( 4 )
memory 2 gb

molecule MOL {
0 1

H	 -3.081520	 -0.721845	 1.141454
C	 -3.183657	 -0.448045	 0.082452
C	 -2.653809	 0.914422	 -0.273689
O	 -3.689234	 -1.199952	 -0.676716
C	 -1.216901	 1.136108	 0.207794
H	 -2.741291	 1.049041	 -1.343996
H	 -3.307845	 1.637467	 0.208750
C	 -0.247837	 0.040196	 -0.230469
H	 -0.872882	 2.093195	 -0.169002
H	 -1.209325	 1.218376	 1.291938
C	 1.181757	 0.280428	 0.247371
H	 -0.259600	 -0.030819	 -1.314870
H	 -0.591284	 -0.923375	 0.136958
C	 2.151032	 -0.811012	 -0.202643
H	 1.515939	 1.247397	 -0.115449
H	 1.191514	 0.341223	 1.333422
C	 3.580021	 -0.656538	 0.320835
H	 2.170545	 -0.847575	 -1.289412
H	 1.766632	 -1.772905	 0.124928
C	 4.327657	 0.562694	 -0.213579
H	 4.138806	 -1.549270	 0.057813
H	 3.561991	 -0.620783	 1.406976
H	 4.355973	 0.557257	 -1.298551
H	 3.867136	 1.491650	 0.100501
H	 5.351524	 0.571613	 0.142204

	symmetry c1
}
set optking {
	frozen_dihedral = ("
		6 3 5 8
	")
}

ee = optimize('scf')
oeprop('DIPOLE', 'QUADRUPOLE', 'MULLIKEN_CHARGES')
f=open( 'psi4out.xyz', 'w' )
f.write( "25  " )
f.write( str(ee) + "\n" )
f.write( MOL.save_string_xyz() )
f.close()
--------------------------------------------------------------------------

    Molecular point group: c1
  Charge       = 0
  Multiplicity = 1
  Basis Set: CC-PVTZ
  Basis Set:
  @DF-RHF Final Energy:  -387.25941958816696
    Total Energy =                       -387.2594195881671340
    Molecular point group: c1
  Basis Set: CC-PVTZ
  Basis Set:
  Basis Set: CC-PVTZ
  Basis Set:
  @DF-RHF Final Energy:  -387.25947579327601
    Total Energy =                       -387.2594757932758966
  Basis Set: CC-PVTZ
  Basis Set:
  Basis Set: CC-PVTZ
  Basis Set:
  @DF-RHF Final Energy:  -387.25938363705603
    Total Energy =                       -387.2593836370563167
  Basis Set: CC-PVTZ
  Basis Set:
  Basis Set: CC-PVTZ
  Basis Set:
  @DF-RHF Final Energy:  -387.25958239883971
    Total Energy =                       -387.2595823988397115
  Basis Set: CC-PVTZ
  Basis Set:
  Basis Set: CC-PVTZ
  Basis Set:
  @DF-RHF Final Energy:  -387.25959067543266
    Total Energy =                       -387.2595906754326052
  Basis Set: CC-PVTZ
  Basis Set:
  Charge       = 0
  Multiplicity = 1
  Basis Set: CC-PVTZ
  Basis Set:

    Orbital Energies (a.u.)
    -----------------------

    Doubly Occupied:

       1A    -20.550946     2A    -11.321082     3A    -11.233744
       4A    -11.232934     5A    -11.222270     6A    -11.218050
       7A    -11.216437     8A    -11.215260     9A    -11.208931
      10A     -1.406015    11A     -1.105397    12A     -1.070916
      13A     -1.014667    14A     -0.943599    15A     -0.876609
      16A     -0.824412    17A     -0.785231    18A     -0.782288
      19A     -0.669601    20A     -0.661064    21A     -0.635612
      22A     -0.627817    23A     -0.601917    24A     -0.598189
      25A     -0.577068    26A     -0.548592    27A     -0.540530
      28A     -0.527698    29A     -0.505725    30A     -0.497770
      31A     -0.494680    32A     -0.478054    33A     -0.465276
      34A     -0.459729    35A     -0.443010    36A     -0.411778

  @DF-RHF Final Energy:  -387.25959107320978

   => Energetics <=

    Nuclear Repulsion Energy =            440.3568429439102374
    One-Electron Energy =               -1397.2870804939786922
    Two-Electron Energy =                 569.6706464768592468
    DFT Exchange-Correlation Energy =       0.0000000000000000
    Empirical Dispersion Energy =           0.0000000000000000
    PCM Polarization Energy =               0.0000000000000000
    EFP Energy =                            0.0000000000000000
    Total Energy =                       -387.2595910732092079
    Molecular point group: c1
  Basis Set: CC-PVTZ
  Basis Set:

  -Total Gradient:
     Atom            X                  Y                   Z
    ------   -----------------  -----------------  -----------------
       1       -0.000009737404    -0.000003933570     0.000001178794
       2       -0.000031136479     0.000020348964     0.000009698801
       3        0.000524776095    -0.004675593831     0.000146206455
       4        0.000022944923    -0.000007895732     0.000006618112
       5        0.000607368257     0.002682560574    -0.002660769624
       6       -0.000624450741     0.003275518021     0.000533413390
       7        0.000009837334     0.000000012454    -0.000000229747
       8       -0.000495490712    -0.001271249647     0.001960875796
       9       -0.000019409478     0.000009201689     0.000001127539
      10        0.000013064173    -0.000006296368    -0.000013531659
      11        0.000000869594    -0.000010988442    -0.000000612107
      12        0.000019960837     0.000004580641    -0.000001174596
      13       -0.000003795292    -0.000002423239    -0.000004038505
      14       -0.000003871383    -0.000011665099     0.000020363474
      15       -0.000012117042    -0.000002671656    -0.000003516133
      16        0.000005944768     0.000000379605     0.000004095924
      17        0.000001959564    -0.000002667604    -0.000003637980
      18       -0.000004696830     0.000006066454     0.000004484087
      19        0.000003055968    -0.000006279202    -0.000001424305
      20       -0.000002436597     0.000001469689     0.000001136272
      21       -0.000001322859    -0.000001135541    -0.000001743626
      22        0.000001362637    -0.000000064627    -0.000000074508
      23        0.000000956497    -0.000001115008     0.000001108302
      24       -0.000002662202     0.000003360640    -0.000001133961
      25       -0.000000973630     0.000000480837     0.000001579803

  **** Optimization is complete! (in 6 steps) ****
    Final optimized geometry and variables:
    Molecular point group: c1

    Geometry (in Angstrom), charge = 0, multiplicity = 1:

    H           -3.175144274249    -0.683602973179     1.220226238195
    C           -3.254604359904    -0.408879970151     0.159675531489
    C           -2.675664149763     0.932716213590    -0.192190735743
    O           -3.781234897917    -1.142238457975    -0.603391404939
    C           -1.241277540561     1.133692130754     0.310340932471
    H           -2.751482954805     1.091042089105    -1.260129585276
    H           -3.315839122376     1.674743545469     0.281804554052
    C           -0.265838596841     0.045735197026    -0.135473123800
    H           -0.894527256973     2.102524401237    -0.031347551442
    H           -1.246656184496     1.180113906830     1.396377884765
    C            1.163838168979     0.298597694989     0.335567534153
    H           -0.281354164968    -0.029050207504    -1.219852253908
    H           -0.597738436873    -0.919819109407     0.236433114009
    C            2.137878654637    -0.792187991802    -0.105558838005
    H            1.491257619623     1.263436960986    -0.038628746053
    H            1.176329182848     0.371201315239     1.420927489437
    C            3.567361917284    -0.623919336204     0.412194362898
    H            2.154514849045    -0.840225356528    -1.191874532816
    H            1.760005710900    -1.752796811028     0.233331790833
    C            4.306117568944     0.594200923401    -0.136905554312
    H            4.130660866642    -1.515991164358     0.156677067502
    H            3.552180499072    -0.577101901033     1.497966598241
    H            4.330856151659     0.577988250331    -1.221838749004
    H            3.841316350193     1.523629960464     0.169389686055
    H            5.331079848666     0.612539931865     0.215337565514

  Mulliken Charges: (a.u.)
   Center  Symbol    Alpha    Beta     Spin     Total
       1     H     0.46285  0.46285  0.00000  0.07430
       2     C     2.90369  2.90369  0.00000  0.19261
       3     C     3.09105  3.09105  0.00000 -0.18210
       4     O     4.16741  4.16741  0.00000 -0.33482
       5     C     3.11423  3.11423  0.00000 -0.22846
       6     H     0.44144  0.44144  0.00000  0.11713
       7     H     0.44222  0.44222  0.00000  0.11556
       8     C     3.09205  3.09205  0.00000 -0.18411
       9     H     0.44303  0.44303  0.00000  0.11393
      10     H     0.44946  0.44946  0.00000  0.10107
      11     C     3.09382  3.09382  0.00000 -0.18764
      12     H     0.44792  0.44792  0.00000  0.10416
      13     H     0.44863  0.44863  0.00000  0.10274
      14     C     3.09543  3.09543  0.00000 -0.19086
      15     H     0.45094  0.45094  0.00000  0.09813
      16     H     0.45435  0.45435  0.00000  0.09130
      17     C     3.09088  3.09088  0.00000 -0.18177
      18     H     0.45262  0.45262  0.00000  0.09476
      19     H     0.44824  0.44824  0.00000  0.10351
      20     C     3.15266  3.15266  0.00000 -0.30533
      21     H     0.44762  0.44762  0.00000  0.10475
      22     H     0.45477  0.45477  0.00000  0.09045
      23     H     0.45440  0.45440  0.00000  0.09120
      24     H     0.45438  0.45438  0.00000  0.09123
      25     H     0.44589  0.44589  0.00000  0.10823

   Total alpha = 36.00000, Total beta = 36.00000, Total charge =  0.00000
