                              Psi4 1.0.54 Driver

  ==> Input File <==

--------------------------------------------------------------------------
set {
	reference rhf
	basis cc-pvtz
}

set_num_threads( 4 )
memory 2 gb

molecule MOL {
0 1

H	 2.285438	 -1.096544	 -0.739138
N	 2.433987	 -0.362316	 -0.080024
C	 1.263552	 0.494993	 0.021953
H	 3.229277	 0.155812	 -0.390499
C	 -0.016533	 -0.325589	 -0.026925
H	 1.280915	 1.180773	 -0.818522
H	 1.263064	 1.106893	 0.925038
C	 -1.280353	 0.525521	 0.047747
H	 -0.016686	 -0.912532	 -0.939714
H	 -0.014099	 -1.037598	 0.796369
C	 -2.560681	 -0.301323	 -0.007747
H	 -1.279957	 1.241025	 -0.770189
H	 -1.270445	 1.110526	 0.963468
H	 -2.617064	 -0.872870	 -0.928010
H	 -3.439525	 0.331102	 0.043462
H	 -2.609427	 -1.002736	 0.818585

	symmetry c1
}
set optking {
	frozen_dihedral = ("
		1 2 3 6
	")
}

ee,wfn = optimize('scf', return_wfn=True)
oeprop( wfn, 'DIPOLE', 'QUADRUPOLE', 'MULLIKEN_CHARGES')
f=open( 'psi4out.xyz', 'w' )
f.write( "16  " )
f.write( str(ee) + "\n" )
f.write( MOL.save_string_xyz() )
f.close()
--------------------------------------------------------------------------

    Molecular point group: c1
  Charge       = 0
  Multiplicity = 1
  Basis Set: CC-PVTZ
  Basis Set:
  @DF-RHF Final Energy:  -212.39748785633807
    Total Energy =                       -212.3974878563381594
    Molecular point group: c1
  Basis Set: CC-PVTZ
  Basis Set:
  Basis Set: CC-PVTZ
  Basis Set:
  @DF-RHF Final Energy:  -212.39917593046425
    Total Energy =                       -212.3991759304641960
  Basis Set: CC-PVTZ
  Basis Set:
  Basis Set: CC-PVTZ
  Basis Set:
  @DF-RHF Final Energy:  -212.39939927288216
    Total Energy =                       -212.3993992728821354
  Basis Set: CC-PVTZ
  Basis Set:
  Basis Set: CC-PVTZ
  Basis Set:
  @DF-RHF Final Energy:  -212.39940330116781
    Total Energy =                       -212.3994033011678084
  Basis Set: CC-PVTZ
  Basis Set:
  Charge       = 0
  Multiplicity = 1
  Basis Set: CC-PVTZ
  Basis Set:

    Orbital Energies (a.u.)
    -----------------------

    Doubly Occupied:

       1A    -15.524580     2A    -11.237540     3A    -11.214385
       4A    -11.211100     5A    -11.207026     6A     -1.177059
       7A     -1.062093     8A     -0.960403     9A     -0.845260
      10A     -0.795377    11A     -0.657417    12A     -0.648034
      13A     -0.602907    14A     -0.576641    15A     -0.571753
      16A     -0.522848    17A     -0.505927    18A     -0.471480
      19A     -0.466925    20A     -0.462571    21A     -0.380892

  @DF-RHF Final Energy:  -212.39940367648779

   => Energetics <=

    Nuclear Repulsion Energy =            186.6918075029802253
    One-Electron Energy =                -655.9779862151858651
    Two-Electron Energy =                 256.8867750357180171
    DFT Exchange-Correlation Energy =       0.0000000000000000
    Empirical Dispersion Energy =           0.0000000000000000
    PCM Polarization Energy =               0.0000000000000000
    EFP Energy =                            0.0000000000000000
    Total Energy =                       -212.3994036764876228
    Molecular point group: c1
  Basis Set: CC-PVTZ
  Basis Set:

  -Total Gradient:
     Atom            X                  Y                   Z
    ------   -----------------  -----------------  -----------------
       1       -0.000953464103    -0.001480212598     0.001891364566
       2        0.001583545773     0.002303879659    -0.001980066833
       3       -0.001914962763    -0.002419405425    -0.001205225002
       4        0.000004827776     0.000000241888    -0.000008040314
       5        0.000043011906     0.000028433078    -0.000006710609
       6        0.001252203065     0.001563570855     0.001300358740
       7        0.000007205381     0.000000218599     0.000011092769
       8       -0.000011991078    -0.000011776303    -0.000004329421
       9       -0.000002364231     0.000007583449     0.000005953278
      10        0.000001307124     0.000016860546    -0.000010565161
      11       -0.000020545059     0.000008221921     0.000009927169
      12        0.000010265797    -0.000007495237    -0.000001256512
      13        0.000003399148    -0.000006769023    -0.000003307372
      14        0.000004412914     0.000001904860     0.000000371424
      15       -0.000006665584    -0.000003629683     0.000001153202
      16       -0.000000186069    -0.000001626584    -0.000000719924

  **** Optimization is complete! (in 5 steps) ****
    Final optimized geometry and variables:
    Molecular point group: c1

    Geometry (in Angstrom), charge = 0, multiplicity = 1:

    H            2.299284717201    -1.087151635828    -0.814226744780
    N            2.434720536418    -0.346283719822    -0.159972121909
    C            1.259327379718     0.506015905914    -0.074674980679
    H            3.247332305351     0.163483309179    -0.430447052993
    C           -0.014455887396    -0.322307570059    -0.026871048364
    H            1.200381801073     1.225811185907    -0.891644994417
    H            1.334853151364     1.091340515727     0.836760612386
    C           -1.274865772477     0.520068601036     0.142563364480
    H           -0.094543688134    -0.906862603954    -0.941632634645
    H            0.065295372084    -1.034241927241     0.789129570697
    C           -2.549503112791    -0.316160899823     0.185728354483
    H           -1.342888563426     1.236763123103    -0.671233137201
    H           -1.196494560707     1.102488895039     1.056228430346
    H           -2.675732771387    -0.884851968443    -0.729605533447
    H           -3.425709032731     0.309857687373     0.309117415337
    H           -2.527005121345    -1.020527033842     1.010440679043

  Mulliken Charges: (a.u.)
   Center  Symbol    Alpha    Beta     Spin     Total
       1     H     0.43026  0.43026  0.00000  0.13949
       2     N     3.69184  3.69184  0.00000 -0.38367
       3     C     3.01849  3.01849  0.00000 -0.03698
       4     H     0.42992  0.42992  0.00000  0.14016
       5     C     3.08469  3.08469  0.00000 -0.16937
       6     H     0.46972  0.46972  0.00000  0.06057
       7     H     0.46005  0.46005  0.00000  0.07991
       8     C     3.08830  3.08830  0.00000 -0.17660
       9     H     0.46111  0.46111  0.00000  0.07778
      10     H     0.44881  0.44881  0.00000  0.10238
      11     C     3.14915  3.14915  0.00000 -0.29831
      12     H     0.45578  0.45578  0.00000  0.08843
      13     H     0.45361  0.45361  0.00000  0.09278
      14     H     0.45552  0.45552  0.00000  0.08895
      15     H     0.44854  0.44854  0.00000  0.10292
      16     H     0.45422  0.45422  0.00000  0.09155

   Total alpha = 21.00000, Total beta = 21.00000, Total charge = -0.00000

*** Psi4 exiting successfully. Buy a developer a beer!
