  ==> Input File <==

--------------------------------------------------------------------------
set {
	reference rhf
	basis 6-31G*
}

set_num_threads( 1 )
memory 2 gb

molecule MOL {
0 1

H	 -2.646374	 -0.642757	 1.268656
C	 -2.083525	 -0.384536	 0.393091
O	 -0.807605	 -0.127164	 0.768327
F	 -2.118945	 -1.383102	 -0.486752
F	 -2.621877	 0.670592	 -0.209486
C	 0.084052	 0.273579	 -0.209957
C	 0.511652	 -0.979898	 -0.962361
Cl	 1.488312	 1.079849	 0.507816
H	 -0.359610	 0.955839	 -0.913845
F	 1.356243	 -0.673020	 -1.923938
F	 -0.553125	 -1.528493	 -1.512572
F	 1.072980	 -1.863241	 -0.173316

	symmetry c1
}
set optking {
	frozen_dihedral = ("
		10 7 6 9,
		6 3 2 4
	")
}

ee = energy('scf')
oeprop('DIPOLE', 'QUADRUPOLE', 'MULLIKEN_CHARGES')
f=open( 'psi4out.xyz', 'w' )
f.write( "12  " )
f.write( str(ee) + "\n" )
f.write( MOL.save_string_xyz() )
f.close()
--------------------------------------------------------------------------

    Molecular point group: c1

    Geometry (in Angstrom), charge = 0, multiplicity = 1:

       Center              X                  Y                   Z               Mass
    ------------   -----------------  -----------------  -----------------  -----------------
           H         -2.449704610293    -0.274177969327     1.598894276472     1.007825032070
           C         -1.886855610293    -0.015956969327     0.723329276472    12.000000000000
           O         -0.610935610293     0.241415030673     1.098565276472    15.994914619560
           F         -1.922275610293    -1.014522969327    -0.156513723528    18.998403224000
           F         -2.425207610293     1.039171030673     0.120752276472    18.998403224000
           C          0.280721389707     0.642158030673     0.120281276472    12.000000000000
           C          0.708321389707    -0.611318969327    -0.632122723528    12.000000000000
          CL          1.684981389707     1.448428030673     0.838054276472    34.968852682000
           H         -0.162940610293     1.324418030673    -0.583606723528     1.007825032070
           F          1.552912389707    -0.304440969327    -1.593699723528    18.998403224000
           F         -0.356455610293    -1.159913969327    -1.182333723528    18.998403224000
           F          1.269649389707    -1.494661969327     0.156922276472    18.998403224000

  Charge       = 0
  Multiplicity = 1
  Basis Set: 6-31G*
  Basis Set:

    Orbital Energies (a.u.)
    -----------------------

    Doubly Occupied:

       1A   -104.851000     2A    -26.353940     3A    -26.353814
       4A    -26.346360     5A    -26.340304     6A    -26.325075
       7A    -20.646676     8A    -11.519437     9A    -11.485854
      10A    -11.399452    11A    -10.585154    12A     -8.054551
      13A     -8.050958    14A     -8.050859    15A     -1.758370
      16A     -1.715043    17A     -1.657874    18A     -1.653001
      19A     -1.624845    20A     -1.485225    21A     -1.181764
      22A     -1.044159    23A     -0.996605    24A     -0.911398
      25A     -0.860699    26A     -0.847240    27A     -0.839104
      28A     -0.835558    29A     -0.808559    30A     -0.785925
      31A     -0.731954    32A     -0.719491    33A     -0.707435
      34A     -0.698307    35A     -0.671212    36A     -0.658957
      37A     -0.653437    38A     -0.650249    39A     -0.640418
      40A     -0.626514    41A     -0.572840    42A     -0.564334
      43A     -0.529349    44A     -0.483327    45A     -0.470399

  @DF-RHF Final Energy: -1146.26526033600248

   => Energetics <=

    Nuclear Repulsion Energy =            759.2469952273708031
    One-Electron Energy =               -3101.5302905223279595
    Two-Electron Energy =                1196.0180349589534217
    DFT Exchange-Correlation Energy =       0.0000000000000000
    Empirical Dispersion Energy =           0.0000000000000000
    PCM Polarization Energy =               0.0000000000000000
    EFP Energy =                            0.0000000000000000
    Total Energy =                      -1146.2652603360036210

  Mulliken Charges: (a.u.)
   Center  Symbol    Alpha    Beta     Spin     Total
       1     H     0.40205  0.40205  0.00000  0.19589
       2     C     2.56314  2.56314  0.00000  0.87372
       3     O     4.30111  4.30111  0.00000 -0.60221
       4     F     4.68042  4.68042  0.00000 -0.36084
       5     F     4.68778  4.68778  0.00000 -0.37556
       6     C     3.05731  3.05731  0.00000 -0.11462
       7     C     2.43782  2.43782  0.00000  1.12435
       8    CL     8.48797  8.48797  0.00000  0.02406
       9     H     0.36673  0.36673  0.00000  0.26654
      10     F     4.67575  4.67575  0.00000 -0.35150
      11     F     4.67088  4.67088  0.00000 -0.34175
      12     F     4.66903  4.66903  0.00000 -0.33807

   Total alpha = 45.00000, Total beta = 45.00000, Total charge =  0.00000
