  ==> Input File <==

--------------------------------------------------------------------------
set {
	reference rhf
	basis 6-31G*
}

set_num_threads( 1 )
memory 2 gb

molecule MOL {
0 1

H	 -3.420663	 1.227371	 -1.044276
O	 -3.452007	 0.283848	 -0.965577
C	 -3.181085	 -0.079926	 0.364119
C	 -1.765924	 0.277073	 0.805136
H	 -3.327791	 -1.152017	 0.410903
H	 -3.905698	 0.375695	 1.036898
C	 -1.108607	 -0.795496	 1.674646
H	 -1.154203	 0.459186	 -0.078942
H	 -1.804003	 1.220786	 1.346595
C	 0.319013	 -0.437503	 2.092880
H	 -1.107460	 -1.738812	 1.137186
H	 -1.716562	 -0.952017	 2.564188
C	 0.968240	 -1.513129	 2.967876
H	 0.918181	 -0.272968	 1.200498
H	 0.311545	 0.507787	 2.634152
C	 2.367304	 -1.160467	 3.485953
H	 1.017203	 -2.447929	 2.411596
H	 0.321971	 -1.703228	 3.822285
C	 3.437142	 -1.043187	 2.398710
H	 2.674476	 -1.925095	 4.195376
H	 2.318885	 -0.229212	 4.046865
H	 3.499474	 -1.956413	 1.812816
H	 4.414470	 -0.865794	 2.837116
H	 3.234520	 -0.225000	 1.715571

	symmetry c1
}
set optking {
	frozen_dihedral = ("
		20 16 13 17,
		17 13 10 7,
		13 10 7 11,
		11 7 4 3,
		1 2 3 5
	")
}

ee = energy('scf')
oeprop('DIPOLE', 'QUADRUPOLE', 'MULLIKEN_CHARGES')
f=open( 'psi4out.xyz', 'w' )
f.write( "24  " )
f.write( str(ee) + "\n" )
f.write( MOL.save_string_xyz() )
f.close()
--------------------------------------------------------------------------

    Molecular point group: c1

    Geometry (in Angstrom), charge = 0, multiplicity = 1:

       Center              X                  Y                   Z               Mass
    ------------   -----------------  -----------------  -----------------  -----------------
           H         -3.071977336346     1.763409768165    -2.597077408742     1.007825032070
           O         -3.103321336346     0.819886768165    -2.518378408742    15.994914619560
           C         -2.832399336346     0.456112768165    -1.188682408742    12.000000000000
           C         -1.417238336346     0.813111768165    -0.747665408742    12.000000000000
           H         -2.979105336346    -0.615978231835    -1.141898408742     1.007825032070
           H         -3.557012336346     0.911733768165    -0.515903408742     1.007825032070
           C         -0.759921336346    -0.259457231835     0.121844591258    12.000000000000
           H         -0.805517336346     0.995224768165    -1.631743408742     1.007825032070
           H         -1.455317336346     1.756824768165    -0.206206408742     1.007825032070
           C          0.667698663654     0.098535768165     0.540078591258    12.000000000000
           H         -0.758774336346    -1.202773231835    -0.415615408742     1.007825032070
           H         -1.367876336346    -0.415978231835     1.011386591258     1.007825032070
           C          1.316925663654    -0.977090231835     1.415074591258    12.000000000000
           H          1.266866663654     0.263070768165    -0.352303408742     1.007825032070
           H          0.660230663654     1.043825768165     1.081350591258     1.007825032070
           C          2.715989663654    -0.624428231835     1.933151591258    12.000000000000
           H          1.365888663654    -1.911890231835     0.858794591258     1.007825032070
           H          0.670656663654    -1.167189231835     2.269483591258     1.007825032070
           C          3.785827663654    -0.507148231835     0.845908591258    12.000000000000
           H          3.023161663654    -1.389056231835     2.642574591258     1.007825032070
           H          2.667570663654     0.306826768165     2.494063591258     1.007825032070
           H          3.848159663654    -1.420374231835     0.260014591258     1.007825032070
           H          4.763155663654    -0.329755231835     1.284314591258     1.007825032070
           H          3.583205663654     0.311038768165     0.162769591258     1.007825032070

  Charge       = 0
  Multiplicity = 1
  Basis Set: 6-31G*
  Basis Set:

    Orbital Energies (a.u.)
    -----------------------

    Doubly Occupied:

       1A    -20.551572     2A    -11.265731     3A    -11.218323
       4A    -11.215776     5A    -11.215213     6A    -11.214517
       7A    -11.214051     8A    -11.208394     9A     -1.358187
      10A     -1.091775    11A     -1.050581    12A     -0.985951
      13A     -0.914133    14A     -0.850103    15A     -0.805667
      16A     -0.778433    17A     -0.690507    18A     -0.647175
      19A     -0.625492    20A     -0.611617    21A     -0.599654
      22A     -0.587251    23A     -0.564037    24A     -0.531413
      25A     -0.522401    26A     -0.517446    27A     -0.487456
      28A     -0.480940    29A     -0.463315    30A     -0.462408
      31A     -0.460355    32A     -0.454283    33A     -0.417676

  @DF-RHF Final Energy:  -349.24282263204526

   => Energetics <=

    Nuclear Repulsion Energy =            380.2827634270032036
    One-Electron Energy =               -1226.9275150641051368
    Two-Electron Energy =                 497.4019290050570703
    DFT Exchange-Correlation Energy =       0.0000000000000000
    Empirical Dispersion Energy =           0.0000000000000000
    PCM Polarization Energy =               0.0000000000000000
    EFP Energy =                            0.0000000000000000
    Total Energy =                       -349.2428226320449198

  Mulliken Charges: (a.u.)
   Center  Symbol    Alpha    Beta     Spin     Total
       1     H     0.28363  0.28363  0.00000  0.43274
       2     O     4.36977  4.36977  0.00000 -0.73954
       3     C     2.99236  2.99236  0.00000  0.01528
       4     C     3.17395  3.17395  0.00000 -0.34791
       5     H     0.41531  0.41531  0.00000  0.16938
       6     H     0.43011  0.43011  0.00000  0.13978
       7     C     3.15851  3.15851  0.00000 -0.31702
       8     H     0.41323  0.41323  0.00000  0.17355
       9     H     0.42440  0.42440  0.00000  0.15119
      10     C     3.15396  3.15396  0.00000 -0.30793
      11     H     0.41870  0.41870  0.00000  0.16260
      12     H     0.42342  0.42342  0.00000  0.15316
      13     C     3.15268  3.15268  0.00000 -0.30536
      14     H     0.42019  0.42019  0.00000  0.15962
      15     H     0.42423  0.42423  0.00000  0.15154
      16     C     3.15237  3.15237  0.00000 -0.30475
      17     H     0.42362  0.42362  0.00000  0.15276
      18     H     0.42252  0.42252  0.00000  0.15495
      19     C     3.24122  3.24122  0.00000 -0.48244
      20     H     0.42088  0.42088  0.00000  0.15824
      21     H     0.42362  0.42362  0.00000  0.15276
      22     H     0.42193  0.42193  0.00000  0.15615
      23     H     0.41925  0.41925  0.00000  0.16149
      24     H     0.42013  0.42013  0.00000  0.15975

   Total alpha = 33.00000, Total beta = 33.00000, Total charge = -0.00000
