  ==> Input File <==

--------------------------------------------------------------------------
set {
	reference rhf
	basis 6-31G*
}

set_num_threads( 1 )
memory 2 gb

molecule MOL {
0 1

H	 -2.070625	 0.780630	 -2.395520
N	 -1.101896	 0.654418	 -2.175045
C	 -0.809967	 -0.745297	 -1.920724
H	 -0.910828	 1.190698	 -1.351027
C	 0.649506	 -0.910364	 -1.552176
H	 -1.416688	 -1.183017	 -1.126814
H	 -1.003278	 -1.310335	 -2.827446
O	 0.874168	 -0.245412	 -0.342030
H	 0.894865	 -1.967221	 -1.449756
H	 1.274615	 -0.488605	 -2.336136
C	 2.202317	 -0.244239	 0.074611
H	 2.711377	 -1.041390	 -0.449894
H	 2.692099	 0.699270	 -0.159667
H	 2.283185	 -0.418429	 1.145558

	symmetry c1
}
set optking {
	frozen_dihedral = ("
		8 5 3 6,
		6 3 2 4,
		11 8 5 3
	")
}

ee = energy('scf')
oeprop('DIPOLE', 'QUADRUPOLE', 'MULLIKEN_CHARGES')
f=open( 'psi4out.xyz', 'w' )
f.write( "14  " )
f.write( str(ee) + "\n" )
f.write( MOL.save_string_xyz() )
f.close()
--------------------------------------------------------------------------

    Molecular point group: c1

    Geometry (in Angstrom), charge = 0, multiplicity = 1:

       Center              X                  Y                   Z               Mass
    ------------   -----------------  -----------------  -----------------  -----------------
           H         -2.437545815245     1.064743267923    -1.226667325930     1.007825032070
           N         -1.468816815245     0.938531267923    -1.006192325930    14.003074004780
           C         -1.176887815245    -0.461183732077    -0.751871325930    12.000000000000
           H         -1.277748815245     1.474811267923    -0.182174325930     1.007825032070
           C          0.282585184755    -0.626250732077    -0.383323325930    12.000000000000
           H         -1.783608815245    -0.898903732077     0.042038674070     1.007825032070
           H         -1.370198815245    -1.026221732077    -1.658593325930     1.007825032070
           O          0.507247184755     0.038701267923     0.826822674070    15.994914619560
           H          0.527944184755    -1.683107732077    -0.280903325930     1.007825032070
           H          0.907694184755    -0.204491732077    -1.167283325930     1.007825032070
           C          1.835396184755     0.039874267923     1.243463674070    12.000000000000
           H          2.344456184755    -0.757276732077     0.718958674070     1.007825032070
           H          2.325178184755     0.983383267923     1.009185674070     1.007825032070
           H          1.916264184755    -0.134315732077     2.314410674070     1.007825032070

  Charge       = 0
  Multiplicity = 1
  Basis Set: 6-31G*
  Basis Set:

    Orbital Energies (a.u.)
    -----------------------

    Doubly Occupied:

       1A    -20.554533     2A    -15.528317     3A    -11.266586
       4A    -11.265828     5A    -11.240774     6A     -1.380502
       7A     -1.173499     8A     -0.998200     9A     -0.907311
      10A     -0.816798    11A     -0.684110    12A     -0.672212
      13A     -0.642217    14A     -0.612510    15A     -0.606085
      16A     -0.539006    17A     -0.533788    18A     -0.496184
      19A     -0.472761    20A     -0.413483    21A     -0.380060

  @DF-RHF Final Energy:  -248.12116450383326

   => Energetics <=

    Nuclear Repulsion Energy =            194.7520926670997596
    One-Electron Energy =                -723.3769555853810971
    Two-Electron Energy =                 280.5036984144477401
    DFT Exchange-Correlation Energy =       0.0000000000000000
    Empirical Dispersion Energy =           0.0000000000000000
    PCM Polarization Energy =               0.0000000000000000
    EFP Energy =                            0.0000000000000000
    Total Energy =                       -248.1211645038335973

  Mulliken Charges: (a.u.)
   Center  Symbol    Alpha    Beta     Spin     Total
       1     H     0.33287  0.33287  0.00000  0.33426
       2     N     3.92531  3.92531  0.00000 -0.85062
       3     C     3.06870  3.06870  0.00000 -0.13739
       4     H     0.32354  0.32354  0.00000  0.35291
       5     C     2.99231  2.99231  0.00000  0.01538
       6     H     0.42653  0.42653  0.00000  0.14694
       7     H     0.42053  0.42053  0.00000  0.15894
       8     O     4.31182  4.31182  0.00000 -0.62364
       9     H     0.43013  0.43013  0.00000  0.13974
      10     H     0.42200  0.42200  0.00000  0.15600
      11     C     3.07528  3.07528  0.00000 -0.15055
      12     H     0.43003  0.43003  0.00000  0.13995
      13     H     0.42339  0.42339  0.00000  0.15323
      14     H     0.41757  0.41757  0.00000  0.16485

   Total alpha = 21.00000, Total beta = 21.00000, Total charge =  0.00000
