  ==> Input File <==

--------------------------------------------------------------------------
set {
	reference rhf
	basis 6-31G*
}

set_num_threads( 4 )
memory 2 gb

molecule MOL {
0 1

H	 2.591676	 2.013956	 0.335017
O	 3.341076	 1.666752	 -0.126416
C	 3.569581	 0.339145	 0.272707
C	 2.539767	 -0.640285	 -0.279495
H	 4.553106	 0.084646	 -0.100901
H	 3.608576	 0.269204	 1.359154
C	 1.098966	 -0.126859	 -0.221583
H	 2.802883	 -0.873957	 -1.307860
H	 2.616308	 -1.567438	 0.286099
C	 0.084349	 -1.153614	 -0.732607
H	 1.020580	 0.783920	 -0.808697
H	 0.850634	 0.139832	 0.805815
C	 -1.382246	 -0.722282	 -0.616882
H	 0.308406	 -1.392229	 -1.770735
H	 0.216345	 -2.078046	 -0.174303
C	 -1.778495	 0.459576	 -1.506082
H	 -2.009945	 -1.573637	 -0.871841
H	 -1.605646	 -0.483126	 0.421739
C	 -3.272057	 0.784620	 -1.434967
H	 -1.508619	 0.238882	 -2.537863
H	 -1.212843	 1.344924	 -1.225908
C	 -3.669147	 1.968042	 -2.316724
H	 -3.845533	 -0.092024	 -1.728409
H	 -3.545560	 0.995913	 -0.403252
H	 -3.438129	 1.774213	 -3.360413
H	 -4.733104	 2.172124	 -2.246148
H	 -3.139538	 2.870473	 -2.024327

	symmetry c1
}
set optking {
	frozen_dihedral = ("
		8 4 3 2
	")
}

ee = optimize('scf')
oeprop('DIPOLE', 'QUADRUPOLE', 'MULLIKEN_CHARGES')
f=open( 'psi4out.xyz', 'w' )
f.write( "27  " )
f.write( str(ee) + "\n" )
f.write( MOL.save_string_xyz() )
f.close()
--------------------------------------------------------------------------

    Molecular point group: c1
  Charge       = 0
  Multiplicity = 1
  Basis Set: 6-31G*
  Basis Set:
  @DF-RHF Final Energy:  -388.27955056519846
    Total Energy =                       -388.2795505651980648
    Molecular point group: c1
  Basis Set: 6-31G*
  Basis Set:
  Basis Set: 6-31G*
  Basis Set:
  @DF-RHF Final Energy:  -388.27979689010823
    Total Energy =                       -388.2797968901074910
  Basis Set: 6-31G*
  Basis Set:
  Basis Set: 6-31G*
  Basis Set:
  @DF-RHF Final Energy:  -388.27989402726769
    Total Energy =                       -388.2798940272680284
  Basis Set: 6-31G*
  Basis Set:
  Basis Set: 6-31G*
  Basis Set:
  @DF-RHF Final Energy:  -388.27992348667482
    Total Energy =                       -388.2799234866748748
  Basis Set: 6-31G*
  Basis Set:
  Basis Set: 6-31G*
  Basis Set:
  @DF-RHF Final Energy:  -388.27992479905731
    Total Energy =                       -388.2799247990571985
  Basis Set: 6-31G*
  Basis Set:
  Basis Set: 6-31G*
  Basis Set:
  @DF-RHF Final Energy:  -388.27992286787384
    Total Energy =                       -388.2799228678736654
  Basis Set: 6-31G*
  Basis Set:
  Basis Set: 6-31G*
  Basis Set:
  @DF-RHF Final Energy:  -388.27992576318348
    Total Energy =                       -388.2799257631834280
  Basis Set: 6-31G*
  Basis Set:
  Charge       = 0
  Multiplicity = 1
  Basis Set: 6-31G*
  Basis Set:

    Orbital Energies (a.u.)
    -----------------------

    Doubly Occupied:

       1A    -20.552075     2A    -11.267535     3A    -11.219311
       4A    -11.217094     5A    -11.215831     6A    -11.215623
       7A    -11.215399     8A    -11.213658     9A    -11.208794
      10A     -1.359163    11A     -1.094725    12A     -1.060712
      13A     -1.010719    14A     -0.948530    15A     -0.888702
      16A     -0.819703    17A     -0.800489    18A     -0.777615
      19A     -0.693639    20A     -0.649678    21A     -0.636573
      22A     -0.616354    23A     -0.601248    24A     -0.584665
      25A     -0.578036    26A     -0.553605    27A     -0.542920
      28A     -0.529285    29A     -0.505285    30A     -0.491732
      31A     -0.484523    32A     -0.473797    33A     -0.469704
      34A     -0.460815    35A     -0.448746    36A     -0.442393
      37A     -0.422909

  @DF-RHF Final Energy:  -388.27992571070223

   => Energetics <=

    Nuclear Repulsion Energy =            460.5770937554752322
    One-Electron Energy =               -1439.1708681162790526
    Two-Electron Energy =                 590.3138486501011357
    DFT Exchange-Correlation Energy =       0.0000000000000000
    Empirical Dispersion Energy =           0.0000000000000000
    PCM Polarization Energy =               0.0000000000000000
    EFP Energy =                            0.0000000000000000
    Total Energy =                       -388.2799257107026278
    Molecular point group: c1
  Basis Set: 6-31G*
  Basis Set:

  -Total Gradient:
     Atom            X                  Y                   Z
    ------   -----------------  -----------------  -----------------
       1        0.000008457846    -0.000021143531    -0.000000617136
       2       -0.002227767930     0.000585010487     0.002971286004
       3        0.003631580709    -0.001593614485    -0.003717756844
       4       -0.003963280547     0.004787862974    -0.000724626292
       5       -0.000021650591    -0.000011131708    -0.000007754808
       6        0.000011174951    -0.000047731858     0.000001584784
       7       -0.000009149656     0.000059571297    -0.000044963696
       8        0.002510512851    -0.003735481607     0.001499744529
       9        0.000023053908    -0.000001321578    -0.000001892171
      10        0.000025191799    -0.000019340529     0.000000351564
      11       -0.000020533010     0.000009024149     0.000007048051
      12        0.000014481717    -0.000009057005     0.000005245726
      13        0.000001858381     0.000000735584    -0.000008412669
      14        0.000006776612    -0.000011569248    -0.000000214546
      15       -0.000007351668     0.000000331091     0.000005628483
      16        0.000006908192     0.000007493662     0.000007452598
      17        0.000002075687    -0.000002303034    -0.000001250912
      18       -0.000003900104     0.000000643362    -0.000003228951
      19        0.000000458546     0.000003875712     0.000006357644
      20        0.000001203629     0.000002684649     0.000003048128
      21        0.000011731076     0.000000326503     0.000006179945
      22       -0.000001137529    -0.000005824190    -0.000006254319
      23       -0.000000219520    -0.000001718171     0.000004706071
      24       -0.000000108880     0.000004720265     0.000000309632
      25        0.000001127659     0.000002067551    -0.000001788716
      26       -0.000000589061    -0.000002014934    -0.000001906959
      27       -0.000000905073    -0.000002095406     0.000001724861

  **** Optimization is complete! (in 8 steps) ****
    Final optimized geometry and variables:
    Molecular point group: c1

    Geometry (in Angstrom), charge = 0, multiplicity = 1:

    H            2.532010501372     1.693884693933     1.114302407411
    O            3.297980545252     1.346217580354     0.681627752504
    C            3.472140342340     0.001550208901     1.049402066982
    C            2.431375300263    -0.946964686674     0.449303123430
    H            4.463635527267    -0.276771859483     0.718184245953
    H            3.459104856736    -0.086015877295     2.135136911491
    C            0.991041670101    -0.441369441197     0.530284995189
    H            2.697052215371    -1.179705765316    -0.578888206792
    H            2.509807968317    -1.891528864624     0.986603527786
    C           -0.023631838959    -1.473219753016     0.029984738180
    H            0.903621102063     0.471973093045    -0.048415852312
    H            0.753605616578    -0.184942020662     1.563988853562
    C           -1.490059698145    -1.042400095929     0.150254070933
    H            0.195690221376    -1.715861295352    -1.008289630607
    H            0.111798646422    -2.395078313929     0.591532514152
    C           -1.892705233847     0.130207946548    -0.748230504011
    H           -2.118329008449    -1.896858447100    -0.092619514883
    H           -1.707755949054    -0.793508343270     1.187866900158
    C           -3.385349051504     0.457378865149    -0.668057224413
    H           -1.631789465730    -0.102275838475    -1.779696836187
    H           -1.323687329511     1.017903935345    -0.483103435710
    C           -3.789537211384     1.628689563278    -1.562659704578
    H           -3.962150592733    -0.422801687769    -0.943975512496
    H           -3.649417292756     0.683349857012     0.363040981039
    H           -3.568191374766     1.419980262611    -2.605555051433
    H           -4.852664912846     1.834665420904    -1.485260582925
    H           -3.256473703002     2.534571130789    -1.287873216129

  Mulliken Charges: (a.u.)
   Center  Symbol    Alpha    Beta     Spin     Total
       1     H     0.27941  0.27941  0.00000  0.44118
       2     O     4.37040  4.37040  0.00000 -0.74080
       3     C     2.99661  2.99661  0.00000  0.00677
       4     C     3.16301  3.16301  0.00000 -0.32602
       5     H     0.41417  0.41417  0.00000  0.17165
       6     H     0.43189  0.43189  0.00000  0.13622
       7     C     3.16646  3.16646  0.00000 -0.33293
       8     H     0.41685  0.41685  0.00000  0.16631
       9     H     0.42448  0.42448  0.00000  0.15104
      10     C     3.15231  3.15231  0.00000 -0.30462
      11     H     0.41390  0.41390  0.00000  0.17220
      12     H     0.42874  0.42874  0.00000  0.14252
      13     C     3.15356  3.15356  0.00000 -0.30712
      14     H     0.42170  0.42170  0.00000  0.15660
      15     H     0.42171  0.42171  0.00000  0.15657
      16     C     3.15246  3.15246  0.00000 -0.30493
      17     H     0.42130  0.42130  0.00000  0.15740
      18     H     0.42464  0.42464  0.00000  0.15071
      19     C     3.15123  3.15123  0.00000 -0.30246
      20     H     0.42355  0.42355  0.00000  0.15290
      21     H     0.42316  0.42316  0.00000  0.15369
      22     C     3.23916  3.23916  0.00000 -0.47832
      23     H     0.42301  0.42301  0.00000  0.15399
      24     H     0.42350  0.42350  0.00000  0.15301
      25     H     0.42143  0.42143  0.00000  0.15714
      26     H     0.41937  0.41937  0.00000  0.16126
      27     H     0.42198  0.42198  0.00000  0.15605

   Total alpha = 37.00000, Total beta = 37.00000, Total charge = -0.00000
