                              Psi4 1.0.54 Driver

  ==> Input File <==

--------------------------------------------------------------------------
set {
	reference rhf
	basis cc-pvtz
}

set_num_threads( 4 )
memory 2 gb

molecule MOL {
0 1

H	 1.394764	 3.137773	 4.552701
C	 1.369811	 2.574051	 3.639590
C	 0.608820	 3.020001	 2.573915
C	 2.098269	 1.404533	 3.532075
H	 0.043656	 3.927858	 2.658091
C	 0.577259	 2.295077	 1.400892
H	 2.688107	 1.059550	 4.359088
C	 2.067690	 0.677545	 2.358171
H	 -0.006515	 2.625781	 0.566087
C	 1.306412	 1.121361	 1.288594
H	 2.630677	 -0.228593	 2.271620
C	 1.238974	 0.374429	 0.000004
O	 1.968286	 -0.725612	 -0.000027
O	 0.598269	 0.726086	 -0.933277
C	 3.373556	 -0.568203	 0.000011
H	 3.695416	 -0.031588	 -0.879663
H	 3.782700	 -1.565294	 -0.000152
H	 3.695405	 -0.031851	 0.879862

	symmetry c1
}
set optking {
	frozen_dihedral = ("
		10 12 13 15
	")
}

ee,wfn = optimize('scf', return_wfn=True)
oeprop( wfn, 'DIPOLE', 'QUADRUPOLE', 'MULLIKEN_CHARGES')
f=open( 'psi4out.xyz', 'w' )
f.write( "18  " )
f.write( str(ee) + "\n" )
f.write( MOL.save_string_xyz() )
f.close()
--------------------------------------------------------------------------

    Molecular point group: c1
  Charge       = 0
  Multiplicity = 1
  Basis Set: CC-PVTZ
  Basis Set:
  @DF-RHF Final Energy:  -457.48097345452095
    Total Energy =                       -457.4809734545206084
    Molecular point group: c1
  Basis Set: CC-PVTZ
  Basis Set:
  Basis Set: CC-PVTZ
  Basis Set:
  @DF-RHF Final Energy:  -457.48357498809861
    Total Energy =                       -457.4835749880985531
  Basis Set: CC-PVTZ
  Basis Set:
  Basis Set: CC-PVTZ
  Basis Set:
  @DF-RHF Final Energy:  -457.48927152128232
    Total Energy =                       -457.4892715212827170
  Basis Set: CC-PVTZ
  Basis Set:
  Basis Set: CC-PVTZ
  Basis Set:
  @DF-RHF Final Energy:  -457.48946840813880
    Total Energy =                       -457.4894684081390324
  Basis Set: CC-PVTZ
  Basis Set:
  @DF-RHF Final Energy:  -457.48969626608550
    Total Energy =                       -457.4896962660856161
  Basis Set: CC-PVTZ
  Basis Set:
  @DF-RHF Final Energy:  -457.49001273434834
    Total Energy =                       -457.4900127343486247
  Basis Set: CC-PVTZ
  Basis Set:
  Basis Set: CC-PVTZ
  Basis Set:
  @DF-RHF Final Energy:  -457.49007669029288
    Total Energy =                       -457.4900766902925398
  Basis Set: CC-PVTZ
  Basis Set:
  Basis Set: CC-PVTZ
  Basis Set:
  @DF-RHF Final Energy:  -457.49008091439765
    Total Energy =                       -457.4900809143974811
  Basis Set: CC-PVTZ
  Basis Set:
  Charge       = 0
  Multiplicity = 1
  Basis Set: CC-PVTZ
  Basis Set:

    Orbital Energies (a.u.)
    -----------------------

    Doubly Occupied:

       1A    -20.584768     2A    -20.543635     3A    -11.373781
       4A    -11.290018     5A    -11.250880     6A    -11.249414
       7A    -11.248502     8A    -11.245754     9A    -11.242625
      10A    -11.241201    11A     -1.465112    12A     -1.372581
      13A     -1.176171    14A     -1.050299    15A     -1.035070
      16A     -0.978582    17A     -0.876778    18A     -0.846121
      19A     -0.784424    20A     -0.741602    21A     -0.690511
      22A     -0.680927    23A     -0.668853    24A     -0.642179
      25A     -0.633207    26A     -0.612510    27A     -0.602530
      28A     -0.565761    29A     -0.536290    30A     -0.523675
      31A     -0.510337    32A     -0.497869    33A     -0.466895
      34A     -0.446431    35A     -0.355399    36A     -0.352248

  @DF-RHF Final Energy:  -457.49008149000088

   => Energetics <=

    Nuclear Repulsion Energy =            498.0087054337911923
    One-Electron Energy =               -1610.2316929475466623
    Two-Electron Energy =                 654.7329060237545946
    DFT Exchange-Correlation Energy =       0.0000000000000000
    Empirical Dispersion Energy =           0.0000000000000000
    PCM Polarization Energy =               0.0000000000000000
    EFP Energy =                            0.0000000000000000
    Total Energy =                       -457.4900814900008754
    Molecular point group: c1
  Basis Set: CC-PVTZ
  Basis Set:

  -Total Gradient:
     Atom            X                  Y                   Z
    ------   -----------------  -----------------  -----------------
       1        0.000001951355     0.000000969612    -0.000001280614
       2        0.000015852662    -0.000019348405     0.000001682895
       3        0.000003881485    -0.000014040823    -0.000018954439
       4       -0.000023291689     0.000009067746     0.000020124652
       5       -0.000002465185    -0.000009734726     0.000003226907
       6        0.000003083243     0.000000936226     0.000000531456
       7        0.000011769907     0.000009985223    -0.000008286635
       8       -0.000014666560    -0.000003554420    -0.000021336034
       9        0.000002258088    -0.000004950756     0.000004417159
      10        0.000786515114     0.000491371665    -0.000343352213
      11        0.000013041622     0.000016186346    -0.000017200744
      12       -0.001119003085    -0.000793506090     0.000995682620
      13        0.000324739187     0.000342990588    -0.001766783729
      14       -0.000000035607    -0.000001753697     0.000035948838
      15        0.000024920755    -0.000026835460     0.001101209902
      16       -0.000012017373    -0.000006943003     0.000010538716
      17       -0.000015273673     0.000006491919    -0.000004731170
      18       -0.000001260245     0.000002668055     0.000008562432

  **** Optimization is complete! (in 9 steps) ****
    Final optimized geometry and variables:
    Molecular point group: c1

    Geometry (in Angstrom), charge = 0, multiplicity = 1:

    H           -0.137806770016     2.135843624203     3.266580667658
    C           -0.162499742636     1.571379443844     2.354039850288
    C           -0.548042618174     2.182933475524     1.174127590315
    C            0.185357682545     0.234261439171     2.361219509475
    H           -0.822063839133     3.220065795050     1.170093874514
    C           -0.588138184271     1.455715924988     0.002991156316
    H            0.472969674483    -0.243159623340     3.277826939341
    C            0.160431077475    -0.490507043522     1.185279112609
    H           -0.901249908435     1.911668925916    -0.914534894396
    C           -0.223982842861     0.117584451590     0.001384456991
    H            0.421355857575    -1.529874184784     1.191304593676
    C           -0.311308510951    -0.644287246869    -1.282084324216
    O            0.402335293135    -1.779980942432    -1.349816644380
    O           -0.993005389703    -0.304070525458    -2.180003526079
    C            1.809856470725    -1.686942172230    -1.404338854329
    H            2.117834704850    -1.248542186604    -2.345237984683
    H            2.186043101500    -2.695096430622    -1.341031125961
    H            2.207170995975    -1.101853745757    -0.586350359549

  Mulliken Charges: (a.u.)
   Center  Symbol    Alpha    Beta     Spin     Total
       1     H     0.41959  0.41959  0.00000  0.16083
       2     C     3.07156  3.07156  0.00000 -0.14311
       3     C     3.07167  3.07167  0.00000 -0.14334
       4     C     3.07441  3.07441  0.00000 -0.14883
       5     H     0.41982  0.41982  0.00000  0.16037
       6     C     3.08190  3.08190  0.00000 -0.16380
       7     H     0.42048  0.42048  0.00000  0.15904
       8     C     3.09009  3.09009  0.00000 -0.18019
       9     H     0.40810  0.40810  0.00000  0.18379
      10     C     3.02902  3.02902  0.00000 -0.05804
      11     H     0.40856  0.40856  0.00000  0.18288
      12     C     2.77367  2.77367  0.00000  0.45267
      13     O     4.16077  4.16077  0.00000 -0.32154
      14     O     4.17692  4.17692  0.00000 -0.35384
      15     C     3.04553  3.04553  0.00000 -0.09106
      16     H     0.44850  0.44850  0.00000  0.10299
      17     H     0.44246  0.44246  0.00000  0.11507
      18     H     0.45695  0.45695  0.00000  0.08609

   Total alpha = 36.00000, Total beta = 36.00000, Total charge =  0.00000

*** Psi4 exiting successfully. Buy a developer a beer!
