  ==> Input File <==

--------------------------------------------------------------------------
set {
	reference rhf
	basis 6-31G*
}

set_num_threads( 4 )
memory 2 gb

molecule MOL {
0 1

O	 2.402608	 1.278533	 2.011302
C	 2.230595	 0.239080	 1.460839
C	 1.245376	 -0.013843	 0.345420
O	 2.902775	 -0.863870	 1.766299
C	 0.455112	 1.231400	 -0.050772
H	 1.806725	 -0.421855	 -0.488610
H	 0.582135	 -0.809765	 0.674535
C	 -0.998893	 1.219485	 0.433193
H	 0.482531	 1.345121	 -1.130325
H	 0.957290	 2.103070	 0.354729
C	 -1.883438	 0.145884	 -0.207175
H	 -1.431207	 2.195402	 0.224832
H	 -1.019646	 1.105716	 1.516076
C	 -3.347647	 0.245583	 0.225435
H	 -1.822183	 0.231698	 -1.291012
H	 -1.510341	 -0.844814	 0.042401
C	 -4.239992	 -0.825570	 -0.404234
H	 -3.732888	 1.230466	 -0.033079
H	 -3.408585	 0.170602	 1.310038
C	 -5.701275	 -0.716658	 0.029921
H	 -4.179496	 -0.752714	 -1.488058
H	 -3.859041	 -1.810759	 -0.143352
H	 -6.308102	 -1.488908	 -0.432678
H	 -6.122175	 0.245478	 -0.248167
H	 -5.799072	 -0.820114	 1.106957
C	 3.862462	 -0.765165	 2.802707
H	 4.626214	 -0.045174	 2.546192
H	 4.293899	 -1.749223	 2.900170
H	 3.392164	 -0.469055	 3.729354

	symmetry c1
}
set optking {
	frozen_dihedral = ("
		6 3 5 9
	")
}

ee = optimize('scf')
oeprop('DIPOLE', 'QUADRUPOLE', 'MULLIKEN_CHARGES')
f=open( 'psi4out.xyz', 'w' )
f.write( "29  " )
f.write( str(ee) + "\n" )
f.write( MOL.save_string_xyz() )
f.close()
--------------------------------------------------------------------------

    Molecular point group: c1
  Charge       = 0
  Multiplicity = 1
  Basis Set: 6-31G*
  Basis Set:
  @DF-RHF Final Energy:  -501.03983023637613
    Total Energy =                       -501.0398302363760195
    Molecular point group: c1
  Basis Set: 6-31G*
  Basis Set:
  Basis Set: 6-31G*
  Basis Set:
  @DF-RHF Final Energy:  -501.04004921723686
    Total Energy =                       -501.0400492172373106
  Basis Set: 6-31G*
  Basis Set:
  Basis Set: 6-31G*
  Basis Set:
  @DF-RHF Final Energy:  -501.04030065837935
    Total Energy =                       -501.0403006583790102
  Basis Set: 6-31G*
  Basis Set:
  Basis Set: 6-31G*
  Basis Set:
  @DF-RHF Final Energy:  -501.04021087068531
    Total Energy =                       -501.0402108706855415
  Basis Set: 6-31G*
  Basis Set:
  Basis Set: 6-31G*
  Basis Set:
  @DF-RHF Final Energy:  -501.04037403950304
    Total Energy =                       -501.0403740395023533
  Basis Set: 6-31G*
  Basis Set:
  Basis Set: 6-31G*
  Basis Set:
  @DF-RHF Final Energy:  -501.04036824970365
    Total Energy =                       -501.0403682497026239
  Basis Set: 6-31G*
  Basis Set:
  Basis Set: 6-31G*
  Basis Set:
  @DF-RHF Final Energy:  -501.04038414999695
    Total Energy =                       -501.0403841499969531
  Basis Set: 6-31G*
  Basis Set:
  Charge       = 0
  Multiplicity = 1
  Basis Set: 6-31G*
  Basis Set:

    Orbital Energies (a.u.)
    -----------------------

    Doubly Occupied:

       1A    -20.603936     2A    -20.546174     3A    -11.372917
       4A    -11.281072     5A    -11.234664     6A    -11.217370
       7A    -11.215317     8A    -11.215140     9A    -11.214603
      10A    -11.213309    11A    -11.208392    12A     -1.469875
      13A     -1.363230    14A     -1.096032    15A     -1.065264
      16A     -1.018842    17A     -0.976658    18A     -0.927631
      19A     -0.861063    20A     -0.800453    21A     -0.790071
      22A     -0.763254    23A     -0.700796    24A     -0.681725
      25A     -0.672298    26A     -0.652299    27A     -0.620610
      28A     -0.610308    29A     -0.591402    30A     -0.580088
      31A     -0.565548    32A     -0.549675    33A     -0.535736
      34A     -0.527114    35A     -0.516197    36A     -0.504003
      37A     -0.500259    38A     -0.474764    39A     -0.469248
      40A     -0.460467    41A     -0.457801    42A     -0.457463
      43A     -0.439619    44A     -0.436268

  @DF-RHF Final Energy:  -501.04038415362322

   => Energetics <=

    Nuclear Repulsion Energy =            614.6338530814954311
    One-Electron Energy =               -1900.4305649304244525
    Two-Electron Energy =                 784.7563276953060267
    DFT Exchange-Correlation Energy =       0.0000000000000000
    Empirical Dispersion Energy =           0.0000000000000000
    PCM Polarization Energy =               0.0000000000000000
    EFP Energy =                            0.0000000000000000
    Total Energy =                       -501.0403841536231084
    Molecular point group: c1
  Basis Set: 6-31G*
  Basis Set:

  -Total Gradient:
     Atom            X                  Y                   Z
    ------   -----------------  -----------------  -----------------
       1       -0.000005853000     0.000031088061    -0.000008455948
       2        0.000006592237     0.000050198898    -0.000007696713
       3        0.002697618691     0.002058198897     0.000681801948
       4       -0.000029477733    -0.000026804445    -0.000019549277
       5       -0.002800661235    -0.001985046692    -0.000223148687
       6       -0.001808428690    -0.001373870090    -0.000517189210
       7       -0.000001330773    -0.000004259000    -0.000017591369
       8       -0.000000520598    -0.000024717483    -0.000023962946
       9        0.001911344780     0.001255335762     0.000115077887
      10        0.000014935607     0.000015991349     0.000007983825
      11        0.000007018109     0.000013063824    -0.000008043466
      12        0.000023845807     0.000025693906    -0.000003720417
      13       -0.000020054363    -0.000022300857    -0.000013470886
      14        0.000010933545    -0.000018995668     0.000038058177
      15        0.000006554018     0.000009059241    -0.000007930910
      16       -0.000006582590     0.000003476175     0.000005381237
      17        0.000002486050     0.000000219093     0.000000927010
      18       -0.000002812876    -0.000007403083     0.000012350957
      19        0.000002930292    -0.000010241030     0.000006862843
      20       -0.000005919600     0.000013672294    -0.000015587833
      21        0.000008329493    -0.000010113529    -0.000004724554
      22       -0.000007164712     0.000002193858     0.000011791307
      23       -0.000002211244     0.000003611700    -0.000003504995
      24       -0.000005133491     0.000002553368     0.000003128029
      25        0.000005397082    -0.000001417857    -0.000005070644
      26       -0.000001575982     0.000001971682     0.000000231452
      27       -0.000001836032    -0.000000053521    -0.000000163451
      28        0.000000089050    -0.000001161969    -0.000001083129
      29        0.000001488151     0.000000057115    -0.000002700238

  **** Optimization is complete! (in 8 steps) ****
    Final optimized geometry and variables:
    Molecular point group: c1

    Geometry (in Angstrom), charge = 0, multiplicity = 1:

    O            2.649018232848     1.194940877127     1.223506299109
    C            2.486333016718     0.147096759127     0.686258605126
    C            1.513612568689    -0.138702464767    -0.434468252546
    O            3.156568220897    -0.948758674320     1.019388251761
    C            0.706113877756     1.084393476882    -0.896914136943
    H            2.074726643394    -0.587167625368    -1.247821938095
    H            0.866933883842    -0.934380570921    -0.077007257031
    C           -0.744644936265     1.108947237476    -0.403737165744
    H            0.727464078339     1.139770019413    -1.981646035654
    H            1.208997548187     1.975428467333    -0.542607510568
    C           -1.659114909928     0.080327625294    -1.074203453369
    H           -1.151384052831     2.101944889654    -0.579608730495
    H           -0.756609918251     0.965160842801     0.675268009049
    C           -3.097151631516     0.128725128953    -0.554097353857
    H           -1.659082300415     0.254232402601    -2.149092782907
    H           -1.265393305727    -0.924014284065    -0.930652051054
    C           -4.022017935972    -0.883042288114    -1.233180207771
    H           -3.497319182052     1.131304047505    -0.695597012803
    H           -3.097713088374    -0.049360795375     0.520044842309
    C           -5.457548852752    -0.824143761791    -0.712095692708
    H           -4.020810903913    -0.707622675632    -2.306920174584
    H           -3.626869304557    -1.886375256150    -1.088084761107
    H           -6.088422562610    -1.552322126085    -1.212526524415
    H           -5.893346085574     0.157723741513    -0.874020873755
    H           -5.496430249211    -1.029970178523     0.353905810016
    C            4.102646558302    -0.830837986352     2.066345722351
    H            4.867503785845    -0.112610726404     1.808311883153
    H            4.535588657016    -1.811939361506     2.184513005869
    H            3.619531121280    -0.521910510906     2.982126726598

  Mulliken Charges: (a.u.)
   Center  Symbol    Alpha    Beta     Spin     Total
       1     O     4.28521  4.28521  0.00000 -0.57041
       2     C     2.61120  2.61120  0.00000  0.77760
       3     C     3.21036  3.21036  0.00000 -0.42072
       4     O     4.30564  4.30564  0.00000 -0.61127
       5     C     3.16441  3.16441  0.00000 -0.32882
       6     H     0.39700  0.39700  0.00000  0.20600
       7     H     0.39835  0.39835  0.00000  0.20329
       8     C     3.15613  3.15613  0.00000 -0.31226
       9     H     0.41931  0.41931  0.00000  0.16138
      10     H     0.39482  0.39482  0.00000  0.21037
      11     C     3.15387  3.15387  0.00000 -0.30774
      12     H     0.41894  0.41894  0.00000  0.16213
      13     H     0.42013  0.42013  0.00000  0.15974
      14     C     3.15035  3.15035  0.00000 -0.30071
      15     H     0.42358  0.42358  0.00000  0.15284
      16     H     0.42486  0.42486  0.00000  0.15028
      17     C     3.15139  3.15139  0.00000 -0.30279
      18     H     0.42330  0.42330  0.00000  0.15341
      19     H     0.42369  0.42369  0.00000  0.15262
      20     C     3.23930  3.23930  0.00000 -0.47859
      21     H     0.42313  0.42313  0.00000  0.15375
      22     H     0.42360  0.42360  0.00000  0.15281
      23     H     0.41946  0.41946  0.00000  0.16108
      24     H     0.42157  0.42157  0.00000  0.15685
      25     H     0.42173  0.42173  0.00000  0.15654
      26     C     3.09211  3.09211  0.00000 -0.18422
      27     H     0.40895  0.40895  0.00000  0.18210
      28     H     0.40849  0.40849  0.00000  0.18302
      29     H     0.40913  0.40913  0.00000  0.18173

   Total alpha = 44.00000, Total beta = 44.00000, Total charge = -0.00000
