                              Psi4 1.0.54 Driver

  ==> Input File <==

--------------------------------------------------------------------------
set {
	reference rhf
	basis cc-pvtz
}

set_num_threads( 4 )
memory 2 gb

molecule MOL {
0 1

H	 -2.362939	 -1.309000	 -0.383250
C	 -1.359344	 -1.272457	 0.020748
C	 -0.684082	 0.000127	 -0.464918
H	 -0.825835	 -2.151141	 -0.318537
H	 -1.416276	 -1.292399	 1.099455
C	 -1.359089	 1.272668	 0.021259
N	 0.742439	 -0.000109	 0.007333
H	 -0.596914	 0.000345	 -1.538146
H	 -2.362696	 1.309620	 -0.382686
H	 -0.825392	 2.151374	 -0.317674
H	 -1.415983	 1.292181	 1.099973
O	 1.569892	 -0.359944	 -0.760446
O	 0.950709	 0.359715	 1.117936

	symmetry c1
}
set optking {
	frozen_dihedral = ("
		12 7 3 8
	")
}

ee,wfn = optimize('scf', return_wfn=True)
oeprop( wfn, 'DIPOLE', 'QUADRUPOLE', 'MULLIKEN_CHARGES')
f=open( 'psi4out.xyz', 'w' )
f.write( "13  " )
f.write( str(ee) + "\n" )
f.write( MOL.save_string_xyz() )
f.close()
--------------------------------------------------------------------------

    Molecular point group: c1
  Charge       = 0
  Multiplicity = 1
  Basis Set: CC-PVTZ
  Basis Set:
  @DF-RHF Final Energy:  -321.86416713081229
    Total Energy =                       -321.8641671308123478
    Molecular point group: c1
  Basis Set: CC-PVTZ
  Basis Set:
  Basis Set: CC-PVTZ
  Basis Set:
  @DF-RHF Final Energy:  -321.85770795197982
    Total Energy =                       -321.8577079519795348
  Basis Set: CC-PVTZ
  Basis Set:
  Basis Set: CC-PVTZ
  Basis Set:
  @DF-RHF Final Energy:  -321.86373156459359
    Total Energy =                       -321.8637315645936496
  Basis Set: CC-PVTZ
  Basis Set:
  Basis Set: CC-PVTZ
  Basis Set:
  @DF-RHF Final Energy:  -321.86406159323246
    Total Energy =                       -321.8640615932326909
  Basis Set: CC-PVTZ
  Basis Set:
  Basis Set: CC-PVTZ
  Basis Set:
  @DF-RHF Final Energy:  -321.86432458546602
    Total Energy =                       -321.8643245854658517
  Basis Set: CC-PVTZ
  Basis Set:
  Basis Set: CC-PVTZ
  Basis Set:
  @DF-RHF Final Energy:  -321.86444984518641
    Total Energy =                       -321.8644498451861864
  Basis Set: CC-PVTZ
  Basis Set:
  Charge       = 0
  Multiplicity = 1
  Basis Set: CC-PVTZ
  Basis Set:

    Orbital Energies (a.u.)
    -----------------------

    Doubly Occupied:

       1A    -20.589336     2A    -20.588582     3A    -15.832668
       4A    -11.304364     5A    -11.245198     6A    -11.240529
       7A     -1.633954     8A     -1.418255     9A     -1.142528
      10A     -0.973862    11A     -0.957247    12A     -0.816487
      13A     -0.752991    14A     -0.732507    15A     -0.726487
      16A     -0.649754    17A     -0.594939    18A     -0.588086
      19A     -0.571162    20A     -0.529950    21A     -0.522432
      22A     -0.485388    23A     -0.470010    24A     -0.452184

  @DF-RHF Final Energy:  -321.86445048173283

   => Energetics <=

    Nuclear Repulsion Energy =            257.3719761844435538
    One-Electron Energy =                -948.8350523299909582
    Two-Electron Energy =                 369.5986256638144596
    DFT Exchange-Correlation Energy =       0.0000000000000000
    Empirical Dispersion Energy =           0.0000000000000000
    PCM Polarization Energy =               0.0000000000000000
    EFP Energy =                            0.0000000000000000
    Total Energy =                       -321.8644504817328880
    Molecular point group: c1
  Basis Set: CC-PVTZ
  Basis Set:

  -Total Gradient:
     Atom            X                  Y                   Z
    ------   -----------------  -----------------  -----------------
       1        0.000016761421     0.000016320788    -0.000004185275
       2        0.000061165795     0.000043399078     0.000010450442
       3       -0.000092108700    -0.000870316476     0.000101202295
       4       -0.000001024802    -0.000014628300     0.000002228172
       5       -0.000007391519    -0.000010987550     0.000013522152
       6       -0.000033398419     0.000059314999    -0.000004431772
       7        0.000311997694     0.000725938075    -0.000157717183
       8        0.000059160132     0.000561234053     0.000022046576
       9       -0.000010096555     0.000009938157    -0.000001764192
      10       -0.000001136678    -0.000008139258     0.000004002158
      11        0.000010536512    -0.000015021460    -0.000024793459
      12       -0.000171505060    -0.000486164988     0.000113167720
      13       -0.000142959816    -0.000010887119    -0.000073727634

  **** Optimization is complete! (in 7 steps) ****
    Final optimized geometry and variables:
    Molecular point group: c1

    Geometry (in Angstrom), charge = 0, multiplicity = 1:

    H           -2.363505912767    -1.271262279512    -0.404884998971
    C           -1.354429366157    -1.247527917137    -0.014687651436
    C           -0.681843991386     0.042170415537    -0.465083645732
    H           -0.823802712223    -2.113083442077    -0.388259939487
    H           -1.399849781046    -1.299376003019     1.064790762473
    C           -1.365431315780     1.297075910442     0.045646940298
    N            0.743690651181    -0.004185733280     0.009809084713
    H           -0.590270426574     0.063624779858    -1.538145163069
    H           -2.358350811498     1.345415885985    -0.383773542782
    H           -0.824662385836     2.186348507189    -0.250920797660
    H           -1.450020878961     1.287056660341     1.121900145614
    O            1.557746723183    -0.368993432842    -0.770505705936
    O            0.961412141300     0.291325815724     1.136717505960

  Mulliken Charges: (a.u.)
   Center  Symbol    Alpha    Beta     Spin     Total
       1     H     0.44848  0.44848  0.00000  0.10304
       2     C     3.14305  3.14305  0.00000 -0.28611
       3     C     3.00777  3.00777  0.00000 -0.01553
       4     H     0.43823  0.43823  0.00000  0.12354
       5     H     0.44120  0.44120  0.00000  0.11760
       6     C     3.14458  3.14458  0.00000 -0.28917
       7     N     3.27456  3.27456  0.00000  0.45088
       8     H     0.42520  0.42520  0.00000  0.14960
       9     H     0.44990  0.44990  0.00000  0.10021
      10     H     0.44129  0.44129  0.00000  0.11742
      11     H     0.43819  0.43819  0.00000  0.12361
      12     O     4.17123  4.17123  0.00000 -0.34246
      13     O     4.17632  4.17632  0.00000 -0.35263

   Total alpha = 24.00000, Total beta = 24.00000, Total charge =  0.00000

*** Psi4 exiting successfully. Buy a developer a beer!
