  ==> Input File <==

--------------------------------------------------------------------------
set {
	reference rhf
	basis 6-31G*
}

set_num_threads( 4 )
memory 2 gb

molecule MOL {
0 1

H	 3.883498	 0.352401	 -0.210468
N	 3.092854	 -0.246221	 -0.068770
C	 1.865559	 0.531981	 0.018834
H	 3.255486	 -0.742805	 0.786675
C	 0.645745	 -0.382037	 -0.029944
H	 1.841966	 1.207024	 -0.831236
H	 1.815756	 1.155410	 0.915079
C	 -0.679275	 0.379305	 0.025956
H	 0.698998	 -0.976915	 -0.937203
H	 0.693479	 -1.083846	 0.802235
C	 -1.903357	 -0.536963	 -0.023547
H	 -0.726309	 1.082987	 -0.803784
H	 -0.717680	 0.977832	 0.934877
C	 -3.225172	 0.228290	 0.028445
H	 -1.867824	 -1.134999	 -0.931459
H	 -1.860449	 -1.239604	 0.805977
H	 -3.313397	 0.915643	 -0.808262
H	 -4.073500	 -0.448134	 -0.008893
H	 -3.306061	 0.809945	 0.942516

	symmetry c1
}
set optking {
	frozen_dihedral = ("
		1 2 3 6
	")
}

ee = optimize('scf')
oeprop('DIPOLE', 'QUADRUPOLE', 'MULLIKEN_CHARGES')
f=open( 'psi4out.xyz', 'w' )
f.write( "19  " )
f.write( str(ee) + "\n" )
f.write( MOL.save_string_xyz() )
f.close()
--------------------------------------------------------------------------

    Molecular point group: c1
  Charge       = 0
  Multiplicity = 1
  Basis Set: 6-31G*
  Basis Set:
  @DF-RHF Final Energy:  -251.35161790342769
    Total Energy =                       -251.3516179034277229
    Molecular point group: c1
  Basis Set: 6-31G*
  Basis Set:
  Basis Set: 6-31G*
  Basis Set:
  @DF-RHF Final Energy:  -251.35163239471862
    Total Energy =                       -251.3516323947184787
  Basis Set: 6-31G*
  Basis Set:
  Basis Set: 6-31G*
  Basis Set:
  @DF-RHF Final Energy:  -251.35163576047827
    Total Energy =                       -251.3516357604781888
  Basis Set: 6-31G*
  Basis Set:
  Charge       = 0
  Multiplicity = 1
  Basis Set: 6-31G*
  Basis Set:

    Orbital Energies (a.u.)
    -----------------------

    Doubly Occupied:

       1A    -15.532186     2A    -11.239808     3A    -11.213534
       4A    -11.212175     5A    -11.208326     6A    -11.207206
       7A     -1.176126     8A     -1.072475     9A     -0.998029
      10A     -0.899992    11A     -0.812451    12A     -0.788556
      13A     -0.667076    14A     -0.640465    15A     -0.616452
      16A     -0.587114    17A     -0.565050    18A     -0.549366
      19A     -0.528017    20A     -0.499579    21A     -0.479235
      22A     -0.464504    23A     -0.460415    24A     -0.450507
      25A     -0.379796

  @DF-RHF Final Energy:  -251.35163616179074

   => Energetics <=

    Nuclear Repulsion Energy =            245.5859720682246348
    One-Electron Energy =                -825.3783366232373737
    Two-Electron Energy =                 328.4407283932218888
    DFT Exchange-Correlation Energy =       0.0000000000000000
    Empirical Dispersion Energy =           0.0000000000000000
    PCM Polarization Energy =               0.0000000000000000
    EFP Energy =                            0.0000000000000000
    Total Energy =                       -251.3516361617907933
    Molecular point group: c1
  Basis Set: 6-31G*
  Basis Set:

  -Total Gradient:
     Atom            X                  Y                   Z
    ------   -----------------  -----------------  -----------------
       1       -0.000150672714    -0.000079660656    -0.001003075534
       2        0.000290478396     0.000229759491     0.001357266110
       3       -0.000615848225    -0.000804152055    -0.000766175297
       4       -0.000038343561     0.000012278241    -0.000034241311
       5        0.000016139454    -0.000012849947    -0.000013712038
       6        0.000454492130     0.000606265936     0.000500120061
       7        0.000002068042     0.000030972177    -0.000010406553
       8        0.000019432094     0.000012728820    -0.000007614547
       9        0.000001488125    -0.000000798980    -0.000009055070
      10        0.000007477191     0.000011439225    -0.000016131337
      11        0.000003426356    -0.000011583530     0.000009335495
      12       -0.000001161265    -0.000003363440    -0.000009793491
      13        0.000007374519     0.000007960138    -0.000008664768
      14        0.000004576937     0.000002529473     0.000009574235
      15       -0.000000353315     0.000008314396     0.000001774059
      16       -0.000000870033    -0.000008791966    -0.000000621477
      17        0.000001632683    -0.000001163134    -0.000000194240
      18        0.000001214471    -0.000001367544     0.000000963325
      19       -0.000002551281     0.000001483356     0.000000652379

  **** Optimization is complete! (in 4 steps) ****
    Final optimized geometry and variables:
    Molecular point group: c1

    Geometry (in Angstrom), charge = 0, multiplicity = 1:

    H            3.886398207538     0.351853283434    -0.193830861166
    N            3.093857522150    -0.245137695170    -0.059495515664
    C            1.864563569739     0.531152762658     0.014714795294
    H            3.246299559396    -0.753188781220     0.790473106467
    C            0.645017280552    -0.382792158977    -0.034279746651
    H            1.848422890298     1.205181288868    -0.836320127192
    H            1.810188486117     1.160657804442     0.906511738625
    C           -0.680107896466     0.378123122535     0.023575063705
    H            0.698327987243    -0.977176130484    -0.941729836629
    H            0.694772547266    -1.085253716468     0.797001987041
    C           -1.904082794708    -0.538428893322    -0.023441371261
    H           -0.728945431925     1.081654081042    -0.806290608802
    H           -0.717237179045     0.977135152119     0.932301648595
    C           -3.226030412842     0.226250254886     0.033079774398
    H           -1.870914432555    -1.135558172816    -0.931996498155
    H           -1.858546034203    -1.241900629796     0.805232223351
    H           -3.317172354246     0.913994566313    -0.802982827210
    H           -4.074266717546    -0.450489764002    -0.001930884508
    H           -3.304309573809     0.807426052997     0.947701937959

  Mulliken Charges: (a.u.)
   Center  Symbol    Alpha    Beta     Spin     Total
       1     H     0.33202  0.33202  0.00000  0.33596
       2     N     3.92284  3.92284  0.00000 -0.84569
       3     C     3.06131  3.06131  0.00000 -0.12261
       4     H     0.33474  0.33474  0.00000  0.33052
       5     C     3.14926  3.14926  0.00000 -0.29852
       6     H     0.42130  0.42130  0.00000  0.15739
       7     H     0.43448  0.43448  0.00000  0.13105
       8     C     3.15523  3.15523  0.00000 -0.31047
       9     H     0.41359  0.41359  0.00000  0.17282
      10     H     0.42740  0.42740  0.00000  0.14519
      11     C     3.15074  3.15074  0.00000 -0.30149
      12     H     0.42395  0.42395  0.00000  0.15211
      13     H     0.42502  0.42502  0.00000  0.14996
      14     C     3.23927  3.23927  0.00000 -0.47854
      15     H     0.42192  0.42192  0.00000  0.15615
      16     H     0.42328  0.42328  0.00000  0.15345
      17     H     0.42187  0.42187  0.00000  0.15626
      18     H     0.41944  0.41944  0.00000  0.16112
      19     H     0.42233  0.42233  0.00000  0.15534

   Total alpha = 25.00000, Total beta = 25.00000, Total charge = -0.00000
