  ==> Input File <==

--------------------------------------------------------------------------
set {
	reference rhf
	basis cc-pvtz
}

set_num_threads( 4 )
memory 2 gb

molecule MOL {
0 1

H	 -1.743282	 1.148255	 -0.171433
N	 -1.851927	 0.161443	 -0.071573
C	 -0.561396	 -0.500007	 0.035200
H	 -2.353296	 -0.162360	 -0.872270
C	 0.575129	 0.507849	 -0.048832
H	 -0.478089	 -1.200753	 -0.788956
H	 -0.456191	 -1.081816	 0.952176
C	 1.951750	 -0.141983	 0.035101
H	 0.478254	 1.061643	 -0.975981
H	 0.467676	 1.231891	 0.755499
H	 2.101550	 -0.848142	 -0.774949
H	 2.738260	 0.600794	 -0.026526
H	 2.078939	 -0.679792	 0.968824

	symmetry c1
}
set optking {
	frozen_dihedral = ("
		1 2 3 6
	")
}

ee = optimize('scf')
oeprop('DIPOLE', 'QUADRUPOLE', 'MULLIKEN_CHARGES')
f=open( 'psi4out.xyz', 'w' )
f.write( "13  " )
f.write( str(ee) + "\n" )
f.write( MOL.save_string_xyz() )
f.close()
--------------------------------------------------------------------------

    Molecular point group: c1
  Charge       = 0
  Multiplicity = 1
  Basis Set: CC-PVTZ
  Basis Set:
  @DF-RHF Final Energy:  -173.34766621307591
    Total Energy =                       -173.3476662130757973
    Molecular point group: c1
  Basis Set: CC-PVTZ
  Basis Set:
  Basis Set: CC-PVTZ
  Basis Set:
  @DF-RHF Final Energy:  -173.34865657601421
    Total Energy =                       -173.3486565760140934
  Basis Set: CC-PVTZ
  Basis Set:
  Basis Set: CC-PVTZ
  Basis Set:
  @DF-RHF Final Energy:  -173.34880782872588
    Total Energy =                       -173.3488078287257679
  Basis Set: CC-PVTZ
  Basis Set:
  Basis Set: CC-PVTZ
  Basis Set:
  @DF-RHF Final Energy:  -173.34881019522095
    Total Energy =                       -173.3488101952209206
  Basis Set: CC-PVTZ
  Basis Set:
  Charge       = 0
  Multiplicity = 1
  Basis Set: CC-PVTZ
  Basis Set:

    Orbital Energies (a.u.)
    -----------------------

    Doubly Occupied:

       1A    -15.523299     2A    -11.238132     3A    -11.216484
       4A    -11.210131     5A     -1.175377     6A     -1.038946
       7A     -0.900572     8A     -0.807458     9A     -0.662841
      10A     -0.627815    11A     -0.606161    12A     -0.554314
      13A     -0.546661    14A     -0.499091    15A     -0.482839
      16A     -0.471084    17A     -0.377884

  @DF-RHF Final Energy:  -173.34881054742550

   => Energetics <=

    Nuclear Repulsion Energy =            131.9463947913092738
    One-Electron Energy =                -494.7122310876140432
    Two-Electron Energy =                 189.4170257488793254
    DFT Exchange-Correlation Energy =       0.0000000000000000
    Empirical Dispersion Energy =           0.0000000000000000
    PCM Polarization Energy =               0.0000000000000000
    EFP Energy =                            0.0000000000000000
    Total Energy =                       -173.3488105474254439
    Molecular point group: c1
  Basis Set: CC-PVTZ
  Basis Set:

  -Total Gradient:
     Atom            X                  Y                   Z
    ------   -----------------  -----------------  -----------------
       1        0.000011802672     0.000034873599     0.000209979264
       2       -0.000070024001    -0.000055702370    -0.000204875309
       3        0.000151315302     0.000174761769    -0.000098185036
       4        0.000011001866    -0.000000097330    -0.000024454640
       5       -0.000074338532    -0.000026988244    -0.000009770907
       6       -0.000081254634    -0.000133699215     0.000104619328
       7        0.000015304016     0.000011942372     0.000007417556
       8        0.000020850345     0.000004107961     0.000025298727
       9       -0.000012914126    -0.000006670601     0.000005138323
      10        0.000008900107    -0.000002970209    -0.000014817467
      11       -0.000010028155     0.000011677970     0.000002860979
      12        0.000025080783    -0.000006696237     0.000003886959
      13        0.000004304356    -0.000004539465    -0.000007097776

  **** Optimization is complete! (in 5 steps) ****
    Final optimized geometry and variables:
    Molecular point group: c1

    Geometry (in Angstrom), charge = 0, multiplicity = 1:

    H           -1.805279392911     1.129540796025    -0.110619472212
    N           -1.878519127845     0.140647534130    -0.012682170207
    C           -0.566556374367    -0.498903840875     0.023060683240
    H           -2.439873211432    -0.196864259052    -0.762114993848
    C            0.581635301192     0.499488679054    -0.040328588074
    H           -0.468530526084    -1.205020940062    -0.796641080927
    H           -0.476074889407    -1.077780084966     0.937744684665
    C            1.950607385416    -0.159634583655     0.082933998578
    H            0.522454660489     1.050340766406    -0.975318958658
    H            0.456974753763     1.226853148013     0.757827174915
    H            2.115767146636    -0.872822680978    -0.717761079614
    H            2.744423225829     0.576526885460     0.037754427522
    H            2.045850815427    -0.691201662853     1.023464884621

  Mulliken Charges: (a.u.)
   Center  Symbol    Alpha    Beta     Spin     Total
       1     H     0.42858  0.42858  0.00000  0.14285
       2     N     3.69642  3.69642  0.00000 -0.39285
       3     C     3.01289  3.01289  0.00000 -0.02577
       4     H     0.42730  0.42730  0.00000  0.14541
       5     C     3.08619  3.08619  0.00000 -0.17238
       6     H     0.46444  0.46444  0.00000  0.07111
       7     H     0.46409  0.46409  0.00000  0.07183
       8     C     3.15236  3.15236  0.00000 -0.30471
       9     H     0.45702  0.45702  0.00000  0.08595
      10     H     0.45343  0.45343  0.00000  0.09313
      11     H     0.45560  0.45560  0.00000  0.08880
      12     H     0.44793  0.44793  0.00000  0.10414
      13     H     0.45375  0.45375  0.00000  0.09249

   Total alpha = 17.00000, Total beta = 17.00000, Total charge = -0.00000
