  ==> Input File <==

--------------------------------------------------------------------------
set {
	reference rhf
	basis cc-pvtz
}

set_num_threads( 4 )
memory 2 gb

molecule MOL {
0 1

H	 -1.525331	 0.680632	 2.229446
C	 -1.140440	 0.363201	 1.283385
C	 -1.926419	 0.430208	 0.088856
C	 0.102604	 -0.113343	 1.179549
H	 -2.930167	 0.808601	 0.138508
C	 -1.420931	 0.026827	 -1.080906
H	 0.751680	 -0.194227	 2.028842
N	 0.640204	 -0.530428	 -0.000115
H	 -1.979278	 0.062523	 -1.993559
C	 -0.065202	 -0.492059	 -1.190392
C	 2.006991	 -1.033007	 -0.000020
O	 0.424055	 -0.863748	 -2.222244
H	 2.182444	 -1.636914	 -0.880881
H	 2.678769	 -0.195442	 -0.002236
H	 2.183828	 -1.633244	 0.883082

	symmetry c1
}
set optking {
	frozen_dihedral = ("
		10 8 11 13
	")
}

ee = optimize('scf')
oeprop('DIPOLE', 'QUADRUPOLE', 'MULLIKEN_CHARGES')
f=open( 'psi4out.xyz', 'w' )
f.write( "15  " )
f.write( str(ee) + "\n" )
f.write( MOL.save_string_xyz() )
f.close()
--------------------------------------------------------------------------

    Molecular point group: c1
  Charge       = 0
  Multiplicity = 1
  Basis Set: CC-PVTZ
  Basis Set:
  @DF-RHF Final Energy:  -360.72231772035502
    Total Energy =                       -360.7223177203547948
    Molecular point group: c1
  Basis Set: CC-PVTZ
  Basis Set:
  Basis Set: CC-PVTZ
  Basis Set:
  @DF-RHF Final Energy:  -360.72267364897431
    Total Energy =                       -360.7226736489742507
  Basis Set: CC-PVTZ
  Basis Set:
  Basis Set: CC-PVTZ
  Basis Set:
  @DF-RHF Final Energy:  -360.72268741340736
    Total Energy =                       -360.7226874134071295
  Basis Set: CC-PVTZ
  Basis Set:
  Basis Set: CC-PVTZ
  Basis Set:
  @DF-RHF Final Energy:  -360.72273240475693
    Total Energy =                       -360.7227324047570960
  Basis Set: CC-PVTZ
  Basis Set:
  Basis Set: CC-PVTZ
  Basis Set:
  @DF-RHF Final Energy:  -360.72273742992854
    Total Energy =                       -360.7227374299286566
  Basis Set: CC-PVTZ
  Basis Set:
  Charge       = 0
  Multiplicity = 1
  Basis Set: CC-PVTZ
  Basis Set:

    Orbital Energies (a.u.)
    -----------------------

    Doubly Occupied:

       1A    -20.501826     2A    -15.616782     3A    -11.339176
       4A    -11.293472     5A    -11.264024     6A    -11.258181
       7A    -11.230423     8A    -11.228240     9A     -1.390694
      10A     -1.285799    11A     -1.118801    12A     -1.028942
      13A     -0.972388    14A     -0.875905    15A     -0.838666
      16A     -0.719217    17A     -0.702871    18A     -0.663543
      19A     -0.652735    20A     -0.625420    21A     -0.611918
      22A     -0.574639    23A     -0.556728    24A     -0.550567
      25A     -0.529755    26A     -0.483206    27A     -0.420411
      28A     -0.410563    29A     -0.310790

  @DF-RHF Final Energy:  -360.72273767443721

   => Energetics <=

    Nuclear Repulsion Energy =            358.5299022142976355
    One-Electron Energy =               -1200.3939070746055222
    Two-Electron Energy =                 481.1412671858706744
    DFT Exchange-Correlation Energy =       0.0000000000000000
    Empirical Dispersion Energy =           0.0000000000000000
    PCM Polarization Energy =               0.0000000000000000
    EFP Energy =                            0.0000000000000000
    Total Energy =                       -360.7227376744372123
    Molecular point group: c1
  Basis Set: CC-PVTZ
  Basis Set:

  -Total Gradient:
     Atom            X                  Y                   Z
    ------   -----------------  -----------------  -----------------
       1       -0.000001799261    -0.000006028634     0.000001421405
       2        0.000016184473    -0.000026316145     0.000005903831
       3       -0.000000116563     0.000014921576    -0.000021271893
       4        0.000003984881     0.000047229502     0.000011856906
       5       -0.000000534807    -0.000005079463     0.000002557976
       6       -0.000009723417     0.000013903151     0.000002652931
       7       -0.000000595849    -0.000012063470     0.000003079616
       8        0.000270648087     0.000803100188    -0.000233850332
       9        0.000000672774    -0.000005016326    -0.000001031143
      10       -0.000157893785    -0.000502044386     0.000116125766
      11       -0.000282448027    -0.000805121558     0.000435976730
      12       -0.000005793981     0.000003749657    -0.000015902377
      13        0.000170864769     0.000499284446    -0.000307812974
      14        0.000000497223    -0.000017085502     0.000002736955
      15       -0.000003946517    -0.000003433036    -0.000002443399

  **** Optimization is complete! (in 6 steps) ****
    Final optimized geometry and variables:
    Molecular point group: c1

    Geometry (in Angstrom), charge = 0, multiplicity = 1:

    H           -1.417834531406     0.994937842540     2.497196484834
    C           -1.031800596744     0.672788974679     1.553193664133
    C           -1.817490022088     0.730599652667     0.358179389925
    C            0.210958605896     0.193282844978     1.454640052571
    H           -2.822214637873     1.106729665093     0.405450100640
    C           -1.311146758771     0.320629455619    -0.809122121317
    H            0.857432443723     0.115938630408     2.305934980056
    N            0.747540166306    -0.234033007109     0.278669587670
    H           -1.868690009030     0.350438501350    -1.722570357595
    C            0.048261420657    -0.188301174843    -0.914668664356
    C            2.116747918855    -0.728767925655     0.266792113908
    O            0.550527987675    -0.545997105709    -1.945134513618
    H            2.266372351826    -1.310850844068    -0.623771479598
    H            2.821964160512     0.093326760692     0.266523284389
    H            2.286478459659    -1.343002706317     1.139692576894

  Mulliken Charges: (a.u.)
   Center  Symbol    Alpha    Beta     Spin     Total
       1     H     0.41396  0.41396  0.00000  0.17208
       2     C     3.10312  3.10312  0.00000 -0.20624
       3     C     3.06165  3.06165  0.00000 -0.12331
       4     C     3.03308  3.03308  0.00000 -0.06617
       5     H     0.41837  0.41837  0.00000  0.16325
       6     C     3.11702  3.11702  0.00000 -0.23403
       7     H     0.42127  0.42127  0.00000  0.15746
       8     N     3.51182  3.51182  0.00000 -0.02365
       9     H     0.40895  0.40895  0.00000  0.18210
      10     C     2.84527  2.84527  0.00000  0.30945
      11     C     3.10453  3.10453  0.00000 -0.20906
      12     O     4.23644  4.23644  0.00000 -0.47288
      13     H     0.42364  0.42364  0.00000  0.15271
      14     H     0.44717  0.44717  0.00000  0.10566
      15     H     0.45369  0.45369  0.00000  0.09262

   Total alpha = 29.00000, Total beta = 29.00000, Total charge = -0.00000
