                              Psi4 1.0.54 Driver

  ==> Input File <==

--------------------------------------------------------------------------
set {
	reference rhf
	basis cc-pvtz
}

set_num_threads( 4 )
memory 2 gb

molecule MOL {
0 1

H	 2.614283	 2.028610	 0.296620
O	 3.358864	 1.662087	 -0.142800
C	 3.565468	 0.338079	 0.273842
C	 2.533667	 -0.637565	 -0.272227
H	 4.548038	 0.064914	 -0.086598
H	 3.593945	 0.282242	 1.360360
C	 1.464752	 -1.050196	 0.737232
H	 2.062069	 -0.190490	 -1.142213
H	 3.061565	 -1.522664	 -0.619100
C	 0.466481	 -2.054847	 0.163675
H	 0.933762	 -0.167690	 1.078167
H	 1.944641	 -1.484468	 1.612675
C	 -0.583973	 -2.559757	 1.154568
H	 -0.033306	 -1.611363	 -0.694091
H	 1.017915	 -2.909986	 -0.217281
C	 -1.585654	 -1.507554	 1.627058
H	 -1.132084	 -3.372314	 0.685684
H	 -0.083565	 -2.993008	 2.017725
C	 -2.670939	 -2.081046	 2.534623
H	 -2.052547	 -1.043570	 0.760919
H	 -1.070238	 -0.712433	 2.157276
C	 -3.670563	 -1.032477	 3.011222
H	 -3.200601	 -2.869196	 2.006556
H	 -2.205710	 -2.552421	 3.396267
H	 -4.176613	 -0.564773	 2.173127
H	 -4.427581	 -1.472809	 3.650080
H	 -3.176776	 -0.248681	 3.576193

	symmetry c1
}
set optking {
	frozen_dihedral = ("
		8 4 3 2
	")
}

ee,wfn = optimize('scf', return_wfn=True)
oeprop( wfn, 'DIPOLE', 'QUADRUPOLE', 'MULLIKEN_CHARGES')
f=open( 'psi4out.xyz', 'w' )
f.write( "27  " )
f.write( str(ee) + "\n" )
f.write( MOL.save_string_xyz() )
f.close()
--------------------------------------------------------------------------

    Molecular point group: c1
  Charge       = 0
  Multiplicity = 1
  Basis Set: CC-PVTZ
  Basis Set:
  @DF-RHF Final Energy:  -388.42321259899938
    Total Energy =                       -388.4232125990000668
    Molecular point group: c1
  Basis Set: CC-PVTZ
  Basis Set:
  Basis Set: CC-PVTZ
  Basis Set:
  @DF-RHF Final Energy:  -388.42357266785376
    Total Energy =                       -388.4235726678539322
  Basis Set: CC-PVTZ
  Basis Set:
  Basis Set: CC-PVTZ
  Basis Set:
  @DF-RHF Final Energy:  -388.42368045576819
    Total Energy =                       -388.4236804557688174
  Basis Set: CC-PVTZ
  Basis Set:
  Basis Set: CC-PVTZ
  Basis Set:
  @DF-RHF Final Energy:  -388.42368400305634
    Total Energy =                       -388.4236840030565645
  Basis Set: CC-PVTZ
  Basis Set:
  Charge       = 0
  Multiplicity = 1
  Basis Set: CC-PVTZ
  Basis Set:

    Orbital Energies (a.u.)
    -----------------------

    Doubly Occupied:

       1A    -20.545210     2A    -11.264649     3A    -11.216911
       4A    -11.214510     5A    -11.214233     6A    -11.213379
       7A    -11.212857     8A    -11.212291     9A    -11.207753
      10A     -1.362335    11A     -1.096327    12A     -1.062557
      13A     -1.011719    14A     -0.947385    15A     -0.886983
      16A     -0.822774    17A     -0.804157    18A     -0.779168
      19A     -0.690991    20A     -0.655329    21A     -0.642913
      22A     -0.610776    23A     -0.602237    24A     -0.584683
      25A     -0.577282    26A     -0.553879    27A     -0.541310
      28A     -0.532054    29A     -0.507772    30A     -0.500371
      31A     -0.484963    32A     -0.474228    33A     -0.465769
      34A     -0.460777    35A     -0.452943    36A     -0.441770
      37A     -0.425413

  @DF-RHF Final Energy:  -388.42368403339134

   => Energetics <=

    Nuclear Repulsion Energy =            457.2560756827169257
    One-Electron Energy =               -1432.7982108903565859
    Two-Electron Energy =                 587.1184511742480936
    DFT Exchange-Correlation Energy =       0.0000000000000000
    Empirical Dispersion Energy =           0.0000000000000000
    PCM Polarization Energy =               0.0000000000000000
    EFP Energy =                            0.0000000000000000
    Total Energy =                       -388.4236840333915097
    Molecular point group: c1
  Basis Set: CC-PVTZ
  Basis Set:

  -Total Gradient:
     Atom            X                  Y                   Z
    ------   -----------------  -----------------  -----------------
       1        0.000196809692    -0.000060463262    -0.000095647265
       2        0.001875503979    -0.000395922538    -0.002619826355
       3       -0.003452531930     0.001020083827     0.004262380742
       4        0.004608995719    -0.002271285113    -0.004105466449
       5       -0.000024708471     0.000011887412     0.000027096555
       6        0.000012791943     0.000021021786    -0.000036104369
       7       -0.000024740114    -0.000044272451    -0.000039459161
       8       -0.003126885238     0.001679324109     0.002531617024
       9       -0.000036498203     0.000020151169     0.000044823188
      10       -0.000041277873     0.000037554801     0.000047802219
      11        0.000030611970    -0.000015623568    -0.000037378966
      12        0.000010835798     0.000024055815     0.000004627181
      13        0.000026183182    -0.000020318740     0.000017816591
      14        0.000000925897     0.000011721679     0.000012990113
      15       -0.000012673002    -0.000000280388    -0.000012797520
      16       -0.000018095396     0.000004978736    -0.000000243516
      17        0.000015245730    -0.000011378031     0.000005501443
      18        0.000006768477     0.000005649284     0.000006745218
      19       -0.000010063287    -0.000010515687    -0.000010974302
      20       -0.000010309723     0.000015629774    -0.000006071118
      21       -0.000034842832    -0.000031148800     0.000003031539
      22        0.000006570099     0.000010573473    -0.000002964404
      23        0.000001396462    -0.000000757756     0.000001434478
      24        0.000005321095    -0.000003372949    -0.000003688572
      25       -0.000003074454     0.000000687985     0.000002848795
      26        0.000001443785    -0.000000685571    -0.000000347828
      27       -0.000003703293     0.000002705006     0.000002254741

  **** Optimization is complete! (in 5 steps) ****
    Final optimized geometry and variables:
    Molecular point group: c1

    Geometry (in Angstrom), charge = 0, multiplicity = 1:

    H            2.143647139009     2.890096716182    -0.815912407162
    O            2.949245089249     2.573401107799    -1.181761714027
    C            3.209973903310     1.269861908273    -0.728380901793
    C            2.220063627348     0.230494896313    -1.266174713630
    H            4.207886486888     1.047197777022    -1.079388436769
    H            3.240130326217     1.242625292464     0.357844443592
    C            1.124516182729    -0.145830906167    -0.267037133818
    H            1.750907469967     0.650771969153    -2.149140129890
    H            2.751438575825    -0.664988367507    -1.570086763596
    C            0.104212100913    -1.125596947844    -0.842588503670
    H            0.621639409277     0.758500564898     0.065610727720
    H            1.580477610130    -0.582557853655     0.618539082094
    C           -0.954230067886    -1.615224055197     0.147494660116
    H           -0.388128996351    -0.669014416011    -1.697988411161
    H            0.637887947302    -1.989605475274    -1.229191964052
    C           -1.929981062087    -0.544461261028     0.632262458107
    H           -1.522198408565    -2.411269382320    -0.325935500369
    H           -0.460833669654    -2.066486888753     1.005287067469
    C           -3.026049709333    -1.100448834441     1.537640330907
    H           -2.388487826114    -0.062060913924    -0.228408500310
    H           -1.394451808573     0.233240820517     1.168304352244
    C           -3.998481795666    -0.032889172153     2.027993269363
    H           -3.576213005273    -1.870298294020     1.003650154485
    H           -2.569574544296    -1.591328072798     2.392944796228
    H           -4.496304027154     0.454778290062     1.196363144354
    H           -4.763544738336    -0.461012457910     2.665474856333
    H           -3.484020491387     0.733314400917     2.598581006475

  Mulliken Charges: (a.u.)
   Center  Symbol    Alpha    Beta     Spin     Total
       1     H     0.39467  0.39467  0.00000  0.21066
       2     O     4.20270  4.20270  0.00000 -0.40540
       3     C     2.97326  2.97326  0.00000  0.05348
       4     C     3.10345  3.10345  0.00000 -0.20689
       5     H     0.45120  0.45120  0.00000  0.09760
       6     H     0.47073  0.47073  0.00000  0.05855
       7     C     3.09395  3.09395  0.00000 -0.18789
       8     H     0.44807  0.44807  0.00000  0.10387
       9     H     0.45150  0.45150  0.00000  0.09701
      10     C     3.09996  3.09996  0.00000 -0.19993
      11     H     0.45914  0.45914  0.00000  0.08173
      12     H     0.45371  0.45371  0.00000  0.09258
      13     C     3.09780  3.09780  0.00000 -0.19561
      14     H     0.45221  0.45221  0.00000  0.09558
      15     H     0.44757  0.44757  0.00000  0.10486
      16     C     3.08800  3.08800  0.00000 -0.17601
      17     H     0.44798  0.44798  0.00000  0.10404
      18     H     0.45352  0.45352  0.00000  0.09295
      19     C     3.08404  3.08404  0.00000 -0.16808
      20     H     0.45496  0.45496  0.00000  0.09008
      21     H     0.45463  0.45463  0.00000  0.09074
      22     C     3.14974  3.14974  0.00000 -0.29949
      23     H     0.45371  0.45371  0.00000  0.09257
      24     H     0.45447  0.45447  0.00000  0.09105
      25     H     0.45512  0.45512  0.00000  0.08976
      26     H     0.44815  0.44815  0.00000  0.10370
      27     H     0.45574  0.45574  0.00000  0.08851

   Total alpha = 37.00000, Total beta = 37.00000, Total charge = -0.00000

*** Psi4 exiting successfully. Buy a developer a beer!
