                              Psi4 1.0.54 Driver

  ==> Input File <==

--------------------------------------------------------------------------
set {
	reference rhf
	basis cc-pvtz
}

set_num_threads( 4 )
memory 2 gb

molecule MOL {
0 1

H	 -2.644180	 -0.653737	 1.272255
C	 -2.092774	 -0.380414	 0.391915
O	 -0.808934	 -0.154049	 0.752536
F	 -2.163230	 -1.351640	 -0.507133
F	 -2.627232	 0.691260	 -0.169301
C	 0.085006	 0.250800	 -0.215074
C	 -0.389117	 -0.327428	 -1.546290
Cl	 1.724652	 -0.320017	 0.147233
H	 0.131827	 1.321261	 -0.312885
F	 0.413547	 0.034262	 -2.514759
F	 -1.584080	 0.142981	 -1.814792
F	 -0.457715	 -1.630130	 -1.523645

	symmetry c1
}
set optking {
	frozen_dihedral = ("
		9 6 3 2
	")
}

ee,wfn = optimize('scf', return_wfn=True)
oeprop( wfn, 'DIPOLE', 'QUADRUPOLE', 'MULLIKEN_CHARGES')
f=open( 'psi4out.xyz', 'w' )
f.write( "12  " )
f.write( str(ee) + "\n" )
f.write( MOL.save_string_xyz() )
f.close()
--------------------------------------------------------------------------

    Molecular point group: c1
  Charge       = 0
  Multiplicity = 1
  Basis Set: CC-PVTZ
  Basis Set:
  @DF-RHF Final Energy: -1146.53572048354749
    Total Energy =                      -1146.5357204835477205
    Molecular point group: c1
  Basis Set: CC-PVTZ
  Basis Set:
  Basis Set: CC-PVTZ
  Basis Set:
  @DF-RHF Final Energy: -1146.56842469856406
    Total Energy =                      -1146.5684246985624668
  Basis Set: CC-PVTZ
  Basis Set:
  Basis Set: CC-PVTZ
  Basis Set:
  @DF-RHF Final Energy: -1146.58880885855933
    Total Energy =                      -1146.5888088585588775
  Basis Set: CC-PVTZ
  Basis Set:
  Basis Set: CC-PVTZ
  Basis Set:
  @DF-RHF Final Energy: -1146.59874185059675
    Total Energy =                      -1146.5987418505956157
  Basis Set: CC-PVTZ
  Basis Set:
  @DF-RHF Final Energy: -1146.60373860949903
    Total Energy =                      -1146.6037386094999420
  @DF-RHF Final Energy: -1146.60566356707682
    Total Energy =                      -1146.6056635670770447
  @DF-RHF Final Energy: -1146.60640350242170
    Total Energy =                      -1146.6064035024216992
  Basis Set: CC-PVTZ
  Basis Set:
  @DF-RHF Final Energy: -1146.60658341961653
    Total Energy =                      -1146.6065834196165270
  Basis Set: CC-PVTZ
  Basis Set:
  Basis Set: CC-PVTZ
  Basis Set:
  @DF-RHF Final Energy: -1146.60660380684726
    Total Energy =                      -1146.6066038068468060
  Basis Set: CC-PVTZ
  Basis Set:
  Basis Set: CC-PVTZ
  Basis Set:
  @DF-RHF Final Energy: -1146.60660564244790
    Total Energy =                      -1146.6066056424469934
  Basis Set: CC-PVTZ
  Basis Set:
  Charge       = 0
  Multiplicity = 1
  Basis Set: CC-PVTZ
  Basis Set:

    Orbital Energies (a.u.)
    -----------------------

    Doubly Occupied:

       1A   -104.857102     2A    -26.355451     3A    -26.354640
       4A    -26.353969     5A    -26.338064     6A    -26.337618
       7A    -20.635603     8A    -11.523860     9A    -11.481907
      10A    -11.405021    11A    -10.582608    12A     -8.049410
      13A     -8.047392    14A     -8.047319    15A     -1.769959
      16A     -1.719227    17A     -1.664364    18A     -1.662356
      19A     -1.641157    20A     -1.477722    21A     -1.180450
      22A     -1.043187    23A     -0.999606    24A     -0.923112
      25A     -0.862471    26A     -0.859301    27A     -0.854938
      28A     -0.832815    29A     -0.819375    30A     -0.773463
      31A     -0.736088    32A     -0.734710    33A     -0.713462
      34A     -0.696248    35A     -0.684720    36A     -0.680201
      37A     -0.666111    38A     -0.663611    39A     -0.655479
      40A     -0.646264    41A     -0.588011    42A     -0.548391
      43A     -0.534683    44A     -0.479449    45A     -0.468867

  @DF-RHF Final Energy: -1146.60660656890627

   => Energetics <=

    Nuclear Repulsion Energy =            753.4916650018667497
    One-Electron Energy =               -3090.2970240131708124
    Two-Electron Energy =                1190.1987524423975628
    DFT Exchange-Correlation Energy =       0.0000000000000000
    Empirical Dispersion Energy =           0.0000000000000000
    PCM Polarization Energy =               0.0000000000000000
    EFP Energy =                            0.0000000000000000
    Total Energy =                      -1146.6066065689064999
    Molecular point group: c1
  Basis Set: CC-PVTZ
  Basis Set:

  -Total Gradient:
     Atom            X                  Y                   Z
    ------   -----------------  -----------------  -----------------
       1       -0.000005417976     0.000015335815    -0.000007983468
       2        0.000078948547    -0.004414531656    -0.001435994318
       3        0.000974902681     0.006804203381     0.002912154257
       4        0.000107864770    -0.000005687951    -0.000081270207
       5        0.000010467481    -0.000014392373     0.000121322026
       6       -0.005524185117    -0.001772243552    -0.003558345398
       7        0.000055559708    -0.000067718474    -0.000009330215
       8       -0.000003004010    -0.000050758748     0.000008761936
       9        0.004378926404    -0.000586150823     0.002122426285
      10       -0.000014265461     0.000039870108    -0.000033052710
      11        0.000065147883     0.000005379870    -0.000187030253
      12       -0.000124944867     0.000046694387     0.000148342083

  **** Optimization is complete! (in 11 steps) ****
    Final optimized geometry and variables:
    Molecular point group: c1

    Geometry (in Angstrom), charge = 0, multiplicity = 1:

    H           -1.349669872640    -0.364101523420     2.660878528121
    C           -1.234490511534    -0.085473224839     1.629305229843
    O            0.093667722669     0.035463145837     1.403205924124
    F           -1.789267364221    -1.001643709537     0.859534676996
    F           -1.866512401785     1.056704102761     1.403879058431
    C            0.701173167388     0.459920551433     0.230703238736
    C            0.052985296461     0.077748455873    -1.108448530128
    CL           2.340931096291    -0.218451535744     0.269127924481
    H            0.832595718348     1.528377411342     0.247340548127
    F            0.790508213684     0.561737601779    -2.078031132262
    F           -1.135718516043     0.618062511258    -1.217554047481
    F           -0.055812817359    -1.210014533549    -1.273545958486

  Mulliken Charges: (a.u.)
   Center  Symbol    Alpha    Beta     Spin     Total
       1     H     0.44578  0.44578  0.00000  0.10844
       2     C     2.74394  2.74394  0.00000  0.51212
       3     O     4.15911  4.15911  0.00000 -0.31823
       4     F     4.61432  4.61432  0.00000 -0.22865
       5     F     4.61893  4.61893  0.00000 -0.23787
       6     C     2.93382  2.93382  0.00000  0.13237
       7     C     2.68311  2.68311  0.00000  0.63378
       8    CL     8.57100  8.57100  0.00000 -0.14201
       9     H     0.42548  0.42548  0.00000  0.14904
      10     F     4.60170  4.60170  0.00000 -0.20340
      11     F     4.60330  4.60330  0.00000 -0.20660
      12     F     4.59950  4.59950  0.00000 -0.19900

   Total alpha = 45.00000, Total beta = 45.00000, Total charge = -0.00000

*** Psi4 exiting successfully. Buy a developer a beer!
