  ==> Input File <==

--------------------------------------------------------------------------
set {
	reference rhf
	basis 6-31G*
}

set_num_threads( 1 )
memory 2 gb

molecule MOL {
0 1

O	 3.225979	 0.970355	 -0.599647
C	 2.701189	 0.057885	 -0.047330
C	 1.245376	 -0.013843	 0.345420
O	 3.347903	 -1.046386	 0.304773
C	 0.669116	 -1.425322	 0.257284
H	 1.165249	 0.396495	 1.346615
H	 0.702379	 0.671405	 -0.300557
C	 -0.833130	 -1.498083	 0.551322
H	 1.209158	 -2.076321	 0.938219
H	 0.855355	 -1.813216	 -0.738345
C	 -1.226267	 -1.155313	 1.991136
H	 -1.171115	 -2.507783	 0.329976
H	 -1.368968	 -0.843767	 -0.134796
C	 -2.719594	 -1.348880	 2.262253
H	 -0.652862	 -1.777837	 2.676329
H	 -0.958982	 -0.125606	 2.217485
C	 -3.124877	 -1.004330	 3.696534
H	 -2.992772	 -2.381284	 2.050709
H	 -3.293781	 -0.734776	 1.570238
C	 -4.616985	 -1.203978	 3.960078
H	 -2.551320	 -1.616385	 4.389400
H	 -2.856571	 0.028572	 3.908440
H	 -4.873138	 -0.951665	 4.984446
H	 -4.910339	 -2.236159	 3.790545
H	 -5.217852	 -0.578953	 3.305420
C	 4.728119	 -1.109107	 -0.004993
H	 4.882018	 -1.033965	 -1.071845
H	 5.068212	 -2.067527	 0.355250
H	 5.265056	 -0.311663	 0.488280

	symmetry c1
}
set optking {
	frozen_dihedral = ("
		21 17 14 11,
		17 14 11 15,
		15 11 8 5,
		6 3 5 9,
		11 8 5 9,
		2 4 26 27,
		1 2 4 26
	")
}

ee = energy('scf')
oeprop('DIPOLE', 'QUADRUPOLE', 'MULLIKEN_CHARGES')
f=open( 'psi4out.xyz', 'w' )
f.write( "29  " )
f.write( str(ee) + "\n" )
f.write( MOL.save_string_xyz() )
f.close()
--------------------------------------------------------------------------

    Molecular point group: c1

    Geometry (in Angstrom), charge = 0, multiplicity = 1:

       Center              X                  Y                   Z               Mass
    ------------   -----------------  -----------------  -----------------  -----------------
           O          2.876696891293     1.765547859118    -1.749109910540    15.994914619560
           C          2.351906891293     0.853077859118    -1.196792910540    12.000000000000
           C          0.896093891293     0.781349859118    -0.804042910540    12.000000000000
           O          2.998620891293    -0.251193140882    -0.844689910540    15.994914619560
           C          0.319833891293    -0.630129140882    -0.892178910540    12.000000000000
           H          0.815966891293     1.191687859118     0.197152089460     1.007825032070
           H          0.353096891293     1.466597859118    -1.450019910540     1.007825032070
           C         -1.182412108707    -0.702890140882    -0.598140910540    12.000000000000
           H          0.859875891293    -1.281128140882    -0.211243910540     1.007825032070
           H          0.506072891293    -1.018023140882    -1.887807910540     1.007825032070
           C         -1.575549108707    -0.360120140882     0.841673089460    12.000000000000
           H         -1.520397108707    -1.712590140882    -0.819486910540     1.007825032070
           H         -1.718250108707    -0.048574140882    -1.284258910540     1.007825032070
           C         -3.068876108707    -0.553687140882     1.112790089460    12.000000000000
           H         -1.002144108707    -0.982644140882     1.526866089460     1.007825032070
           H         -1.308264108707     0.669586859118     1.068022089460     1.007825032070
           C         -3.474159108707    -0.209137140882     2.547071089460    12.000000000000
           H         -3.342054108707    -1.586091140882     0.901246089460     1.007825032070
           H         -3.643063108707     0.060416859118     0.420775089460     1.007825032070
           C         -4.966267108707    -0.408785140882     2.810615089460    12.000000000000
           H         -2.900602108707    -0.821192140882     3.239937089460     1.007825032070
           H         -3.205853108707     0.823764859118     2.758977089460     1.007825032070
           H         -5.222420108707    -0.156472140882     3.834983089460     1.007825032070
           H         -5.259621108707    -1.440966140882     2.641082089460     1.007825032070
           H         -5.567134108707     0.216239859118     2.155957089460     1.007825032070
           C          4.378836891293    -0.313914140882    -1.154455910540    12.000000000000
           H          4.532735891293    -0.238772140882    -2.221307910540     1.007825032070
           H          4.718929891293    -1.272334140882    -0.794212910540     1.007825032070
           H          4.915773891293     0.483529859118    -0.661182910540     1.007825032070

  Charge       = 0
  Multiplicity = 1
  Basis Set: 6-31G*
  Basis Set:

    Orbital Energies (a.u.)
    -----------------------

    Doubly Occupied:

       1A    -20.604455     2A    -20.543186     3A    -11.371726
       4A    -11.280934     5A    -11.234137     6A    -11.223370
       7A    -11.219611     8A    -11.217534     9A    -11.216720
      10A    -11.215594    11A    -11.209700    12A     -1.469344
      13A     -1.361587    14A     -1.100780    15A     -1.069265
      16A     -1.019644    17A     -0.973028    18A     -0.931542
      19A     -0.864953    20A     -0.799796    21A     -0.790992
      22A     -0.773037    23A     -0.698360    24A     -0.681665
      25A     -0.670895    26A     -0.652115    27A     -0.629097
      28A     -0.605940    29A     -0.589224    30A     -0.575819
      31A     -0.570946    32A     -0.542621    33A     -0.541786
      34A     -0.532321    35A     -0.521511    36A     -0.514521
      37A     -0.499848    38A     -0.479274    39A     -0.471772
      40A     -0.463380    41A     -0.462570    42A     -0.455524
      43A     -0.445311    44A     -0.426129

  @DF-RHF Final Energy:  -501.04141610923318

   => Energetics <=

    Nuclear Repulsion Energy =            614.4358629562558463
    One-Electron Energy =               -1899.9112472460981280
    Two-Electron Energy =                 784.4339681806077351
    DFT Exchange-Correlation Energy =       0.0000000000000000
    Empirical Dispersion Energy =           0.0000000000000000
    PCM Polarization Energy =               0.0000000000000000
    EFP Energy =                            0.0000000000000000
    Total Energy =                       -501.0414161092344330

  Mulliken Charges: (a.u.)
   Center  Symbol    Alpha    Beta     Spin     Total
       1     O     4.28791  4.28791  0.00000 -0.57582
       2     C     2.60694  2.60694  0.00000  0.78612
       3     C     3.20874  3.20874  0.00000 -0.41748
       4     O     4.30292  4.30292  0.00000 -0.60584
       5     C     3.15784  3.15784  0.00000 -0.31567
       6     H     0.39903  0.39903  0.00000  0.20194
       7     H     0.39926  0.39926  0.00000  0.20147
       8     C     3.15595  3.15595  0.00000 -0.31190
       9     H     0.40795  0.40795  0.00000  0.18410
      10     H     0.41587  0.41587  0.00000  0.16826
      11     C     3.15513  3.15513  0.00000 -0.31026
      12     H     0.41892  0.41892  0.00000  0.16216
      13     H     0.42246  0.42246  0.00000  0.15507
      14     C     3.15041  3.15041  0.00000 -0.30082
      15     H     0.42274  0.42274  0.00000  0.15451
      16     H     0.42297  0.42297  0.00000  0.15405
      17     C     3.15157  3.15157  0.00000 -0.30314
      18     H     0.42356  0.42356  0.00000  0.15288
      19     H     0.42342  0.42342  0.00000  0.15316
      20     C     3.23941  3.23941  0.00000 -0.47881
      21     H     0.42296  0.42296  0.00000  0.15408
      22     H     0.42301  0.42301  0.00000  0.15398
      23     H     0.41905  0.41905  0.00000  0.16190
      24     H     0.42169  0.42169  0.00000  0.15663
      25     H     0.42155  0.42155  0.00000  0.15689
      26     C     3.09219  3.09219  0.00000 -0.18438
      27     H     0.40870  0.40870  0.00000  0.18260
      28     H     0.40895  0.40895  0.00000  0.18210
      29     H     0.40890  0.40890  0.00000  0.18221

   Total alpha = 44.00000, Total beta = 44.00000, Total charge = -0.00000
