  ==> Input File <==

--------------------------------------------------------------------------
set {
	reference rhf
	basis 6-31G*
}

set_num_threads( 4 )
memory 2 gb

molecule MOL {
0 1

H	 -2.521385	 1.345167	 2.323776
C	 -2.417090	 0.454422	 1.735255
C	 -1.342087	 0.276392	 1.002675
H	 -3.204990	 -0.274512	 1.763161
O	 -1.180634	 -0.819263	 0.215062
H	 -0.538630	 0.990773	 0.966481
C	 0.051604	 -1.018856	 -0.387932
C	 1.043764	 0.054862	 -0.001873
H	 -0.017620	 -1.041351	 -1.469781
H	 0.437898	 -1.966374	 -0.042284
F	 2.212596	 -0.199467	 -0.571921
F	 0.652529	 1.252447	 -0.405055
F	 1.230877	 0.110694	 1.300533

	symmetry c1
}
set optking {
	frozen_dihedral = ("
		3 5 7 9
	")
}

ee = optimize('scf')
oeprop('DIPOLE', 'QUADRUPOLE', 'MULLIKEN_CHARGES')
f=open( 'psi4out.xyz', 'w' )
f.write( "13  " )
f.write( str(ee) + "\n" )
f.write( MOL.save_string_xyz() )
f.close()
--------------------------------------------------------------------------

    Molecular point group: c1
  Charge       = 0
  Multiplicity = 1
  Basis Set: 6-31G*
  Basis Set:
  @DF-RHF Final Energy:  -527.50879760502369
    Total Energy =                       -527.5087976050236875
    Molecular point group: c1
  Basis Set: 6-31G*
  Basis Set:
  Basis Set: 6-31G*
  Basis Set:
  @DF-RHF Final Energy:  -527.52024999783521
    Total Energy =                       -527.5202499978350943
  Basis Set: 6-31G*
  Basis Set:
  Basis Set: 6-31G*
  Basis Set:
  @DF-RHF Final Energy:  -527.52458818378545
    Total Energy =                       -527.5245881837854540
  Basis Set: 6-31G*
  Basis Set:
  Basis Set: 6-31G*
  Basis Set:
  @DF-RHF Final Energy:  -527.52563659708369
    Total Energy =                       -527.5256365970836896
  Basis Set: 6-31G*
  Basis Set:
  @DF-RHF Final Energy:  -527.52591744080860
    Total Energy =                       -527.5259174408087119
  @DF-RHF Final Energy:  -527.52597255469277
    Total Energy =                       -527.5259725546926575
  Basis Set: 6-31G*
  Basis Set:
  @DF-RHF Final Energy:  -527.52599703010105
    Total Energy =                       -527.5259970301010526
  Basis Set: 6-31G*
  Basis Set:
  Basis Set: 6-31G*
  Basis Set:
  @DF-RHF Final Energy:  -527.52600375888233
    Total Energy =                       -527.5260037588823252
  Basis Set: 6-31G*
  Basis Set:
  Basis Set: 6-31G*
  Basis Set:
  @DF-RHF Final Energy:  -527.52600818476481
    Total Energy =                       -527.5260081847646916
  Basis Set: 6-31G*
  Basis Set:
  Charge       = 0
  Multiplicity = 1
  Basis Set: 6-31G*
  Basis Set:

    Orbital Energies (a.u.)
    -----------------------

    Doubly Occupied:

       1A    -26.352166     2A    -26.351691     3A    -26.350763
       4A    -20.600641     5A    -11.513708     6A    -11.319399
       7A    -11.295258     8A    -11.213582     9A     -1.750696
      10A     -1.647815    11A     -1.647403    12A     -1.426917
      13A     -1.084621    14A     -1.019595    15A     -0.931501
      16A     -0.845128    17A     -0.839847    18A     -0.835553
      19A     -0.761542    20A     -0.724978    21A     -0.721616
      22A     -0.700469    23A     -0.683052    24A     -0.663944
      25A     -0.656878    26A     -0.651990    27A     -0.643645
      28A     -0.591423    29A     -0.558065    30A     -0.525481
      31A     -0.489476    32A     -0.350041

  @DF-RHF Final Energy:  -527.52600886769937

   => Energetics <=

    Nuclear Repulsion Energy =            416.2121851184003276
    One-Electron Energy =               -1555.9786189158692196
    Two-Electron Energy =                 612.2404249297693468
    DFT Exchange-Correlation Energy =       0.0000000000000000
    Empirical Dispersion Energy =           0.0000000000000000
    PCM Polarization Energy =               0.0000000000000000
    EFP Energy =                            0.0000000000000000
    Total Energy =                       -527.5260088676994883
    Molecular point group: c1
  Basis Set: 6-31G*
  Basis Set:

  -Total Gradient:
     Atom            X                  Y                   Z
    ------   -----------------  -----------------  -----------------
       1       -0.000009935484    -0.000001845435     0.000004079675
       2        0.000007898968    -0.000002987681    -0.000007003941
       3       -0.000016964013    -0.000048069433     0.000121212797
       4        0.000001864564     0.000002703312    -0.000001644212
       5       -0.000066720237     0.000112476881    -0.000125278105
       6        0.000002717839    -0.000012465365    -0.000011587114
       7        0.000092794191     0.000086758951     0.000006023158
       8        0.000006718819    -0.000092036937     0.000037444215
       9       -0.000032674249    -0.000111707289     0.000012489395
      10       -0.000004589234     0.000019001598    -0.000002815118
      11        0.000039902065     0.000020749965    -0.000028775163
      12       -0.000012852289    -0.000020370145     0.000022640351
      13       -0.000008160950     0.000047791582    -0.000026785938

  **** Optimization is complete! (in 10 steps) ****
    Final optimized geometry and variables:
    Molecular point group: c1

    Geometry (in Angstrom), charge = 0, multiplicity = 1:

    H           -2.954920349400     1.228049622925     2.086707539131
    C           -2.708321485289     0.354772575546     1.514126547398
    C           -1.740837105832     0.405683750843     0.627254747622
    H           -3.276932878819    -0.541833960713     1.675587914320
    O           -1.461813501399    -0.662745092526    -0.167268712711
    H           -1.169976800247     1.295407933123     0.450054026678
    C           -0.202177511041    -0.946806473395    -0.691573346333
    C            0.945311602409    -0.029617427784    -0.325970920790
    H           -0.264099982746    -0.949827454488    -1.771884365760
    H            0.085736552803    -1.936179471302    -0.361803898130
    F            2.052152916474    -0.519697929905    -0.859045569347
    F            0.790533929220     1.198480859891    -0.797323401559
    F            1.130983149982     0.063575365062     0.977073863249

  Mulliken Charges: (a.u.)
   Center  Symbol    Alpha    Beta     Spin     Total
       1     H     0.40776  0.40776  0.00000  0.18448
       2     C     3.23121  3.23121  0.00000 -0.46242
       3     C     2.90708  2.90708  0.00000  0.18583
       4     H     0.40385  0.40385  0.00000  0.19230
       5     O     4.31727  4.31727  0.00000 -0.63454
       6     H     0.39609  0.39609  0.00000  0.20781
       7     C     3.02036  3.02036  0.00000 -0.04072
       8     C     2.48111  2.48111  0.00000  1.03779
       9     H     0.40091  0.40091  0.00000  0.19818
      10     H     0.39927  0.39927  0.00000  0.20147
      11     F     4.68010  4.68010  0.00000 -0.36021
      12     F     4.67942  4.67942  0.00000 -0.35884
      13     F     4.67556  4.67556  0.00000 -0.35112

   Total alpha = 32.00000, Total beta = 32.00000, Total charge =  0.00000
