                              Psi4 1.0.54 Driver

  ==> Input File <==

--------------------------------------------------------------------------
set {
	reference rhf
	basis cc-pvtz
}

set_num_threads( 4 )
memory 2 gb

molecule MOL {
0 1

O	 0.074770	 1.259872	 0.000487
C	 0.029490	 0.077183	 0.000078
C	 -1.232113	 -0.748027	 0.000015
O	 1.106773	 -0.690081	 -0.000204
C	 -2.501422	 0.088592	 -0.000052
H	 -1.188777	 -1.400384	 -0.865133
H	 -1.188857	 -1.400312	 0.865225
H	 -2.548170	 0.725504	 -0.873205
H	 -3.371613	 -0.556398	 -0.000040
H	 -2.548215	 0.725571	 0.873047
C	 2.266203	 -0.180947	 0.627606
H	 2.588906	 0.732004	 0.149466
H	 3.021001	 -0.943187	 0.522275
H	 2.078410	 0.015948	 1.672696

	symmetry c1
}
set optking {
	frozen_dihedral = ("
		11 4 2 3
	")
}

ee,wfn = optimize('scf', return_wfn=True)
oeprop( wfn, 'DIPOLE', 'QUADRUPOLE', 'MULLIKEN_CHARGES')
f=open( 'psi4out.xyz', 'w' )
f.write( "14  " )
f.write( str(ee) + "\n" )
f.write( MOL.save_string_xyz() )
f.close()
--------------------------------------------------------------------------

    Molecular point group: c1
  Charge       = 0
  Multiplicity = 1
  Basis Set: CC-PVTZ
  Basis Set:
  @DF-RHF Final Energy:  -305.98267843043510
    Total Energy =                       -305.9826784304354419
    Molecular point group: c1
  Basis Set: CC-PVTZ
  Basis Set:
  Basis Set: CC-PVTZ
  Basis Set:
  @DF-RHF Final Energy:  -305.97843298738309
    Total Energy =                       -305.9784329873831439
  Basis Set: CC-PVTZ
  Basis Set:
  Basis Set: CC-PVTZ
  Basis Set:
  @DF-RHF Final Energy:  -305.98296005152440
    Total Energy =                       -305.9829600515243442
  Basis Set: CC-PVTZ
  Basis Set:
  Basis Set: CC-PVTZ
  Basis Set:
  @DF-RHF Final Energy:  -305.98315514909592
    Total Energy =                       -305.9831551490962056
  Basis Set: CC-PVTZ
  Basis Set:
  @DF-RHF Final Energy:  -305.98329326305043
    Total Energy =                       -305.9832932630504843
  @DF-RHF Final Energy:  -305.98331611580670
    Total Energy =                       -305.9833161158067014
  Basis Set: CC-PVTZ
  Basis Set:
  @DF-RHF Final Energy:  -305.98185425238921
    Total Energy =                       -305.9818542523891551
  Basis Set: CC-PVTZ
  Basis Set:
  Basis Set: CC-PVTZ
  Basis Set:
  @DF-RHF Final Energy:  -305.98328767375551
    Total Energy =                       -305.9832876737555694
  Basis Set: CC-PVTZ
  Basis Set:
  Basis Set: CC-PVTZ
  Basis Set:
  @DF-RHF Final Energy:  -305.98331962150866
    Total Energy =                       -305.9833196215085422
  Basis Set: CC-PVTZ
  Basis Set:
  Charge       = 0
  Multiplicity = 1
  Basis Set: CC-PVTZ
  Basis Set:

    Orbital Energies (a.u.)
    -----------------------

    Doubly Occupied:

       1A    -20.593134     2A    -20.536836     3A    -11.366036
       4A    -11.280899     5A    -11.238157     6A    -11.215458
       7A     -1.470557     8A     -1.367179     9A     -1.065191
      10A     -0.980243    11A     -0.881638    12A     -0.770137
      13A     -0.702458    14A     -0.683474    15A     -0.675829
      16A     -0.621754    17A     -0.605661    18A     -0.551553
      19A     -0.540112    20A     -0.521726    21A     -0.513464
      22A     -0.497888    23A     -0.460600    24A     -0.441437

  @DF-RHF Final Energy:  -305.98331973007089

   => Energetics <=

    Nuclear Repulsion Energy =            247.3668605644661511
    One-Electron Energy =                -907.5375190962495253
    Two-Electron Energy =                 354.1873388017124853
    DFT Exchange-Correlation Energy =       0.0000000000000000
    Empirical Dispersion Energy =           0.0000000000000000
    PCM Polarization Energy =               0.0000000000000000
    EFP Energy =                            0.0000000000000000
    Total Energy =                       -305.9833197300708889
    Molecular point group: c1
  Basis Set: CC-PVTZ
  Basis Set:

  -Total Gradient:
     Atom            X                  Y                   Z
    ------   -----------------  -----------------  -----------------
       1        0.000035394005    -0.000036485527    -0.000014090996
       2       -0.000844066216     0.000669092063    -0.005789643459
       3       -0.000147958282    -0.001972904568     0.005636462502
       4        0.002992145135     0.005864483251    -0.004299481941
       5        0.000002843191    -0.000009946040     0.000000315770
       6       -0.000000093276    -0.000002762892     0.000002239201
       7       -0.000002942821    -0.000004011040    -0.000001342055
       8       -0.000000939516     0.000000532265     0.000000592392
       9       -0.000001851127     0.000001667955    -0.000000489730
      10        0.000001198227    -0.000000377319    -0.000000809056
      11       -0.002042347009    -0.004527753123     0.004465505918
      12        0.000000751632     0.000007710303    -0.000000561255
      13        0.000011911512     0.000005492161     0.000005139316
      14       -0.000004045453     0.000005262507    -0.000003836605

  **** Optimization is complete! (in 10 steps) ****
    Final optimized geometry and variables:
    Molecular point group: c1

    Geometry (in Angstrom), charge = 0, multiplicity = 1:

    O            0.061127689879     1.215134574208     0.418342808910
    C            0.043899271248     0.127048974407    -0.043843719263
    C           -1.200658748488    -0.663203665282    -0.354126767379
    O            1.142795465629    -0.585011359667    -0.264000159830
    C           -2.469979616884     0.173384219456    -0.359626742483
    H           -1.054232505295    -1.176162531842    -1.297072038109
    H           -1.247564167283    -1.440125916584     0.402962509723
    H           -2.427505115777     0.939827598038    -1.122969363657
    H           -3.329795100921    -0.454899172114    -0.557429071397
    H           -2.615192494597     0.665306976125     0.592076214460
    C            2.273007033684    -0.294679161540     0.534109522896
    H            2.656420029024     0.691942743181     0.322468284213
    H            3.012123899370    -1.039865948476     0.288783427923
    H            2.017267039346    -0.358396284441     1.582680023218

  Mulliken Charges: (a.u.)
   Center  Symbol    Alpha    Beta     Spin     Total
       1     O     4.19160  4.19160  0.00000 -0.38321
       2     C     2.80263  2.80263  0.00000  0.39474
       3     C     3.09251  3.09251  0.00000 -0.18502
       4     O     4.15171  4.15171  0.00000 -0.30341
       5     C     3.14105  3.14105  0.00000 -0.28210
       6     H     0.43897  0.43897  0.00000  0.12207
       7     H     0.44513  0.44513  0.00000  0.10975
       8     H     0.45031  0.45031  0.00000  0.09939
       9     H     0.45022  0.45022  0.00000  0.09957
      10     H     0.44566  0.44566  0.00000  0.10868
      11     C     3.03527  3.03527  0.00000 -0.07055
      12     H     0.44925  0.44925  0.00000  0.10150
      13     H     0.44555  0.44555  0.00000  0.10890
      14     H     0.46015  0.46015  0.00000  0.07969

   Total alpha = 24.00000, Total beta = 24.00000, Total charge = -0.00000

*** Psi4 exiting successfully. Buy a developer a beer!
