  ==> Input File <==

--------------------------------------------------------------------------
set {
	reference rhf
	basis 6-31G*
}

set_num_threads( 4 )
memory 2 gb

molecule MOL {
0 1

O	 -0.282018	 0.342890	 -0.889868
C	 0.486307	 0.169203	 0.000779
C	 1.608116	 -0.841643	 0.000302
O	 0.455825	 0.854108	 1.135497
C	 2.990107	 -0.200498	 -0.000684
H	 1.468623	 -1.481519	 -0.865924
H	 1.469683	 -1.481289	 0.866878
H	 3.129736	 0.423364	 -0.875135
H	 3.757882	 -0.966877	 -0.001197
H	 3.130964	 0.423383	 0.873533
C	 -0.555466	 1.846259	 1.278073
C	 -0.381975	 2.478248	 2.642918
H	 -1.525117	 1.378694	 1.174423
H	 -0.450437	 2.573410	 0.484465
H	 -0.484584	 1.736105	 3.426405
H	 -1.136095	 3.243820	 2.794084
H	 0.595940	 2.937450	 2.732758

	symmetry c1
}
set optking {
	frozen_dihedral = ("
		4 2 3 6
	")
}

ee = optimize('scf')
oeprop('DIPOLE', 'QUADRUPOLE', 'MULLIKEN_CHARGES')
f=open( 'psi4out.xyz', 'w' )
f.write( "17  " )
f.write( str(ee) + "\n" )
f.write( MOL.save_string_xyz() )
f.close()
--------------------------------------------------------------------------

    Molecular point group: c1
  Charge       = 0
  Multiplicity = 1
  Basis Set: 6-31G*
  Basis Set:
  @DF-RHF Final Energy:  -344.91012698901847
    Total Energy =                       -344.9101269890182948
    Molecular point group: c1
  Basis Set: 6-31G*
  Basis Set:
  Basis Set: 6-31G*
  Basis Set:
  @DF-RHF Final Energy:  -344.91043575851580
    Total Energy =                       -344.9104357585155185
  Basis Set: 6-31G*
  Basis Set:
  Basis Set: 6-31G*
  Basis Set:
  @DF-RHF Final Energy:  -344.91046002256724
    Total Energy =                       -344.9104600225672357
  Basis Set: 6-31G*
  Basis Set:
  Charge       = 0
  Multiplicity = 1
  Basis Set: 6-31G*
  Basis Set:

    Orbital Energies (a.u.)
    -----------------------

    Doubly Occupied:

       1A    -20.601439     2A    -20.542776     3A    -11.370209
       4A    -11.284800     5A    -11.236395     6A    -11.226001
       7A    -11.222553     8A     -1.466998     9A     -1.360586
      10A     -1.073060    11A     -1.030646    12A     -0.907487
      13A     -0.856120    14A     -0.777478    15A     -0.692979
      16A     -0.680004    17A     -0.669580    18A     -0.618839
      19A     -0.595106    20A     -0.573184    21A     -0.553339
      22A     -0.541788    23A     -0.526078    24A     -0.507655
      25A     -0.505099    26A     -0.496638    27A     -0.451562
      28A     -0.431259

  @DF-RHF Final Energy:  -344.91046067253302

   => Energetics <=

    Nuclear Repulsion Energy =            316.9617896239428205
    One-Electron Energy =               -1098.1451837316960791
    Two-Electron Energy =                 436.2729334352201249
    DFT Exchange-Correlation Energy =       0.0000000000000000
    Empirical Dispersion Energy =           0.0000000000000000
    PCM Polarization Energy =               0.0000000000000000
    EFP Energy =                            0.0000000000000000
    Total Energy =                       -344.9104606725330768
    Molecular point group: c1
  Basis Set: 6-31G*
  Basis Set:

  -Total Gradient:
     Atom            X                  Y                   Z
    ------   -----------------  -----------------  -----------------
       1        0.000101954830     0.000107775525    -0.000011885312
       2       -0.000280088216    -0.000288199348     0.000123042776
       3        0.000193303012     0.000155371415    -0.000125497177
       4       -0.000065256231    -0.000026285861     0.000043151741
       5       -0.000014055772     0.000025478814    -0.000034729540
       6       -0.000061648725    -0.000057556305     0.000111881988
       7       -0.000007946450     0.000042142764    -0.000046117685
       8        0.000037413530     0.000004490068     0.000037474711
       9        0.000040933204    -0.000055449713    -0.000009759130
      10       -0.000036912678    -0.000009674489    -0.000028436806
      11        0.000308531181     0.000249671936    -0.000167570297
      12       -0.000087176097    -0.000054615183     0.000040314593
      13       -0.000042500188    -0.000082620619    -0.000003812614
      14       -0.000074476600    -0.000007665878     0.000063862090
      15        0.000005888287     0.000012718848     0.000029210799
      16       -0.000009461409     0.000000350599     0.000017274776
      17       -0.000008501675    -0.000015932572    -0.000038404908

  **** Optimization is complete! (in 4 steps) ****
    Final optimized geometry and variables:
    Molecular point group: c1

    Geometry (in Angstrom), charge = 0, multiplicity = 1:

    O           -0.879177180653    -0.333435288294    -1.494065822400
    C           -0.126331711492    -0.519675215211    -0.592468747497
    C            0.989924982615    -1.535344424244    -0.595878310468
    O           -0.165347203678     0.165568147414     0.542561316578
    C            2.371691276245    -0.871883671677    -0.624431747067
    H            0.848101145758    -2.166057059439    -1.462981622079
    H            0.896373473897    -2.148004021843     0.294460506141
    H            2.486171871930    -0.248567153637    -1.505131325877
    H            3.147625142352    -1.628949502957    -0.649040865877
    H            2.526261741311    -0.255869629314     0.252952396720
    C           -1.158661711647     1.178096701515     0.665828654165
    C           -1.006548271071     1.799291619578     2.038159663074
    H           -2.134604013123     0.730774158768     0.535615084436
    H           -1.019420833198     1.906816972421    -0.120956709780
    H           -1.143074998496     1.055303864497     2.814745372819
    H           -1.748914165775     2.578885281460     2.175235168875
    H           -0.022353912711     2.238724069289     2.154690008699

  Mulliken Charges: (a.u.)
   Center  Symbol    Alpha    Beta     Spin     Total
       1     O     4.28543  4.28543  0.00000 -0.57085
       2     C     2.61383  2.61383  0.00000  0.77233
       3     C     3.19522  3.19522  0.00000 -0.39044
       4     O     4.30974  4.30974  0.00000 -0.61948
       5     C     3.25034  3.25034  0.00000 -0.50068
       6     H     0.39859  0.39859  0.00000  0.20281
       7     H     0.40421  0.40421  0.00000  0.19157
       8     H     0.41161  0.41161  0.00000  0.17677
       9     H     0.41225  0.41225  0.00000  0.17551
      10     H     0.40758  0.40758  0.00000  0.18484
      11     C     3.00215  3.00215  0.00000 -0.00430
      12     C     3.24861  3.24861  0.00000 -0.49721
      13     H     0.40974  0.40974  0.00000  0.18052
      14     H     0.41045  0.41045  0.00000  0.17910
      15     H     0.41182  0.41182  0.00000  0.17636
      16     H     0.41617  0.41617  0.00000  0.16765
      17     H     0.41226  0.41226  0.00000  0.17548

   Total alpha = 28.00000, Total beta = 28.00000, Total charge = -0.00000
