  ==> Input File <==

--------------------------------------------------------------------------
set {
	reference rhf
	basis 6-31G*
}

set_num_threads( 4 )
memory 2 gb

molecule MOL {
0 1

H	 0.995736	 -0.112377	 -4.266171
O	 1.937824	 -0.081919	 -4.184840
C	 2.322248	 1.127608	 -3.582083
C	 2.004025	 1.184476	 -2.092040
H	 3.391761	 1.203550	 -3.730570
H	 1.863955	 1.971914	 -4.095791
C	 0.507979	 1.132090	 -1.772710
H	 2.511496	 0.359215	 -1.599309
H	 2.427749	 2.103133	 -1.689680
C	 0.219067	 1.245684	 -0.273228
H	 0.094141	 0.202116	 -2.152514
H	 -0.002682	 1.939966	 -2.297021
C	 -1.268691	 1.284465	 0.094756
H	 0.696998	 0.417660	 0.247161
H	 0.690278	 2.151556	 0.102347
C	 -2.037799	 -0.007733	 -0.193645
H	 -1.352420	 1.508119	 1.156257
H	 -1.746401	 2.112617	 -0.426583
C	 -3.489788	 0.042957	 0.286558
H	 -1.530268	 -0.842596	 0.287528
H	 -2.027980	 -0.219032	 -1.260209
C	 -4.216917	 1.317354	 -0.141063
H	 -4.025645	 -0.823308	 -0.095450
H	 -3.513059	 -0.038752	 1.371301
H	 -4.239342	 1.411634	 -1.223113
H	 -5.243387	 1.322503	 0.212445
H	 -3.726170	 2.201406	 0.256408

	symmetry c1
}
set optking {
	frozen_dihedral = ("
		20 16 19 22
	")
}

ee = optimize('scf')
oeprop('DIPOLE', 'QUADRUPOLE', 'MULLIKEN_CHARGES')
f=open( 'psi4out.xyz', 'w' )
f.write( "27  " )
f.write( str(ee) + "\n" )
f.write( MOL.save_string_xyz() )
f.close()
--------------------------------------------------------------------------

    Molecular point group: c1
  Charge       = 0
  Multiplicity = 1
  Basis Set: 6-31G*
  Basis Set:
  @DF-RHF Final Energy:  -388.27772520047898
    Total Energy =                       -388.2777252004786988
    Molecular point group: c1
  Basis Set: 6-31G*
  Basis Set:
  Basis Set: 6-31G*
  Basis Set:
  @DF-RHF Final Energy:  -388.27832962038241
    Total Energy =                       -388.2783296203826922
  Basis Set: 6-31G*
  Basis Set:
  Basis Set: 6-31G*
  Basis Set:
  @DF-RHF Final Energy:  -388.27908108053168
    Total Energy =                       -388.2790810805316823
  Basis Set: 6-31G*
  Basis Set:
  Basis Set: 6-31G*
  Basis Set:
  @DF-RHF Final Energy:  -388.27913246735466
    Total Energy =                       -388.2791324673551117
  Basis Set: 6-31G*
  Basis Set:
  Basis Set: 6-31G*
  Basis Set:
  @DF-RHF Final Energy:  -388.27912804869294
    Total Energy =                       -388.2791280486935648
  Basis Set: 6-31G*
  Basis Set:
  Basis Set: 6-31G*
  Basis Set:
  @DF-RHF Final Energy:  -388.27914403366543
    Total Energy =                       -388.2791440336657161
  Basis Set: 6-31G*
  Basis Set:
  Charge       = 0
  Multiplicity = 1
  Basis Set: 6-31G*
  Basis Set:

    Orbital Energies (a.u.)
    -----------------------

    Doubly Occupied:

       1A    -20.552255     2A    -11.267013     3A    -11.219763
       4A    -11.217205     5A    -11.216606     6A    -11.215344
       7A    -11.215179     8A    -11.214713     9A    -11.209261
      10A     -1.359012    11A     -1.095291    12A     -1.060735
      13A     -1.009236    14A     -0.946241    15A     -0.894039
      16A     -0.829045    17A     -0.799370    18A     -0.766227
      19A     -0.693544    20A     -0.651812    21A     -0.632155
      22A     -0.614452    23A     -0.606433    24A     -0.590070
      25A     -0.580196    26A     -0.555092    27A     -0.537223
      28A     -0.524440    29A     -0.513664    30A     -0.496335
      31A     -0.482608    32A     -0.475970    33A     -0.469149
      34A     -0.456353    35A     -0.448675    36A     -0.442235
      37A     -0.422980

  @DF-RHF Final Energy:  -388.27914457825102

   => Energetics <=

    Nuclear Repulsion Energy =            463.3614713627317769
    One-Electron Energy =               -1444.7213933009452376
    Two-Electron Energy =                 593.0807773599633492
    DFT Exchange-Correlation Energy =       0.0000000000000000
    Empirical Dispersion Energy =           0.0000000000000000
    PCM Polarization Energy =               0.0000000000000000
    EFP Energy =                            0.0000000000000000
    Total Energy =                       -388.2791445782501114
    Molecular point group: c1
  Basis Set: 6-31G*
  Basis Set:

  -Total Gradient:
     Atom            X                  Y                   Z
    ------   -----------------  -----------------  -----------------
       1        0.000011566610     0.000000095276    -0.000007556526
       2        0.000008287761    -0.000001240905    -0.000002591590
       3       -0.000021069931     0.000019814221    -0.000010221493
       4        0.000001175265     0.000010195653     0.000016999315
       5       -0.000003734263    -0.000001290256     0.000000774828
       6        0.000001775589     0.000000844549    -0.000006816867
       7        0.000005356622    -0.000021344710     0.000006543171
       8       -0.000006316053    -0.000006876574    -0.000008323402
       9        0.000004376512    -0.000004239911     0.000015350073
      10       -0.000000801897     0.000031108340    -0.000030638157
      11        0.000000733867    -0.000010505358     0.000016317912
      12       -0.000003477503    -0.000020892167     0.000006050823
      13        0.000002072739     0.000017494049     0.000018905114
      14       -0.000017823496    -0.000005764529    -0.000015075226
      15        0.000015314161     0.000001446329     0.000006969709
      16       -0.000951250273    -0.002131422289    -0.002479591990
      17       -0.000001386017     0.000000804528     0.000007558787
      18        0.000004040530    -0.000006164751    -0.000004671065
      19       -0.001051151687    -0.001219310124    -0.002733232165
      20        0.001077229733     0.002175529912     0.002843755193
      21       -0.000009085139    -0.000016603321     0.000010946913
      22        0.000924127559     0.001204440769     0.002353805775
      23        0.000001141469    -0.000008059018    -0.000006822829
      24        0.000005652500     0.000000852146    -0.000008038831
      25        0.000005011769    -0.000006897674     0.000003231341
      26       -0.000000357545    -0.000009689962     0.000001378683
      27       -0.000001408884     0.000007675778     0.000004992513

  **** Optimization is complete! (in 7 steps) ****
    Final optimized geometry and variables:
    Molecular point group: c1

    Geometry (in Angstrom), charge = 0, multiplicity = 1:

    H            1.467743428954    -0.933477081130    -2.893296886718
    O            2.408595290397    -0.918835259551    -2.794999833695
    C            2.803050756858     0.288491246347    -2.194394069282
    C            2.458522644124     0.362654761784    -0.710962269651
    H            3.876295592807     0.344186847799    -2.323531730541
    H            2.369538797460     1.136692177662    -2.722987789317
    C            0.956185754452     0.340005444862    -0.419065572657
    H            2.941656739103    -0.467808360737    -0.202751535824
    H            2.891448640914     1.276569707533    -0.307627069828
    C            0.641645458954     0.471754108787     1.073769153210
    H            0.532334402662    -0.585748042131    -0.798300714668
    H            0.469979278109     1.152232816678    -0.959693135495
    C           -0.852178419254     0.548579064447     1.410841472586
    H            1.089832467358    -0.363650430209     1.608616971542
    H            1.126583341684     1.369148708120     1.452366219267
    C           -1.637899331502    -0.729654524115     1.092080730771
    H           -0.951309176373     0.762795742410     2.473607379474
    H           -1.288142469372     1.396415261812     0.888443756395
    C           -3.065638558465    -0.754092555940     1.656738771536
    H           -1.090261610667    -1.566008326137     1.522062305098
    H           -1.672466650844    -0.887166654692     0.017340449195
    C           -3.908228310918     0.485032312627     1.348001978397
    H           -3.573531887994    -1.637753323893     1.279119314694
    H           -3.013036490397    -0.874812255914     2.737013464698
    H           -3.954628483690     0.677556810230     0.278973260327
    H           -4.926039994066     0.351897599765     1.701531561481
    H           -3.510339410454     1.372633949501     1.827127410519

  Mulliken Charges: (a.u.)
   Center  Symbol    Alpha    Beta     Spin     Total
       1     H     0.27992  0.27992  0.00000  0.44016
       2     O     4.37094  4.37094  0.00000 -0.74188
       3     C     2.99736  2.99736  0.00000  0.00527
       4     C     3.16095  3.16095  0.00000 -0.32189
       5     H     0.41445  0.41445  0.00000  0.17109
       6     H     0.43205  0.43205  0.00000  0.13590
       7     C     3.16340  3.16340  0.00000 -0.32679
       8     H     0.41496  0.41496  0.00000  0.17008
       9     H     0.42434  0.42434  0.00000  0.15132
      10     C     3.15193  3.15193  0.00000 -0.30387
      11     H     0.42262  0.42262  0.00000  0.15477
      12     H     0.42552  0.42552  0.00000  0.14896
      13     C     3.15656  3.15656  0.00000 -0.31313
      14     H     0.42186  0.42186  0.00000  0.15628
      15     H     0.42161  0.42161  0.00000  0.15677
      16     C     3.15333  3.15333  0.00000 -0.30666
      17     H     0.42183  0.42183  0.00000  0.15635
      18     H     0.42158  0.42158  0.00000  0.15685
      19     C     3.15191  3.15191  0.00000 -0.30382
      20     H     0.42203  0.42203  0.00000  0.15595
      21     H     0.42358  0.42358  0.00000  0.15284
      22     C     3.24222  3.24222  0.00000 -0.48444
      23     H     0.42071  0.42071  0.00000  0.15858
      24     H     0.42320  0.42320  0.00000  0.15360
      25     H     0.42319  0.42319  0.00000  0.15362
      26     H     0.41903  0.41903  0.00000  0.16195
      27     H     0.41892  0.41892  0.00000  0.16215

   Total alpha = 37.00000, Total beta = 37.00000, Total charge = -0.00000
