  ==> Input File <==

--------------------------------------------------------------------------
set {
	reference rhf
	basis 6-31G*
}

set_num_threads( 1 )
memory 2 gb

molecule MOL {
0 1

H	 -3.161837	 0.500524	 -0.000234
C	 -2.367097	 -0.232926	 -0.000000
O	 -1.158440	 0.455814	 -0.000122
H	 -2.468853	 -0.861886	 -0.882833
H	 -2.468942	 -0.861421	 0.883154
C	 -0.029776	 -0.365156	 0.000148
C	 1.155833	 0.431634	 0.516015
H	 0.169234	 -0.730063	 -1.008384
H	 -0.201455	 -1.239131	 0.629912
C	 2.442591	 -0.391719	 0.550970
H	 1.285994	 1.303951	 -0.117059
H	 0.917983	 0.798424	 1.509792
H	 2.712000	 -0.748453	 -0.439275
H	 3.271494	 0.200920	 0.923185
H	 2.341169	 -1.258096	 1.198665

	symmetry c1
}
set optking {
	frozen_dihedral = ("
		6 3 2 4,
		11 7 6 8
	")
}

ee = energy('scf')
oeprop('DIPOLE', 'QUADRUPOLE', 'MULLIKEN_CHARGES')
f=open( 'psi4out.xyz', 'w' )
f.write( "15  " )
f.write( str(ee) + "\n" )
f.write( MOL.save_string_xyz() )
f.close()
--------------------------------------------------------------------------

    Molecular point group: c1

    Geometry (in Angstrom), charge = 0, multiplicity = 1:

       Center              X                  Y                   Z               Mass
    ------------   -----------------  -----------------  -----------------  -----------------
           H         -3.138954287237     0.531914372815    -0.209779132058     1.007825032070
           C         -2.344214287237    -0.201535627185    -0.209545132058    12.000000000000
           O         -1.135557287237     0.487204372815    -0.209667132058    15.994914619560
           H         -2.445970287237    -0.830495627185    -1.092378132058     1.007825032070
           H         -2.446059287237    -0.830030627185     0.673608867942     1.007825032070
           C         -0.006893287237    -0.333765627185    -0.209397132058    12.000000000000
           C          1.178715712763     0.463024372815     0.306469867942    12.000000000000
           H          0.192116712763    -0.698672627185    -1.217929132058     1.007825032070
           H         -0.178572287237    -1.207740627185     0.420366867942     1.007825032070
           C          2.465473712763    -0.360328627185     0.341424867942    12.000000000000
           H          1.308876712763     1.335341372815    -0.326604132058     1.007825032070
           H          0.940865712763     0.829814372815     1.300246867942     1.007825032070
           H          2.734882712763    -0.717062627185    -0.648820132058     1.007825032070
           H          3.294376712763     0.232310372815     0.713639867942     1.007825032070
           H          2.364051712763    -1.226705627185     0.989119867942     1.007825032070

  Charge       = 0
  Multiplicity = 1
  Basis Set: 6-31G*
  Basis Set:

    Orbital Energies (a.u.)
    -----------------------

    Doubly Occupied:

       1A    -20.552859     2A    -11.266026     3A    -11.264278
       4A    -11.213938     5A    -11.212724     6A     -1.378250
       7A     -1.057021     8A     -0.955350     9A     -0.877658
      10A     -0.809045    11A     -0.674390    12A     -0.653697
      13A     -0.631331    14A     -0.606410    15A     -0.566143
      16A     -0.540492    17A     -0.502776    18A     -0.489497
      19A     -0.478867    20A     -0.462438    21A     -0.411628

  @DF-RHF Final Energy:  -232.13834524901475

   => Energetics <=

    Nuclear Repulsion Energy =            189.8723037396756297
    One-Electron Energy =                -690.8116818492096627
    Two-Electron Energy =                 268.8010328605191717
    DFT Exchange-Correlation Energy =       0.0000000000000000
    Empirical Dispersion Energy =           0.0000000000000000
    PCM Polarization Energy =               0.0000000000000000
    EFP Energy =                            0.0000000000000000
    Total Energy =                       -232.1383452490148329

  Mulliken Charges: (a.u.)
   Center  Symbol    Alpha    Beta     Spin     Total
       1     H     0.41249  0.41249  0.00000  0.17501
       2     C     3.07986  3.07986  0.00000 -0.15973
       3     O     4.30574  4.30574  0.00000 -0.61148
       4     H     0.43056  0.43056  0.00000  0.13888
       5     H     0.42984  0.42984  0.00000  0.14031
       6     C     2.98203  2.98203  0.00000  0.03594
       7     C     3.15911  3.15911  0.00000 -0.31823
       8     H     0.43104  0.43104  0.00000  0.13791
       9     H     0.43424  0.43424  0.00000  0.13153
      10     C     3.24817  3.24817  0.00000 -0.49634
      11     H     0.41388  0.41388  0.00000  0.17225
      12     H     0.41566  0.41566  0.00000  0.16867
      13     H     0.42061  0.42061  0.00000  0.15878
      14     H     0.41551  0.41551  0.00000  0.16899
      15     H     0.42125  0.42125  0.00000  0.15750

   Total alpha = 21.00000, Total beta = 21.00000, Total charge =  0.00000
