  ==> Input File <==

--------------------------------------------------------------------------
set {
	reference rhf
	basis cc-pvtz
}

set_num_threads( 4 )
memory 2 gb

molecule MOL {
0 1

H	 -2.498963	 -0.741158	 -0.729149
O	 -2.346257	 -0.289210	 0.080372
C	 -1.183935	 0.486039	 -0.009831
C	 0.062853	 -0.375310	 0.027457
H	 -1.178881	 1.094526	 -0.908634
H	 -1.184406	 1.155156	 0.838676
O	 1.172093	 0.457955	 -0.054438
H	 0.052476	 -1.081302	 -0.804627
H	 0.076323	 -0.955658	 0.947560
C	 2.284203	 -0.115626	 -0.658953
H	 2.072026	 -0.408741	 -1.684789
H	 3.074812	 0.620308	 -0.663855
H	 2.624576	 -0.992798	 -0.113759

	symmetry c1
}
set optking {
	frozen_dihedral = ("
		10 7 4 8
	")
}

ee = optimize('scf')
oeprop('DIPOLE', 'QUADRUPOLE', 'MULLIKEN_CHARGES')
f=open( 'psi4out.xyz', 'w' )
f.write( "13  " )
f.write( str(ee) + "\n" )
f.write( MOL.save_string_xyz() )
f.close()
--------------------------------------------------------------------------

    Molecular point group: c1
  Charge       = 0
  Multiplicity = 1
  Basis Set: CC-PVTZ
  Basis Set:
  @DF-RHF Final Energy:  -268.06038723640677
    Total Energy =                       -268.0603872364068252
    Molecular point group: c1
  Basis Set: CC-PVTZ
  Basis Set:
  Basis Set: CC-PVTZ
  Basis Set:
  @DF-RHF Final Energy:  -268.06051067615357
    Total Energy =                       -268.0605106761536263
  Basis Set: CC-PVTZ
  Basis Set:
  Basis Set: CC-PVTZ
  Basis Set:
  @DF-RHF Final Energy:  -268.06054536687316
    Total Energy =                       -268.0605453668732139
  Basis Set: CC-PVTZ
  Basis Set:
  Charge       = 0
  Multiplicity = 1
  Basis Set: CC-PVTZ
  Basis Set:

    Orbital Energies (a.u.)
    -----------------------

    Doubly Occupied:

       1A    -20.554731     2A    -20.553076     3A    -11.269139
       4A    -11.268576     5A    -11.267566     6A     -1.390099
       7A     -1.369254     8A     -1.019517     9A     -0.915349
      10A     -0.842965    11A     -0.712158    12A     -0.672221
      13A     -0.663768    14A     -0.642920    15A     -0.592587
      16A     -0.570477    17A     -0.553473    18A     -0.491293
      19A     -0.478310    20A     -0.451235    21A     -0.417312

  @DF-RHF Final Energy:  -268.06054599550885

   => Energetics <=

    Nuclear Repulsion Energy =            190.4737559410224605
    One-Electron Energy =                -743.6765479372693335
    Two-Electron Energy =                 285.1422460007376003
    DFT Exchange-Correlation Energy =       0.0000000000000000
    Empirical Dispersion Energy =           0.0000000000000000
    PCM Polarization Energy =               0.0000000000000000
    EFP Energy =                            0.0000000000000000
    Total Energy =                       -268.0605459955093011
    Molecular point group: c1
  Basis Set: CC-PVTZ
  Basis Set:

  -Total Gradient:
     Atom            X                  Y                   Z
    ------   -----------------  -----------------  -----------------
       1        0.000006301930     0.000012106733     0.000003627407
       2       -0.000030058572    -0.000010568671     0.000024276263
       3        0.000016300008    -0.000032605174    -0.000020014960
       4       -0.002051346151     0.002671952367    -0.002740792520
       5        0.000011176518     0.000008679895     0.000001358994
       6       -0.000019513104    -0.000019714976    -0.000011268417
       7        0.001306704719    -0.001608651665     0.003230723690
       8        0.001374320587    -0.001799225908     0.001481958719
       9       -0.000005663688     0.000007803227    -0.000002555229
      10       -0.000581359913     0.000760234978    -0.001980710950
      11       -0.000025581260     0.000004927560     0.000018752337
      12        0.000016750065    -0.000004440975    -0.000003630484
      13       -0.000018031140     0.000009502607    -0.000001724850

  **** Optimization is complete! (in 4 steps) ****
    Final optimized geometry and variables:
    Molecular point group: c1

    Geometry (in Angstrom), charge = 0, multiplicity = 1:

    H           -2.508799292838    -0.767938611264    -0.533599052085
    O           -2.330352399172    -0.293584317000     0.257631427112
    C           -1.166072327806     0.470215565334     0.112639098631
    C            0.077341220931    -0.396600568754     0.130813988893
    H           -1.187042123314     1.060659668503    -0.798263846129
    H           -1.133613896167     1.157023664346     0.946301653156
    O            1.197945714297     0.428713893501     0.074637751029
    H            0.069809415076    -1.096125841794    -0.704612519747
    H            0.088053635760    -0.993790358485     1.039651482267
    C            2.325912248233    -0.131542496636    -0.513177501539
    H            2.137514879994    -0.408997896575    -1.547438159284
    H            3.112084207554     0.608901781107    -0.488758731426
    H            2.663205129335    -1.014604026798     0.024928583828

  Mulliken Charges: (a.u.)
   Center  Symbol    Alpha    Beta     Spin     Total
       1     H     0.39495  0.39495  0.00000  0.21011
       2     O     4.20113  4.20113  0.00000 -0.40227
       3     C     2.97281  2.97281  0.00000  0.05438
       4     C     2.96708  2.96708  0.00000  0.06583
       5     H     0.46845  0.46845  0.00000  0.06310
       6     H     0.45239  0.45239  0.00000  0.09521
       7     O     4.17785  4.17785  0.00000 -0.35569
       8     H     0.48320  0.48320  0.00000  0.03361
       9     H     0.46298  0.46298  0.00000  0.07404
      10     C     3.03087  3.03087  0.00000 -0.06174
      11     H     0.47142  0.47142  0.00000  0.05716
      12     H     0.44713  0.44713  0.00000  0.10574
      13     H     0.46974  0.46974  0.00000  0.06052

   Total alpha = 21.00000, Total beta = 21.00000, Total charge = -0.00000
