                              Psi4 1.0.54 Driver

  ==> Input File <==

--------------------------------------------------------------------------
set {
	reference rhf
	basis cc-pvtz
}

set_num_threads( 4 )
memory 2 gb

molecule MOL {
0 1

H	 2.867672	 -0.456275	 0.875795
C	 2.403497	 -0.020426	 0.000000
N	 0.989899	 -0.304564	 0.000000
H	 2.867672	 -0.456275	 -0.875795
H	 2.620366	 1.051270	 0.000000
C	 0.183622	 0.898550	 0.000000
C	 0.601334	 -1.179587	 1.086702
H	 0.370636	 1.505052	 0.891586
H	 0.439661	 1.499379	 -0.864972
C	 -1.288574	 0.538331	 -0.055888
H	 1.163862	 -2.103555	 1.019079
H	 0.819767	 -0.729392	 2.060024
C	 -0.881594	 -1.486409	 1.002892
H	 -1.899837	 1.425163	 0.036381
H	 -1.510838	 0.063785	 -1.009568
O	 -1.639932	 -0.313383	 0.994004
H	 -1.198677	 -2.063137	 1.860488
H	 -1.082798	 -2.065730	 0.104001

	symmetry c1
}
set optking {
	frozen_dihedral = ("
		6 3 2 5
	")
}

ee,wfn = optimize('scf', return_wfn=True)
oeprop( wfn, 'DIPOLE', 'QUADRUPOLE', 'MULLIKEN_CHARGES')
f=open( 'psi4out.xyz', 'w' )
f.write( "18  " )
f.write( str(ee) + "\n" )
f.write( MOL.save_string_xyz() )
f.close()
--------------------------------------------------------------------------

    Molecular point group: c1
  Charge       = 0
  Multiplicity = 1
  Basis Set: CC-PVTZ
  Basis Set:
  @DF-RHF Final Energy:  -325.13907132782367
    Total Energy =                       -325.1390713278240128
    Molecular point group: c1
  Basis Set: CC-PVTZ
  Basis Set:
  Basis Set: CC-PVTZ
  Basis Set:
  @DF-RHF Final Energy:  -325.13972362247364
    Total Energy =                       -325.1397236224736389
  Basis Set: CC-PVTZ
  Basis Set:
  Basis Set: CC-PVTZ
  Basis Set:
  @DF-RHF Final Energy:  -325.13985345150786
    Total Energy =                       -325.1398534515080314
  Basis Set: CC-PVTZ
  Basis Set:
  Basis Set: CC-PVTZ
  Basis Set:
  @DF-RHF Final Energy:  -325.13986251377798
    Total Energy =                       -325.1398625137779845
  Basis Set: CC-PVTZ
  Basis Set:
  Charge       = 0
  Multiplicity = 1
  Basis Set: CC-PVTZ
  Basis Set:

    Orbital Energies (a.u.)
    -----------------------

    Doubly Occupied:

       1A    -20.546929     2A    -15.540562     3A    -11.263481
       4A    -11.263442     5A    -11.242408     6A    -11.242363
       7A    -11.238894     8A     -1.385793     9A     -1.228949
      10A     -1.038760    11A     -0.980943    12A     -0.883563
      13A     -0.870426    14A     -0.773482    15A     -0.684321
      16A     -0.645570    17A     -0.644284    18A     -0.631689
      19A     -0.627975    20A     -0.572293    21A     -0.557915
      22A     -0.548313    23A     -0.526876    24A     -0.499806
      25A     -0.484815    26A     -0.453345    27A     -0.409887
      28A     -0.348101

  @DF-RHF Final Energy:  -325.13986339267433

   => Energetics <=

    Nuclear Repulsion Energy =            341.3496765106149269
    One-Electron Energy =               -1118.7087120572000458
    Two-Electron Energy =                 452.2191721539109039
    DFT Exchange-Correlation Energy =       0.0000000000000000
    Empirical Dispersion Energy =           0.0000000000000000
    PCM Polarization Energy =               0.0000000000000000
    EFP Energy =                            0.0000000000000000
    Total Energy =                       -325.1398633926742150
    Molecular point group: c1
  Basis Set: CC-PVTZ
  Basis Set:

  -Total Gradient:
     Atom            X                  Y                   Z
    ------   -----------------  -----------------  -----------------
       1       -0.000002200693     0.000001579009     0.000001533757
       2        0.000041754077    -0.000016001371    -0.002061058844
       3       -0.000016129736     0.000031575625     0.001692908558
       4       -0.000034946673    -0.000005830711     0.000033194164
       5        0.000028671414     0.000032549414     0.001294399869
       6       -0.000011799181     0.000010135208    -0.000960781134
       7        0.000004606357    -0.000014734723    -0.000009842114
       8        0.000011536615    -0.000006510162    -0.000001663528
       9       -0.000006176454    -0.000004686516    -0.000000101040
      10       -0.000007015085    -0.000039983013    -0.000019380131
      11       -0.000007005640     0.000000359811     0.000001859222
      12       -0.000006063830    -0.000002398268    -0.000007899904
      13       -0.000017680586    -0.000005513082     0.000029466420
      14        0.000001015503    -0.000006037125     0.000008996365
      15        0.000002317330     0.000010677036    -0.000016165594
      16        0.000018759847     0.000014886806     0.000008279618
      17       -0.000016858071    -0.000003179051     0.000002751585
      18        0.000017214807     0.000003111114     0.000003502731

  **** Optimization is complete! (in 5 steps) ****
    Final optimized geometry and variables:
    Molecular point group: c1

    Geometry (in Angstrom), charge = 0, multiplicity = 1:

    H            2.876766121029    -0.094323848545     0.419293877323
    C            2.363396979580     0.282814105139    -0.460424194323
    N            0.939544484869     0.001222442402    -0.407868594270
    H            2.823381182057    -0.168937148794    -1.332278645303
    H            2.550408080662     1.350024592365    -0.494592207262
    C            0.101495815589     1.180722045716    -0.412554316680
    C            0.562153351115    -0.913010036754     0.647615916567
    H            0.256030700192     1.792013136798     0.482243572691
    H            0.347153132858     1.791187034730    -1.273476340238
    C           -1.358847426746     0.777964324494    -0.490714084849
    H            1.143888743325    -1.823240121024     0.558386069926
    H            0.760355984526    -0.489818406785     1.637389132342
    C           -0.912094243552    -1.252762804234     0.539308675884
    H           -1.996994195537     1.645403771875    -0.394478165091
    H           -1.554950048039     0.310201412217    -1.453599516688
    O           -1.698058548724    -0.098198080442     0.542785248784
    H           -1.225751797697    -1.853572101722     1.381695946412
    H           -1.088033112392    -1.819124535794    -0.373164066386

  Mulliken Charges: (a.u.)
   Center  Symbol    Alpha    Beta     Spin     Total
       1     H     0.46154  0.46154  0.00000  0.07693
       2     C     3.08967  3.08967  0.00000 -0.17933
       3     N     3.61942  3.61942  0.00000 -0.23884
       4     H     0.44932  0.44932  0.00000  0.10137
       5     H     0.45915  0.45915  0.00000  0.08170
       6     C     3.04146  3.04146  0.00000 -0.08292
       7     C     3.04172  3.04172  0.00000 -0.08345
       8     H     0.46899  0.46899  0.00000  0.06201
       9     H     0.45361  0.45361  0.00000  0.09277
      10     C     2.98446  2.98446  0.00000  0.03108
      11     H     0.45355  0.45355  0.00000  0.09290
      12     H     0.46892  0.46892  0.00000  0.06215
      13     C     2.98447  2.98447  0.00000  0.03106
      14     H     0.45014  0.45014  0.00000  0.09972
      15     H     0.46853  0.46853  0.00000  0.06294
      16     O     4.18638  4.18638  0.00000 -0.37276
      17     H     0.45016  0.45016  0.00000  0.09968
      18     H     0.46850  0.46850  0.00000  0.06299

   Total alpha = 28.00000, Total beta = 28.00000, Total charge = -0.00000

*** Psi4 exiting successfully. Buy a developer a beer!
