  ==> Input File <==

--------------------------------------------------------------------------
set {
	reference rhf
	basis cc-pvtz
}

set_num_threads( 4 )
memory 2 gb

molecule MOL {
0 1

H	 -3.162190	 0.493205	 -0.000107
C	 -2.363908	 -0.234727	 0.000005
O	 -1.158738	 0.454634	 -0.000087
H	 -2.464314	 -0.863616	 -0.882153
H	 -2.464327	 -0.863359	 0.882345
C	 -0.069092	 -0.288984	 -0.447323
C	 1.176774	 0.572324	 -0.398754
H	 -0.246167	 -0.636477	 -1.465424
H	 0.061155	 -1.173624	 0.176449
C	 2.418719	 -0.172761	 -0.874961
H	 1.012055	 1.452783	 -1.009970
H	 1.316955	 0.919856	 0.618852
H	 2.309190	 -0.508751	 -1.900729
H	 3.292826	 0.465156	 -0.830027
H	 2.616299	 -1.045057	 -0.260851

	symmetry c1
}
set optking {
	frozen_dihedral = ("
		6 3 2 4
	")
}

ee = optimize('scf')
oeprop('DIPOLE', 'QUADRUPOLE', 'MULLIKEN_CHARGES')
f=open( 'psi4out.xyz', 'w' )
f.write( "15  " )
f.write( str(ee) + "\n" )
f.write( MOL.save_string_xyz() )
f.close()
--------------------------------------------------------------------------

    Molecular point group: c1
  Charge       = 0
  Multiplicity = 1
  Basis Set: CC-PVTZ
  Basis Set:
  @DF-RHF Final Energy:  -232.22722755179265
    Total Energy =                       -232.2272275517925664
    Molecular point group: c1
  Basis Set: CC-PVTZ
  Basis Set:
  Basis Set: CC-PVTZ
  Basis Set:
  @DF-RHF Final Energy:  -232.22727123452742
    Total Energy =                       -232.2272712345273931
  Basis Set: CC-PVTZ
  Basis Set:
  Basis Set: CC-PVTZ
  Basis Set:
  @DF-RHF Final Energy:  -232.22728323247915
    Total Energy =                       -232.2272832324792944
  Basis Set: CC-PVTZ
  Basis Set:
  Charge       = 0
  Multiplicity = 1
  Basis Set: CC-PVTZ
  Basis Set:

    Orbital Energies (a.u.)
    -----------------------

    Doubly Occupied:

       1A    -20.546668     2A    -11.264626     3A    -11.261708
       4A    -11.212676     5A    -11.210703     6A     -1.380644
       7A     -1.058374     8A     -0.956127     9A     -0.877460
      10A     -0.809566    11A     -0.675939    12A     -0.655667
      13A     -0.632497    14A     -0.608047    15A     -0.565196
      16A     -0.541641    17A     -0.503537    18A     -0.490856
      19A     -0.478523    20A     -0.462822    21A     -0.414975

  @DF-RHF Final Energy:  -232.22728332811985

   => Energetics <=

    Nuclear Repulsion Energy =            189.9230342560667566
    One-Electron Energy =                -691.0841342153109963
    Two-Electron Energy =                 268.9338166311245573
    DFT Exchange-Correlation Energy =       0.0000000000000000
    Empirical Dispersion Energy =           0.0000000000000000
    PCM Polarization Energy =               0.0000000000000000
    EFP Energy =                            0.0000000000000000
    Total Energy =                       -232.2272833281196540
    Molecular point group: c1
  Basis Set: CC-PVTZ
  Basis Set:

  -Total Gradient:
     Atom            X                  Y                   Z
    ------   -----------------  -----------------  -----------------
       1       -0.000005550454     0.000002349281    -0.000002611683
       2       -0.001535031345     0.002660671316    -0.002369496708
       3        0.000759444486    -0.001379561697     0.003002242682
       4        0.001084946129    -0.001858774301     0.001237947291
       5        0.000005428628    -0.000002205275    -0.000001594005
       6       -0.000330359781     0.000581232346    -0.001850598707
       7        0.000001839496    -0.000010472186    -0.000009094126
       8       -0.000000111603     0.000006351378     0.000009200178
       9       -0.000003692271     0.000000677541    -0.000004092500
      10        0.000019589729     0.000008517803    -0.000003658278
      11        0.000003414538     0.000000508530     0.000000996612
      12       -0.000008694181    -0.000007010537    -0.000004730302
      13        0.000001317577    -0.000000727118     0.000000127646
      14        0.000009869060    -0.000004337047    -0.000004107268
      15       -0.000002410006     0.000002779968    -0.000000530832

  **** Optimization is complete! (in 4 steps) ****
    Final optimized geometry and variables:
    Molecular point group: c1

    Geometry (in Angstrom), charge = 0, multiplicity = 1:

    H           -3.138911100685     0.440511239547     0.353822964973
    C           -2.337859830799    -0.284549913877     0.344510513958
    O           -1.128701027883     0.400493354189     0.331564610240
    H           -2.444930210019    -0.925791002866    -0.526924293822
    H           -2.424412375728    -0.912560057649     1.228955675740
    C           -0.036435025313    -0.345215106098    -0.106181583035
    C            1.208957977897     0.516540086809    -0.052170126309
    H           -0.208519437821    -0.693950069526    -1.124218116995
    H            0.093001147383    -1.229028477339     0.519509148418
    C            2.452393139926    -0.226627092581    -0.527852053828
    H            1.044806771608     1.398536815311    -0.661477105325
    H            1.347054200654     0.861656329506     0.966559287698
    H            2.345232980365    -0.559646085740    -1.554891368570
    H            3.326303966881     0.411424171374    -0.479158174779
    H            2.648920033554    -1.100713176084     0.084133988412

  Mulliken Charges: (a.u.)
   Center  Symbol    Alpha    Beta     Spin     Total
       1     H     0.44846  0.44846  0.00000  0.10308
       2     C     3.03242  3.03242  0.00000 -0.06483
       3     O     4.17284  4.17284  0.00000 -0.34568
       4     H     0.47437  0.47437  0.00000  0.05125
       5     H     0.46771  0.46771  0.00000  0.06458
       6     C     2.95606  2.95606  0.00000  0.08789
       7     C     3.08077  3.08077  0.00000 -0.16154
       8     H     0.47447  0.47447  0.00000  0.05105
       9     H     0.47695  0.47695  0.00000  0.04611
      10     C     3.15580  3.15580  0.00000 -0.31160
      11     H     0.45118  0.45118  0.00000  0.09765
      12     H     0.45100  0.45100  0.00000  0.09801
      13     H     0.45591  0.45591  0.00000  0.08818
      14     H     0.44625  0.44625  0.00000  0.10750
      15     H     0.45582  0.45582  0.00000  0.08836

   Total alpha = 21.00000, Total beta = 21.00000, Total charge = -0.00000
