  ==> Input File <==

--------------------------------------------------------------------------
set {
	reference rhf
	basis 6-31G*
}

set_num_threads( 4 )
memory 2 gb

molecule MOL {
0 1

H	 -2.240399	 -0.985455	 -1.016778
N	 -1.527343	 -0.282006	 -1.030554
C	 -0.563778	 -0.502042	 0.037919
H	 -1.988357	 0.600096	 -0.911726
C	 0.575259	 0.508231	 -0.048326
H	 -0.162416	 -1.504121	 -0.080164
H	 -1.009719	 -0.459164	 1.034936
C	 1.954651	 -0.143624	 0.035137
H	 0.475158	 1.060484	 -0.977307
H	 0.469181	 1.234488	 0.755973
H	 2.103292	 -0.853109	 -0.774172
H	 2.742821	 0.599562	 -0.030094
H	 2.083613	 -0.679371	 0.971560

	symmetry c1
}
set optking {
	frozen_dihedral = ("
		6 3 5 9
	")
}

ee = optimize('scf')
oeprop('DIPOLE', 'QUADRUPOLE', 'MULLIKEN_CHARGES')
f=open( 'psi4out.xyz', 'w' )
f.write( "13  " )
f.write( str(ee) + "\n" )
f.write( MOL.save_string_xyz() )
f.close()
--------------------------------------------------------------------------

    Molecular point group: c1
  Charge       = 0
  Multiplicity = 1
  Basis Set: 6-31G*
  Basis Set:
  @DF-RHF Final Energy:  -173.27654918686918
    Total Energy =                       -173.2765491868691470
    Molecular point group: c1
  Basis Set: 6-31G*
  Basis Set:
  Basis Set: 6-31G*
  Basis Set:
  @DF-RHF Final Energy:  -173.27682206964150
    Total Energy =                       -173.2768220696414403
  Basis Set: 6-31G*
  Basis Set:
  Basis Set: 6-31G*
  Basis Set:
  @DF-RHF Final Energy:  -173.27691449331530
    Total Energy =                       -173.2769144933153598
  Basis Set: 6-31G*
  Basis Set:
  Charge       = 0
  Multiplicity = 1
  Basis Set: 6-31G*
  Basis Set:

    Orbital Energies (a.u.)
    -----------------------

    Doubly Occupied:

       1A    -15.533377     2A    -11.240029     3A    -11.211795
       4A    -11.208111     5A     -1.176108     6A     -1.032409
       7A     -0.897684     8A     -0.800933     9A     -0.651798
      10A     -0.639958    11A     -0.594998    12A     -0.566841
      13A     -0.532730    14A     -0.487674    15A     -0.474934
      16A     -0.468447    17A     -0.379995

  @DF-RHF Final Energy:  -173.27691529395963

   => Energetics <=

    Nuclear Repulsion Energy =            131.6734588761393070
    One-Electron Energy =                -494.1051059005469597
    Two-Electron Energy =                 189.1547317304480771
    DFT Exchange-Correlation Energy =       0.0000000000000000
    Empirical Dispersion Energy =           0.0000000000000000
    PCM Polarization Energy =               0.0000000000000000
    EFP Energy =                            0.0000000000000000
    Total Energy =                       -173.2769152939595756
    Molecular point group: c1
  Basis Set: 6-31G*
  Basis Set:

  -Total Gradient:
     Atom            X                  Y                   Z
    ------   -----------------  -----------------  -----------------
       1       -0.000022655814    -0.000020843865    -0.000012382515
       2       -0.000023073071    -0.000048377047    -0.000021285896
       3       -0.000856927269     0.000737221764    -0.003438504246
       4        0.000026578339    -0.000012969694     0.000033977676
       5        0.002251020094    -0.002542454686    -0.000972227362
       6        0.000340209043    -0.000177341447     0.003008990490
       7       -0.000015075054    -0.000005029163    -0.000011651127
       8        0.000028073612     0.000011823922     0.000004775639
       9       -0.001723564101     0.002080003778     0.001403610171
      10        0.000013796054    -0.000033553027    -0.000006426325
      11       -0.000030784902    -0.000006008495     0.000014056388
      12        0.000011593468     0.000005873430    -0.000010580341
      13        0.000000809598     0.000011654530     0.000007647450

  **** Optimization is complete! (in 4 steps) ****
    Final optimized geometry and variables:
    Molecular point group: c1

    Geometry (in Angstrom), charge = 0, multiplicity = 1:

    H           -2.362341251458    -0.855832934629    -0.716208385944
    N           -1.627711457463    -0.176252664523    -0.770052529754
    C           -0.646940399492    -0.398521220122     0.283876964529
    H           -2.059471889441     0.722036366557    -0.660156064814
    C            0.506316528396     0.618572961253     0.202365111419
    H           -0.257823891246    -1.405566875560     0.172555673663
    H           -1.086607544023    -0.364049249675     1.283080821655
    C            1.890555995412    -0.019977296640     0.301050218052
    H            0.413985153154     1.168278587574    -0.728885436912
    H            0.398964531844     1.355265031871     0.995183445148
    H            2.055674697208    -0.714784918273    -0.516856699495
    H            2.673421428229     0.731137556907     0.264900193758
    H            2.004049879190    -0.569819442694     1.231611557694

  Mulliken Charges: (a.u.)
   Center  Symbol    Alpha    Beta     Spin     Total
       1     H     0.33338  0.33338  0.00000  0.33323
       2     N     3.92025  3.92025  0.00000 -0.84049
       3     C     3.06345  3.06345  0.00000 -0.12691
       4     H     0.33540  0.33540  0.00000  0.32920
       5     C     3.15894  3.15894  0.00000 -0.31788
       6     H     0.41844  0.41844  0.00000  0.16312
       7     H     0.43316  0.43316  0.00000  0.13368
       8     C     3.24217  3.24217  0.00000 -0.48434
       9     H     0.41073  0.41073  0.00000  0.17853
      10     H     0.42370  0.42370  0.00000  0.15261
      11     H     0.41759  0.41759  0.00000  0.16481
      12     H     0.41986  0.41986  0.00000  0.16028
      13     H     0.42292  0.42292  0.00000  0.15416

   Total alpha = 17.00000, Total beta = 17.00000, Total charge =  0.00000
