  ==> Input File <==

--------------------------------------------------------------------------
set {
	reference rhf
	basis cc-pvtz
}

set_num_threads( 4 )
memory 2 gb

molecule MOL {
0 1

H	 0.282474	 -0.542604	 2.203283
O	 0.892818	 -0.408197	 1.500526
C	 0.522734	 0.716145	 0.763966
C	 -0.793473	 0.591216	 0.050087
H	 1.309091	 0.878535	 0.036247
H	 0.497292	 1.602318	 1.395432
C	 -1.534243	 -0.493009	 -0.013340
H	 -1.124179	 1.490817	 -0.442456
H	 -1.101195	 -1.466332	 -0.144046
H	 -2.604242	 -0.437780	 0.050785

	symmetry c1
}
set optking {
	frozen_dihedral = ("
		3 4 7 9
	")
}

ee = optimize('scf')
oeprop('DIPOLE', 'QUADRUPOLE', 'MULLIKEN_CHARGES')
f=open( 'psi4out.xyz', 'w' )
f.write( "10  " )
f.write( str(ee) + "\n" )
f.write( MOL.save_string_xyz() )
f.close()
--------------------------------------------------------------------------

    Molecular point group: c1
  Charge       = 0
  Multiplicity = 1
  Basis Set: CC-PVTZ
  Basis Set:
  @DF-RHF Final Energy:  -191.96320453043589
    Total Energy =                       -191.9632045304358599
    Molecular point group: c1
  Basis Set: CC-PVTZ
  Basis Set:
  Basis Set: CC-PVTZ
  Basis Set:
  @DF-RHF Final Energy:  -191.97887560246747
    Total Energy =                       -191.9788756024674683
  Basis Set: CC-PVTZ
  Basis Set:
  Basis Set: CC-PVTZ
  Basis Set:
  @DF-RHF Final Energy:  -191.98557770693407
    Total Energy =                       -191.9855777069341514
  Basis Set: CC-PVTZ
  Basis Set:
  Basis Set: CC-PVTZ
  Basis Set:
  @DF-RHF Final Energy:  -191.98625225112073
    Total Energy =                       -191.9862522511206180
  Basis Set: CC-PVTZ
  Basis Set:
  @DF-RHF Final Energy:  -191.98627605779791
    Total Energy =                       -191.9862760577977667
  Basis Set: CC-PVTZ
  Basis Set:
  @DF-RHF Final Energy:  -191.98628060217135
    Total Energy =                       -191.9862806021713482
  Basis Set: CC-PVTZ
  Basis Set:
  Basis Set: CC-PVTZ
  Basis Set:
  @DF-RHF Final Energy:  -191.98530151635936
    Total Energy =                       -191.9853015163594137
  Basis Set: CC-PVTZ
  Basis Set:
  Basis Set: CC-PVTZ
  Basis Set:
  @DF-RHF Final Energy:  -191.98628138876757
    Total Energy =                       -191.9862813887675657
  Basis Set: CC-PVTZ
  Basis Set:
  Charge       = 0
  Multiplicity = 1
  Basis Set: CC-PVTZ
  Basis Set:

    Orbital Energies (a.u.)
    -----------------------

    Doubly Occupied:

       1A    -20.553629     2A    -11.280264     3A    -11.237209
       4A    -11.219757     5A     -1.374859     6A     -1.064547
       7A     -0.934996     8A     -0.774042     9A     -0.691057
      10A     -0.663364    11A     -0.624951    12A     -0.572266
      13A     -0.539055    14A     -0.501425    15A     -0.450663
      16A     -0.367528

  @DF-RHF Final Energy:  -191.98628217581665

   => Energetics <=

    Nuclear Repulsion Energy =            119.3264801491029203
    One-Electron Energy =                -496.9263011739730018
    Two-Electron Energy =                 185.6135388490533842
    DFT Exchange-Correlation Energy =       0.0000000000000000
    Empirical Dispersion Energy =           0.0000000000000000
    PCM Polarization Energy =               0.0000000000000000
    EFP Energy =                            0.0000000000000000
    Total Energy =                       -191.9862821758167115
    Molecular point group: c1
  Basis Set: CC-PVTZ
  Basis Set:

  -Total Gradient:
     Atom            X                  Y                   Z
    ------   -----------------  -----------------  -----------------
       1       -0.000006989754    -0.000010167783     0.000019277677
       2       -0.000053129406     0.000012463312    -0.000024521821
       3       -0.007819896442     0.008056129071     0.011432947470
       4        0.012988792143    -0.014852210680    -0.028677890917
       5        0.000030082731     0.000031495339     0.000017181833
       6        0.000027238366     0.000003677589    -0.000000592811
       7       -0.004980548699     0.009380686223     0.038253742651
       8       -0.000036854070     0.000008004405     0.000151238927
       9       -0.000159870741    -0.002638518396    -0.021164051860
      10        0.000011175875     0.000008440920    -0.000007331150

  **** Optimization is complete! (in 9 steps) ****
    Final optimized geometry and variables:
    Molecular point group: c1

    Geometry (in Angstrom), charge = 0, multiplicity = 1:

    H            0.484657399366    -0.769286393415     1.404189453368
    O            1.141924264333    -0.479959815871     0.796426157326
    C            0.688266125711     0.649575326771     0.120416762298
    C           -0.599507444726     0.457066679837    -0.631041712673
    H            1.488659300347     0.950818796409    -0.545236062172
    H            0.523786313192     1.479010421991     0.805277200605
    C           -1.440509335011    -0.551917793550    -0.496279438928
    H           -0.982369140849     1.379837299484    -1.039934448084
    H           -1.112337045030    -1.568434281315    -0.368543912543
    H           -2.430500115446    -0.459641438610    -0.906575235859

  Mulliken Charges: (a.u.)
   Center  Symbol    Alpha    Beta     Spin     Total
       1     H     0.38972  0.38972  0.00000  0.22056
       2     O     4.20050  4.20050  0.00000 -0.40101
       3     C     2.95047  2.95047  0.00000  0.09907
       4     C     3.07119  3.07119  0.00000 -0.14239
       5     H     0.45366  0.45366  0.00000  0.09269
       6     H     0.46845  0.46845  0.00000  0.06310
       7     C     3.18548  3.18548  0.00000 -0.37096
       8     H     0.42690  0.42690  0.00000  0.14619
       9     H     0.42165  0.42165  0.00000  0.15671
      10     H     0.43198  0.43198  0.00000  0.13603

   Total alpha = 16.00000, Total beta = 16.00000, Total charge = -0.00000
