                              Psi4 1.0.54 Driver

  ==> Input File <==

--------------------------------------------------------------------------
set {
	reference rhf
	basis cc-pvtz
}

set_num_threads( 4 )
memory 2 gb

molecule MOL {
0 1

O	 -2.503981	 1.070980	 -0.325676
C	 -2.132486	 0.005156	 0.045057
C	 -0.908585	 -0.651175	 -0.562680
C	 -2.843431	 -0.741425	 1.148660
C	 0.376695	 -0.140025	 0.100361
H	 -0.895285	 -0.406691	 -1.617271
H	 -0.971331	 -1.729598	 -0.463016
C	 1.630207	 -0.772146	 -0.501001
H	 0.407501	 0.937167	 -0.004217
H	 0.347720	 -0.350521	 1.166734
C	 2.907848	 -0.545876	 0.309149
H	 1.772784	 -0.391628	 -1.509394
H	 1.468529	 -1.842059	 -0.599744
C	 3.373802	 0.906639	 0.372125
H	 3.699140	 -1.146831	 -0.127906
H	 2.764321	 -0.923458	 1.318191
H	 3.519798	 1.311927	 -0.623875
H	 4.316899	 0.983758	 0.900700
H	 2.661122	 1.540651	 0.885346
H	 -3.311252	 -1.629110	 0.734948
H	 -3.597239	 -0.112912	 1.597342
H	 -2.138304	 -1.073007	 1.902609

	symmetry c1
}
set optking {
	frozen_dihedral = ("
		3 5 8 12
	")
}

ee,wfn = optimize('scf', return_wfn=True)
oeprop( wfn, 'DIPOLE', 'QUADRUPOLE', 'MULLIKEN_CHARGES')
f=open( 'psi4out.xyz', 'w' )
f.write( "22  " )
f.write( str(ee) + "\n" )
f.write( MOL.save_string_xyz() )
f.close()
--------------------------------------------------------------------------

    Molecular point group: c1
  Charge       = 0
  Multiplicity = 1
  Basis Set: CC-PVTZ
  Basis Set:
  @DF-RHF Final Energy:  -348.22311229609244
    Total Energy =                       -348.2231122960928360
    Molecular point group: c1
  Basis Set: CC-PVTZ
  Basis Set:
  Basis Set: CC-PVTZ
  Basis Set:
  @DF-RHF Final Energy:  -348.22274143867924
    Total Energy =                       -348.2227414386796909
  Basis Set: CC-PVTZ
  Basis Set:
  Basis Set: CC-PVTZ
  Basis Set:
  @DF-RHF Final Energy:  -348.22314559859916
    Total Energy =                       -348.2231455985991033
  Basis Set: CC-PVTZ
  Basis Set:
  Basis Set: CC-PVTZ
  Basis Set:
  @DF-RHF Final Energy:  -348.22304570428241
    Total Energy =                       -348.2230457042821854
  Basis Set: CC-PVTZ
  Basis Set:
  @DF-RHF Final Energy:  -348.22309462566398
    Total Energy =                       -348.2230946256643165
  Basis Set: CC-PVTZ
  Basis Set:
  @DF-RHF Final Energy:  -348.22317949895779
    Total Energy =                       -348.2231794989579612
  Basis Set: CC-PVTZ
  Basis Set:
  Basis Set: CC-PVTZ
  Basis Set:
  @DF-RHF Final Energy:  -348.22317554255795
    Total Energy =                       -348.2231755425580104
  Basis Set: CC-PVTZ
  Basis Set:
  Basis Set: CC-PVTZ
  Basis Set:
  @DF-RHF Final Energy:  -348.22318467835316
    Total Energy =                       -348.2231846783533911
  Basis Set: CC-PVTZ
  Basis Set:
  Charge       = 0
  Multiplicity = 1
  Basis Set: CC-PVTZ
  Basis Set:

    Orbital Energies (a.u.)
    -----------------------

    Doubly Occupied:

       1A    -20.536709     2A    -11.319250     3A    -11.228053
       4A    -11.227454     5A    -11.226916     6A    -11.220561
       7A    -11.219049     8A    -11.209758     9A     -1.396844
      10A     -1.097379    11A     -1.045853    12A     -1.000187
      13A     -0.938670    14A     -0.859158    15A     -0.786719
      16A     -0.734496    17A     -0.664919    18A     -0.645944
      19A     -0.628642    20A     -0.621741    21A     -0.597310
      22A     -0.587060    23A     -0.562978    24A     -0.539427
      25A     -0.536916    26A     -0.523064    27A     -0.498135
      28A     -0.491086    29A     -0.471269    30A     -0.465970
      31A     -0.461371    32A     -0.398445

  @DF-RHF Final Energy:  -348.22318538286669

   => Energetics <=

    Nuclear Repulsion Energy =            373.7292063285091785
    One-Electron Energy =               -1212.4221161102568658
    Two-Electron Energy =                 490.4697243988813398
    DFT Exchange-Correlation Energy =       0.0000000000000000
    Empirical Dispersion Energy =           0.0000000000000000
    PCM Polarization Energy =               0.0000000000000000
    EFP Energy =                            0.0000000000000000
    Total Energy =                       -348.2231853828662906
    Molecular point group: c1
  Basis Set: CC-PVTZ
  Basis Set:

  -Total Gradient:
     Atom            X                  Y                   Z
    ------   -----------------  -----------------  -----------------
       1       -0.000004424042    -0.000000401421    -0.000000771369
       2        0.000001545784     0.000008967251    -0.000005111108
       3       -0.000074167910    -0.000982288215     0.000884836003
       4        0.000006479337    -0.000001247922     0.000004604134
       5        0.000324177909     0.001673497003    -0.001062062564
       6       -0.000001170515    -0.000000078887     0.000001513395
       7        0.000007232167     0.000001596475     0.000002237710
       8       -0.001268639615    -0.002076992256    -0.000482573139
       9       -0.000006086223     0.000003981946    -0.000002356288
      10       -0.000002621166     0.000003147157     0.000010333260
      11        0.000011551964    -0.000003676934    -0.000011574416
      12        0.001025376100     0.001381577640     0.000666122743
      13        0.000003176060    -0.000007646279    -0.000000676221
      14       -0.000011862623    -0.000000351228     0.000001731175
      15       -0.000014606321     0.000011076160     0.000011059271
      16        0.000003048117     0.000012541444    -0.000020349439
      17       -0.000003329076    -0.000010968536     0.000011651247
      18       -0.000000966817    -0.000000744388     0.000002611063
      19        0.000009045078    -0.000009094554    -0.000009179475
      20       -0.000001870234    -0.000000347221     0.000001261368
      21        0.000003312246    -0.000001350596    -0.000002503224
      22       -0.000005200228    -0.000001196636    -0.000000804125

  **** Optimization is complete! (in 9 steps) ****
    Final optimized geometry and variables:
    Molecular point group: c1

    Geometry (in Angstrom), charge = 0, multiplicity = 1:

    O           -2.474112266872     1.169725297766    -0.434313041481
    C           -2.116454426837     0.105207484963    -0.046793509229
    C           -0.894598932806    -0.571602165158    -0.635843526159
    C           -2.844534466765    -0.620068046421     1.059751507237
    C            0.391496190966    -0.063389164503     0.027987719564
    H           -0.873454557488    -0.344600250530    -1.694456556774
    H           -0.966684153455    -1.647454403359    -0.518905803863
    C            1.646089739990    -0.692475825365    -0.577775237990
    H            0.425939439499     1.014760487623    -0.064081505919
    H            0.358848956376    -0.285938689677     1.092025032667
    C            2.924968490997    -0.446100131003     0.224921730901
    H            1.786091529061    -0.306136898332    -1.584158946798
    H            1.497470558161    -1.764141195972    -0.671639281536
    C            3.345025019709     1.018821930446     0.313928197670
    H            3.729761311160    -1.013864606876    -0.231464537601
    H            2.801939025256    -0.847738639971     1.227306307615
    H            3.470779581557     1.448570328823    -0.674579379165
    H            4.288490647073     1.116562946830     0.838333874762
    H            2.614575558567     1.618280072495     0.843815711651
    H           -3.317747346597    -1.508056949722     0.652889721787
    H           -3.595843189986     0.021670502717     1.493610591016
    H           -2.149654361562    -0.949321878307     1.824162511844

  Mulliken Charges: (a.u.)
   Center  Symbol    Alpha    Beta     Spin     Total
       1     O     4.17778  4.17778  0.00000 -0.35556
       2     C     2.85872  2.85872  0.00000  0.28255
       3     C     3.09639  3.09639  0.00000 -0.19278
       4     C     3.15551  3.15551  0.00000 -0.31101
       5     C     3.10566  3.10566  0.00000 -0.21131
       6     H     0.43935  0.43935  0.00000  0.12129
       7     H     0.44861  0.44861  0.00000  0.10279
       8     C     3.09613  3.09613  0.00000 -0.19226
       9     H     0.43788  0.43788  0.00000  0.12425
      10     H     0.45247  0.45247  0.00000  0.09506
      11     C     3.09080  3.09080  0.00000 -0.18161
      12     H     0.45001  0.45001  0.00000  0.09999
      13     H     0.44887  0.44887  0.00000  0.10226
      14     C     3.15205  3.15205  0.00000 -0.30410
      15     H     0.44778  0.44778  0.00000  0.10444
      16     H     0.45491  0.45491  0.00000  0.09017
      17     H     0.45364  0.45364  0.00000  0.09272
      18     H     0.44602  0.44602  0.00000  0.10795
      19     H     0.45227  0.45227  0.00000  0.09545
      20     H     0.44834  0.44834  0.00000  0.10332
      21     H     0.43604  0.43604  0.00000  0.12793
      22     H     0.45077  0.45077  0.00000  0.09847

   Total alpha = 32.00000, Total beta = 32.00000, Total charge = -0.00000

*** Psi4 exiting successfully. Buy a developer a beer!
