  ==> Input File <==

--------------------------------------------------------------------------
set {
	reference rhf
	basis 6-31G*
}

set_num_threads( 1 )
memory 2 gb

molecule MOL {
0 1

H	 0.656479	 4.613011	 1.128543
N	 -0.153534	 4.031177	 1.034244
C	 0.214576	 2.708977	 0.548641
H	 -0.763240	 4.487399	 0.382363
C	 -1.006197	 1.796289	 0.498949
H	 0.943491	 2.295488	 1.238979
H	 0.691489	 2.730279	 -0.434466
C	 -0.679275	 0.379305	 0.025956
H	 -1.453762	 1.768011	 1.488252
H	 -1.751423	 2.234620	 -0.164256
C	 -1.903357	 -0.536963	 -0.023547
H	 0.067661	 -0.058235	 0.686633
H	 -0.224067	 0.420898	 -0.962428
C	 -3.225172	 0.228290	 0.028445
H	 -1.867824	 -1.134999	 -0.931459
H	 -1.860449	 -1.239604	 0.805977
H	 -3.313397	 0.915643	 -0.808262
H	 -4.073500	 -0.448134	 -0.008893
H	 -3.306061	 0.809945	 0.942516

	symmetry c1
}
set optking {
	frozen_dihedral = ("
		6 3 5 9,
		12 8 5 9,
		1 2 3 6
	")
}

ee = energy('scf')
oeprop('DIPOLE', 'QUADRUPOLE', 'MULLIKEN_CHARGES')
f=open( 'psi4out.xyz', 'w' )
f.write( "19  " )
f.write( str(ee) + "\n" )
f.write( MOL.save_string_xyz() )
f.close()
--------------------------------------------------------------------------

    Molecular point group: c1

    Geometry (in Angstrom), charge = 0, multiplicity = 1:

       Center              X                  Y                   Z               Mass
    ------------   -----------------  -----------------  -----------------  -----------------
           H          1.778401608201     3.133298287950     0.774788190126     1.007825032070
           N          0.968388608201     2.551464287950     0.680489190126    14.003074004780
           C          1.336498608201     1.229264287950     0.194886190126    12.000000000000
           H          0.358682608201     3.007686287950     0.028608190126     1.007825032070
           C          0.115725608201     0.316576287950     0.145194190126    12.000000000000
           H          2.065413608201     0.815775287950     0.885224190126     1.007825032070
           H          1.813411608201     1.250566287950    -0.788220809874     1.007825032070
           C          0.442647608201    -1.100407712050    -0.327798809874    12.000000000000
           H         -0.331839391799     0.288298287950     1.134497190126     1.007825032070
           H         -0.629500391799     0.754907287950    -0.518010809874     1.007825032070
           C         -0.781434391799    -2.016675712050    -0.377301809874    12.000000000000
           H          1.189583608201    -1.537947712050     0.332878190126     1.007825032070
           H          0.897855608201    -1.058814712050    -1.316182809874     1.007825032070
           C         -2.103249391799    -1.251422712050    -0.325309809874    12.000000000000
           H         -0.745901391799    -2.614711712050    -1.285213809874     1.007825032070
           H         -0.738526391799    -2.719316712050     0.452222190126     1.007825032070
           H         -2.191474391799    -0.564069712050    -1.162016809874     1.007825032070
           H         -2.951577391799    -1.927846712050    -0.362647809874     1.007825032070
           H         -2.184138391799    -0.669767712050     0.588761190126     1.007825032070

  Charge       = 0
  Multiplicity = 1
  Basis Set: 6-31G*
  Basis Set:

    Orbital Energies (a.u.)
    -----------------------

    Doubly Occupied:

       1A    -15.531922     2A    -11.238531     3A    -11.212509
       4A    -11.211308     5A    -11.207858     6A    -11.204932
       7A     -1.175973     8A     -1.076214     9A     -0.989808
      10A     -0.905471    11A     -0.829310    12A     -0.766503
      13A     -0.665631    14A     -0.639305    15A     -0.613721
      16A     -0.603515    17A     -0.567996    18A     -0.540133
      19A     -0.526359    20A     -0.506589    21A     -0.485953
      22A     -0.458017    23A     -0.453035    24A     -0.443427
      25A     -0.380492

  @DF-RHF Final Energy:  -251.33961690572735

   => Energetics <=

    Nuclear Repulsion Energy =            252.1253145909010129
    One-Electron Energy =                -838.4608127300331262
    Two-Electron Energy =                 334.9958812334047593
    DFT Exchange-Correlation Energy =       0.0000000000000000
    Empirical Dispersion Energy =           0.0000000000000000
    PCM Polarization Energy =               0.0000000000000000
    EFP Energy =                            0.0000000000000000
    Total Energy =                       -251.3396169057273823

  Mulliken Charges: (a.u.)
   Center  Symbol    Alpha    Beta     Spin     Total
       1     H     0.33251  0.33251  0.00000  0.33497
       2     N     3.92209  3.92209  0.00000 -0.84417
       3     C     3.05862  3.05862  0.00000 -0.11723
       4     H     0.33554  0.33554  0.00000  0.32891
       5     C     3.15820  3.15820  0.00000 -0.31640
       6     H     0.42143  0.42143  0.00000  0.15714
       7     H     0.43524  0.43524  0.00000  0.12953
       8     C     3.15843  3.15843  0.00000 -0.31685
       9     H     0.41189  0.41189  0.00000  0.17621
      10     H     0.42424  0.42424  0.00000  0.15152
      11     C     3.15298  3.15298  0.00000 -0.30596
      12     H     0.42066  0.42066  0.00000  0.15867
      13     H     0.42294  0.42294  0.00000  0.15411
      14     C     3.24646  3.24646  0.00000 -0.49293
      15     H     0.42067  0.42067  0.00000  0.15866
      16     H     0.42071  0.42071  0.00000  0.15858
      17     H     0.42190  0.42190  0.00000  0.15621
      18     H     0.41871  0.41871  0.00000  0.16257
      19     H     0.41677  0.41677  0.00000  0.16646

   Total alpha = 25.00000, Total beta = 25.00000, Total charge =  0.00000
