                              Psi4 1.0.54 Driver

  ==> Input File <==

--------------------------------------------------------------------------
set {
	reference rhf
	basis cc-pvtz
}

set_num_threads( 4 )
memory 2 gb

molecule MOL {
0 1

H	 3.506823	 -1.192191	 -0.749183
O	 2.694880	 -1.310191	 -0.279588
C	 1.943090	 -0.227989	 -0.461477
C	 0.626018	 -0.337582	 0.258241
O	 2.306309	 0.686081	 -1.117518
C	 -0.267326	 0.883135	 0.076490
H	 0.152364	 -1.246026	 -0.094235
H	 0.850308	 -0.507183	 1.306747
C	 -1.726822	 0.642622	 0.463839
H	 -0.210803	 1.217591	 -0.953497
H	 0.129920	 1.693110	 0.675679
C	 -2.480891	 -0.340606	 -0.429852
H	 -2.243098	 1.597649	 0.438609
H	 -1.776542	 0.301208	 1.495542
C	 -3.955933	 -0.460128	 -0.060472
H	 -2.393755	 -0.020485	 -1.464726
H	 -2.024244	 -1.323637	 -0.374360
H	 -4.467673	 -1.160944	 -0.709827
H	 -4.458917	 0.497287	 -0.144505
H	 -4.076458	 -0.806900	 0.960497

	symmetry c1
}
set optking {
	frozen_dihedral = ("
		7 4 6 10
	")
}

ee,wfn = optimize('scf', return_wfn=True)
oeprop( wfn, 'DIPOLE', 'QUADRUPOLE', 'MULLIKEN_CHARGES')
f=open( 'psi4out.xyz', 'w' )
f.write( "20  " )
f.write( str(ee) + "\n" )
f.write( MOL.save_string_xyz() )
f.close()
--------------------------------------------------------------------------

    Molecular point group: c1
  Charge       = 0
  Multiplicity = 1
  Basis Set: CC-PVTZ
  Basis Set:
  @DF-RHF Final Energy:  -384.09382978282775
    Total Energy =                       -384.0938297828272425
    Molecular point group: c1
  Basis Set: CC-PVTZ
  Basis Set:
  Basis Set: CC-PVTZ
  Basis Set:
  @DF-RHF Final Energy:  -384.03918204445478
    Total Energy =                       -384.0391820444541509
  Basis Set: CC-PVTZ
  Basis Set:
  Basis Set: CC-PVTZ
  Basis Set:
  @DF-RHF Final Energy:  -384.09161263083280
    Total Energy =                       -384.0916126308327421
  Basis Set: CC-PVTZ
  Basis Set:
  Basis Set: CC-PVTZ
  Basis Set:
  @DF-RHF Final Energy:  -384.09387775931793
    Total Energy =                       -384.0938777593178202
  Basis Set: CC-PVTZ
  Basis Set:
  @DF-RHF Final Energy:  -384.09212385185390
    Total Energy =                       -384.0921238518532732
  @DF-RHF Final Energy:  -384.09378245658172
    Total Energy =                       -384.0937824565820620
  @DF-RHF Final Energy:  -384.09374785969675
    Total Energy =                       -384.0937478596975438
  Basis Set: CC-PVTZ
  Basis Set:
  @DF-RHF Final Energy:  -384.09393536896374
    Total Energy =                       -384.0939353689636846
  Basis Set: CC-PVTZ
  Basis Set:
  Basis Set: CC-PVTZ
  Basis Set:
  @DF-RHF Final Energy:  -384.09408784451034
    Total Energy =                       -384.0940878445107955
  Basis Set: CC-PVTZ
  Basis Set:
  Basis Set: CC-PVTZ
  Basis Set:
  @DF-RHF Final Energy:  -384.09409009266761
    Total Energy =                       -384.0940900926678978
  Basis Set: CC-PVTZ
  Basis Set:
  Charge       = 0
  Multiplicity = 1
  Basis Set: CC-PVTZ
  Basis Set:

    Orbital Energies (a.u.)
    -----------------------

    Doubly Occupied:

       1A    -20.603954     2A    -20.540673     3A    -11.373753
       4A    -11.238464     5A    -11.220761     6A    -11.218837
       7A    -11.217990     8A    -11.210343     9A     -1.477607
      10A     -1.369108    11A     -1.097014    12A     -1.042161
      13A     -0.962485    14A     -0.870681    15A     -0.816650
      16A     -0.779574    17A     -0.703857    18A     -0.693992
      19A     -0.665160    20A     -0.636389    21A     -0.606163
      22A     -0.596545    23A     -0.577161    24A     -0.558158
      25A     -0.537467    26A     -0.513178    27A     -0.496035
      28A     -0.484497    29A     -0.472926    30A     -0.468186
      31A     -0.456989    32A     -0.446881

  @DF-RHF Final Energy:  -384.09409023262378

   => Energetics <=

    Nuclear Repulsion Energy =            376.9082194801080732
    One-Electron Energy =               -1270.0973445099891705
    Two-Electron Energy =                 509.0950347972573127
    DFT Exchange-Correlation Energy =       0.0000000000000000
    Empirical Dispersion Energy =           0.0000000000000000
    PCM Polarization Energy =               0.0000000000000000
    EFP Energy =                            0.0000000000000000
    Total Energy =                       -384.0940902326237847
    Molecular point group: c1
  Basis Set: CC-PVTZ
  Basis Set:

  -Total Gradient:
     Atom            X                  Y                   Z
    ------   -----------------  -----------------  -----------------
       1        0.000004161690    -0.000003518867    -0.000004830265
       2        0.000026959419    -0.000008797907    -0.000002693059
       3       -0.000039295070     0.000032764722     0.000007929115
       4        0.001009671672     0.002235740262    -0.002540864637
       5        0.000007287930    -0.000022569240    -0.000004694904
       6       -0.002515770179    -0.002304174233    -0.000461346653
       7       -0.000423535287    -0.001455821944     0.002178505176
       8       -0.000005301973     0.000001908260    -0.000015974009
       9       -0.000001319883     0.000004108147    -0.000004447048
      10        0.001942673672     0.001517415025     0.000853401358
      11        0.000004544247    -0.000003325029    -0.000001775676
      12       -0.000008763410     0.000015733381    -0.000001357186
      13        0.000001350575    -0.000005569125    -0.000005741755
      14       -0.000000537243     0.000005159681    -0.000004144045
      15       -0.000002015951    -0.000011887197     0.000003181555
      16        0.000001483423    -0.000004623278     0.000005034149
      17       -0.000010106971     0.000007351758     0.000007315059
      18        0.000002322986    -0.000000598346     0.000005941102
      19        0.000009779928    -0.000007901883    -0.000011015598
      20       -0.000003589570     0.000008605817    -0.000002422682

  **** Optimization is complete! (in 11 steps) ****
    Final optimized geometry and variables:
    Molecular point group: c1

    Geometry (in Angstrom), charge = 0, multiplicity = 1:

    H            3.480270396870    -0.220461839147    -1.523650846541
    O            2.790385523194    -0.642796254972    -1.034365029234
    C            1.925386892396     0.287238704285    -0.639143342001
    C            0.793721959422    -0.307092074580     0.153304060675
    O            2.070431306033     1.431413239355    -0.899568515357
    C           -0.224273997487     0.716919676308     0.645146564305
    H            0.339444171013    -1.080493208397    -0.454183348134
    H            1.241152975511    -0.835471840190     0.989551427225
    C           -1.517863574003     0.098933195867     1.176459362593
    H           -0.435657547308     1.425640495293    -0.146275852671
    H            0.237923014717     1.300353623689     1.433691145831
    C           -2.438041217890    -0.486513130547     0.106347311266
    H           -2.064230544890     0.867525538518     1.714667029175
    H           -1.280897318587    -0.669410278259     1.909413511814
    C           -3.734419021092    -1.044542674657     0.684947620616
    H           -2.671080173309     0.285966004251    -0.621106680559
    H           -1.929074873038    -1.274674898723    -0.439226324387
    H           -4.370582875354    -1.447332563276    -0.094601714491
    H           -4.294510334996    -0.274087374408     1.204030065409
    H           -3.535650419600    -1.841288010187     1.394062558576

  Mulliken Charges: (a.u.)
   Center  Symbol    Alpha    Beta     Spin     Total
       1     H     0.38249  0.38249  0.00000  0.23502
       2     O     4.16031  4.16031  0.00000 -0.32063
       3     C     2.80288  2.80288  0.00000  0.39424
       4     C     3.11120  3.11120  0.00000 -0.22239
       5     O     4.19119  4.19119  0.00000 -0.38239
       6     C     3.09494  3.09494  0.00000 -0.18988
       7     H     0.43800  0.43800  0.00000  0.12401
       8     H     0.43657  0.43657  0.00000  0.12686
       9     C     3.09890  3.09890  0.00000 -0.19780
      10     H     0.44157  0.44157  0.00000  0.11686
      11     H     0.44355  0.44355  0.00000  0.11290
      12     C     3.08505  3.08505  0.00000 -0.17011
      13     H     0.44513  0.44513  0.00000  0.10975
      14     H     0.45506  0.45506  0.00000  0.08989
      15     C     3.14989  3.14989  0.00000 -0.29978
      16     H     0.45171  0.45171  0.00000  0.09659
      17     H     0.45537  0.45537  0.00000  0.08926
      18     H     0.44755  0.44755  0.00000  0.10491
      19     H     0.45371  0.45371  0.00000  0.09258
      20     H     0.45494  0.45494  0.00000  0.09011

   Total alpha = 32.00000, Total beta = 32.00000, Total charge =  0.00000

*** Psi4 exiting successfully. Buy a developer a beer!
