  ==> Input File <==

--------------------------------------------------------------------------
set {
	reference rhf
	basis 6-31G*
}

set_num_threads( 4 )
memory 2 gb

molecule MOL {
0 1

H	 3.296126	 -0.451502	 0.007183
C	 2.237029	 -0.265136	 0.005639
C	 1.754431	 0.970573	 -0.407863
C	 1.362785	 -1.257891	 0.415657
H	 2.439377	 1.736076	 -0.724691
C	 0.394887	 1.213253	 -0.411081
H	 1.739781	 -2.212483	 0.734831
C	 -0.000913	 -1.013186	 0.411968
H	 0.001734	 2.161319	 -0.726918
C	 -0.488460	 0.219100	 0.000000
H	 -0.685521	 -1.780903	 0.729570
C	 -1.949954	 0.470334	 0.000000
O	 -2.781584	 -0.381627	 0.000000
H	 -2.238022	 1.526388	 0.000000

	symmetry c1
}
set optking {
	frozen_dihedral = ("
		8 10 12 14
	")
}

ee = optimize('scf')
oeprop('DIPOLE', 'QUADRUPOLE', 'MULLIKEN_CHARGES')
f=open( 'psi4out.xyz', 'w' )
f.write( "14  " )
f.write( str(ee) + "\n" )
f.write( MOL.save_string_xyz() )
f.close()
--------------------------------------------------------------------------

    Molecular point group: c1
  Charge       = 0
  Multiplicity = 1
  Basis Set: 6-31G*
  Basis Set:
  @DF-RHF Final Energy:  -343.43126650854759
    Total Energy =                       -343.4312665085473668
    Molecular point group: c1
  Basis Set: 6-31G*
  Basis Set:
  Basis Set: 6-31G*
  Basis Set:
  @DF-RHF Final Energy:  -343.42939986505417
    Total Energy =                       -343.4293998650543358
  Basis Set: 6-31G*
  Basis Set:
  Basis Set: 6-31G*
  Basis Set:
  @DF-RHF Final Energy:  -343.43158503896376
    Total Energy =                       -343.4315850389638172
  Basis Set: 6-31G*
  Basis Set:
  Basis Set: 6-31G*
  Basis Set:
  @DF-RHF Final Energy:  -343.43166294346679
    Total Energy =                       -343.4316629434668471
  Basis Set: 6-31G*
  Basis Set:
  Basis Set: 6-31G*
  Basis Set:
  @DF-RHF Final Energy:  -343.43166601851505
    Total Energy =                       -343.4316660185147612
  Basis Set: 6-31G*
  Basis Set:
  Charge       = 0
  Multiplicity = 1
  Basis Set: 6-31G*
  Basis Set:

    Orbital Energies (a.u.)
    -----------------------

    Doubly Occupied:

       1A    -20.562672     2A    -11.331476     3A    -11.253781
       4A    -11.250856     5A    -11.247703     6A    -11.246123
       7A    -11.245084     8A    -11.243219     9A     -1.403233
      10A     -1.171061    11A     -1.047103    12A     -1.031407
      13A     -0.889147    14A     -0.843745    15A     -0.790969
      16A     -0.720836    17A     -0.677663    18A     -0.651605
      19A     -0.619390    20A     -0.616649    21A     -0.602443
      22A     -0.552705    23A     -0.526302    24A     -0.506447
      25A     -0.501595    26A     -0.421720    27A     -0.349718
      28A     -0.346767

  @DF-RHF Final Energy:  -343.43166683524458

   => Energetics <=

    Nuclear Repulsion Energy =            323.1581050118905409
    One-Electron Energy =               -1105.8767040316056409
    Two-Electron Energy =                 439.2869321844704587
    DFT Exchange-Correlation Energy =       0.0000000000000000
    Empirical Dispersion Energy =           0.0000000000000000
    PCM Polarization Energy =               0.0000000000000000
    EFP Energy =                            0.0000000000000000
    Total Energy =                       -343.4316668352446982
    Molecular point group: c1
  Basis Set: 6-31G*
  Basis Set:

  -Total Gradient:
     Atom            X                  Y                   Z
    ------   -----------------  -----------------  -----------------
       1        0.000001990089     0.000012052867     0.000005892963
       2       -0.000025402835    -0.000084364963     0.000017196375
       3       -0.000076125990     0.000050302774    -0.000039875459
       4        0.000096657558     0.000045849235    -0.000009287948
       5        0.000009205010    -0.000005380219     0.000007637880
       6        0.000108200555     0.000029457284    -0.000014683063
       7       -0.000008681318    -0.000003733720    -0.000004572827
       8        0.000181443794     0.001189800128     0.002932781001
       9        0.000004263742    -0.000007269342     0.000012728309
      10       -0.000364785897    -0.001713982822    -0.003094698990
      11       -0.000006455687     0.000000227117     0.000012045671
      12        0.000012645668     0.000405639850    -0.003670404216
      13       -0.000002318550     0.000022428297    -0.000011934173
      14        0.000069363862     0.000058973516     0.003857174475

  **** Optimization is complete! (in 6 steps) ****
    Final optimized geometry and variables:
    Molecular point group: c1

    Geometry (in Angstrom), charge = 0, multiplicity = 1:

    H            3.301569319548    -0.429749109256     0.015070718245
    C            2.241762320814    -0.247907276656     0.001748114659
    C            1.759307555990     0.982333051639    -0.413445961797
    C            1.364860314394    -1.245517192279     0.408420643915
    H            2.440638628907     1.753831742048    -0.723073911569
    C            0.393932205568     1.216311941968    -0.418045794569
    H            1.746496416003    -2.194596403605     0.738737117064
    C            0.002619401534    -1.016002803033     0.389872727638
    H            0.014346386124     2.175603031084    -0.726024954505
    C           -0.487732153820     0.215202724318    -0.034280230220
    H           -0.691020170409    -1.776179113745     0.696889336028
    C           -1.947330804348     0.483526830740    -0.013747023339
    O           -2.785360078335    -0.358530078479     0.061225921971
    H           -2.225350939323     1.542000615868    -0.026972858437

  Mulliken Charges: (a.u.)
   Center  Symbol    Alpha    Beta     Spin     Total
       1     H     0.39424  0.39424  0.00000  0.21152
       2     C     3.09161  3.09161  0.00000 -0.18322
       3     C     3.10417  3.10417  0.00000 -0.20834
       4     C     3.10398  3.10398  0.00000 -0.20796
       5     H     0.39472  0.39472  0.00000  0.21056
       6     C     3.10200  3.10200  0.00000 -0.20400
       7     H     0.39402  0.39402  0.00000  0.21195
       8     C     3.08908  3.08908  0.00000 -0.17817
       9     H     0.39276  0.39276  0.00000  0.21448
      10     C     3.05110  3.05110  0.00000 -0.10220
      11     H     0.37819  0.37819  0.00000  0.24363
      12     C     2.83441  2.83441  0.00000  0.33117
      13     O     4.24661  4.24661  0.00000 -0.49322
      14     H     0.42310  0.42310  0.00000  0.15380

   Total alpha = 28.00000, Total beta = 28.00000, Total charge = -0.00000
