  ==> Input File <==

--------------------------------------------------------------------------
set {
	reference rhf
	basis cc-pvtz
}

set_num_threads( 4 )
memory 2 gb

molecule MOL {
0 1

H	 -0.863736	 -1.309059	 -0.276902
O	 -1.432053	 -0.565244	 -0.200812
C	 -0.727158	 0.534527	 0.310686
C	 0.680222	 0.664433	 -0.252229
H	 -1.306802	 1.408001	 0.044211
H	 -0.690821	 0.490158	 1.397609
C	 1.605391	 -0.489360	 0.123098
H	 0.615089	 0.745647	 -1.332226
H	 1.101414	 1.597893	 0.110950
H	 1.247627	 -1.432485	 -0.275204
H	 2.601435	 -0.332816	 -0.273062
H	 1.691776	 -0.589902	 1.200774

	symmetry c1
}
set optking {
	frozen_dihedral = ("
		1 2 3 4
	")
}

ee = optimize('scf')
oeprop('DIPOLE', 'QUADRUPOLE', 'MULLIKEN_CHARGES')
f=open( 'psi4out.xyz', 'w' )
f.write( "12  " )
f.write( str(ee) + "\n" )
f.write( MOL.save_string_xyz() )
f.close()
--------------------------------------------------------------------------

    Molecular point group: c1
  Charge       = 0
  Multiplicity = 1
  Basis Set: CC-PVTZ
  Basis Set:
  @DF-RHF Final Energy:  -193.18943347455004
    Total Energy =                       -193.1894334745500430
    Molecular point group: c1
  Basis Set: CC-PVTZ
  Basis Set:
  Basis Set: CC-PVTZ
  Basis Set:
  @DF-RHF Final Energy:  -193.18948884595659
    Total Energy =                       -193.1894888459566459
  Basis Set: CC-PVTZ
  Basis Set:
  Basis Set: CC-PVTZ
  Basis Set:
  @DF-RHF Final Energy:  -193.18952913525513
    Total Energy =                       -193.1895291352552135
  Basis Set: CC-PVTZ
  Basis Set:
  Basis Set: CC-PVTZ
  Basis Set:
  @DF-RHF Final Energy:  -193.18953035516725
    Total Energy =                       -193.1895303551672214
  Basis Set: CC-PVTZ
  Basis Set:
  Charge       = 0
  Multiplicity = 1
  Basis Set: CC-PVTZ
  Basis Set:

    Orbital Energies (a.u.)
    -----------------------

    Doubly Occupied:

       1A    -20.544427     2A    -11.265454     3A    -11.221871
       4A    -11.219885     5A     -1.363150     6A     -1.054938
       7A     -0.930854     8A     -0.816177     9A     -0.687978
      10A     -0.641502    11A     -0.614242    12A     -0.586419
      13A     -0.550334    14A     -0.510082    15A     -0.494838
      16A     -0.469485    17A     -0.433645

  @DF-RHF Final Energy:  -193.18953064771682

   => Energetics <=

    Nuclear Repulsion Energy =            133.2268525008965412
    One-Electron Energy =                -526.0222071086361666
    Two-Electron Energy =                 199.6058239600228035
    DFT Exchange-Correlation Energy =       0.0000000000000000
    Empirical Dispersion Energy =           0.0000000000000000
    PCM Polarization Energy =               0.0000000000000000
    EFP Energy =                            0.0000000000000000
    Total Energy =                       -193.1895306477168219
    Molecular point group: c1
  Basis Set: CC-PVTZ
  Basis Set:

  -Total Gradient:
     Atom            X                  Y                   Z
    ------   -----------------  -----------------  -----------------
       1        0.000479319945     0.000549157207    -0.001877599966
       2       -0.000385112469    -0.001028648261     0.002721649284
       3       -0.000534007170     0.001221553578    -0.001782308910
       4        0.000433760665    -0.000762613355     0.000932078277
       5        0.000005647161     0.000006892263     0.000003950571
       6        0.000000474258    -0.000000890975    -0.000003644243
       7        0.000003185584     0.000009422619    -0.000003507164
       8       -0.000002058787    -0.000001082569     0.000000362458
       9        0.000003099793    -0.000001517363     0.000005126259
      10       -0.000008235443     0.000008070716    -0.000000796125
      11        0.000005397027     0.000000832299     0.000000119249
      12       -0.000001470566    -0.000001176160     0.000004570311

  **** Optimization is complete! (in 5 steps) ****
    Final optimized geometry and variables:
    Molecular point group: c1

    Geometry (in Angstrom), charge = 0, multiplicity = 1:

    H           -0.896913780193    -1.310290159050    -0.277741067702
    O           -1.451566826149    -0.557623643298    -0.193173505134
    C           -0.727686630867     0.530621898131     0.315822094295
    C            0.678936219119     0.655966111324    -0.250021745529
    H           -1.301117719183     1.414246800971     0.069957285928
    H           -0.677115923224     0.467644675499     1.401571731101
    C            1.612510334606    -0.489226554022     0.135366414407
    H            0.618102303444     0.734845567960    -1.331062174737
    H            1.098256266298     1.590763166968     0.109615184720
    H            1.277716100963    -1.443609726120    -0.258900739776
    H            2.608530549090    -0.321756356291    -0.256010909803
    H            1.690539605984    -0.585315473739     1.213116213341

  Mulliken Charges: (a.u.)
   Center  Symbol    Alpha    Beta     Spin     Total
       1     H     0.39213  0.39213  0.00000  0.21574
       2     O     4.20624  4.20624  0.00000 -0.41249
       3     C     2.96165  2.96165  0.00000  0.07670
       4     C     3.09562  3.09562  0.00000 -0.19124
       5     H     0.45481  0.45481  0.00000  0.09037
       6     H     0.47564  0.47564  0.00000  0.04872
       7     C     3.15018  3.15018  0.00000 -0.30036
       8     H     0.44944  0.44944  0.00000  0.10112
       9     H     0.45478  0.45478  0.00000  0.09043
      10     H     0.46328  0.46328  0.00000  0.07344
      11     H     0.44468  0.44468  0.00000  0.11064
      12     H     0.45153  0.45153  0.00000  0.09693

   Total alpha = 17.00000, Total beta = 17.00000, Total charge = -0.00000
