  ==> Input File <==

--------------------------------------------------------------------------
set {
	reference rhf
	basis 6-31G*
}

set_num_threads( 4 )
memory 2 gb

molecule MOL {
0 1

H	 -3.161837	 0.500524	 -0.000234
C	 -2.367097	 -0.232926	 -0.000000
O	 -1.158440	 0.455814	 -0.000122
H	 -2.468853	 -0.861886	 -0.882833
H	 -2.468942	 -0.861421	 0.883154
C	 -0.029776	 -0.365156	 0.000148
C	 1.024166	 0.250154	 -0.903877
H	 -0.292312	 -1.364376	 -0.349899
H	 0.356839	 -0.471466	 1.014611
C	 2.301812	 -0.585761	 -0.965120
H	 0.601924	 0.362911	 -1.897687
H	 1.246616	 1.249552	 -0.542744
H	 2.104871	 -1.583429	 -1.347606
H	 3.036093	 -0.123543	 -1.616297
H	 2.753858	 -0.691122	 0.017202

	symmetry c1
}
set optking {
	frozen_dihedral = ("
		8 6 3 2
	")
}

ee = optimize('scf')
oeprop('DIPOLE', 'QUADRUPOLE', 'MULLIKEN_CHARGES')
f=open( 'psi4out.xyz', 'w' )
f.write( "15  " )
f.write( str(ee) + "\n" )
f.write( MOL.save_string_xyz() )
f.close()
--------------------------------------------------------------------------

    Molecular point group: c1
  Charge       = 0
  Multiplicity = 1
  Basis Set: 6-31G*
  Basis Set:
  @DF-RHF Final Energy:  -232.13645384618064
    Total Energy =                       -232.1364538461806433
    Molecular point group: c1
  Basis Set: 6-31G*
  Basis Set:
  Basis Set: 6-31G*
  Basis Set:
  @DF-RHF Final Energy:  -232.13663506070571
    Total Energy =                       -232.1366350607058848
  Basis Set: 6-31G*
  Basis Set:
  Basis Set: 6-31G*
  Basis Set:
  @DF-RHF Final Energy:  -232.13670156326390
    Total Energy =                       -232.1367015632638413
  Basis Set: 6-31G*
  Basis Set:
  Charge       = 0
  Multiplicity = 1
  Basis Set: 6-31G*
  Basis Set:

    Orbital Energies (a.u.)
    -----------------------

    Doubly Occupied:

       1A    -20.550916     2A    -11.265930     3A    -11.264587
       4A    -11.214191     5A    -11.212911     6A     -1.374639
       7A     -1.056850     8A     -0.955821     9A     -0.878094
      10A     -0.808918    11A     -0.671365    12A     -0.652927
      13A     -0.632350    14A     -0.603814    15A     -0.567719
      16A     -0.540242    17A     -0.503043    18A     -0.491073
      19A     -0.479932    20A     -0.462656    21A     -0.407247

  @DF-RHF Final Energy:  -232.13670218354017

   => Energetics <=

    Nuclear Repulsion Energy =            189.7142736615835759
    One-Electron Energy =                -690.5114998164553981
    Two-Electron Energy =                 268.6605239713318269
    DFT Exchange-Correlation Energy =       0.0000000000000000
    Empirical Dispersion Energy =           0.0000000000000000
    PCM Polarization Energy =               0.0000000000000000
    EFP Energy =                            0.0000000000000000
    Total Energy =                       -232.1367021835400237
    Molecular point group: c1
  Basis Set: 6-31G*
  Basis Set:

  -Total Gradient:
     Atom            X                  Y                   Z
    ------   -----------------  -----------------  -----------------
       1       -0.000022353139    -0.000007342827     0.000000908608
       2       -0.000139004375     0.000039469180    -0.002134883637
       3        0.000001379493    -0.000277947519     0.003760559176
       4        0.000040633895     0.000009827025     0.000010025179
       5        0.000025641717     0.000009531392    -0.000016350776
       6        0.000524214425     0.001011058436    -0.004128870094
       7        0.000002872589    -0.000002356974     0.000040800785
       8       -0.000469894464    -0.000785717668     0.002482005636
       9        0.000018060328     0.000014701586    -0.000010051801
      10        0.000012341848    -0.000001477222    -0.000005087661
      11       -0.000012731190    -0.000010041493     0.000015246750
      12        0.000001253345     0.000004838032    -0.000006369876
      13        0.000005745811     0.000005364882     0.000002497660
      14        0.000018381323    -0.000006812174    -0.000004788747
      15       -0.000006541605    -0.000003094657    -0.000005641202

  **** Optimization is complete! (in 4 steps) ****
    Final optimized geometry and variables:
    Molecular point group: c1

    Geometry (in Angstrom), charge = 0, multiplicity = 1:

    H           -3.085798464858     0.642785206479     0.402323455579
    C           -2.310775170579    -0.111612971106     0.390447765488
    O           -1.085437680045     0.547849706413     0.371812364160
    H           -2.441161440568    -0.735276144174    -0.491687164463
    H           -2.420635210330    -0.737483358918     1.274325528256
    C            0.045611797512    -0.277520971949     0.336962627265
    C            1.105299348360     0.349331245715    -0.553318217827
    H           -0.218071817357    -1.272295013795    -0.018310146155
    H            0.430088359202    -0.402679624204     1.348552563360
    C            2.399396022654    -0.462701642576    -0.584421977990
    H            0.700291972098     0.450419375604    -1.555997291056
    H            1.302836519715     1.354694878658    -0.194031800940
    H            2.228671366597    -1.467048161131    -0.962539291981
    H            3.137730248987     0.007779317305    -1.225108660449
    H            2.833836984023    -0.552435793132     0.407267439945

  Mulliken Charges: (a.u.)
   Center  Symbol    Alpha    Beta     Spin     Total
       1     H     0.41299  0.41299  0.00000  0.17403
       2     C     3.07915  3.07915  0.00000 -0.15830
       3     O     4.30817  4.30817  0.00000 -0.61634
       4     H     0.43011  0.43011  0.00000  0.13977
       5     H     0.43041  0.43041  0.00000  0.13918
       6     C     2.98255  2.98255  0.00000  0.03489
       7     C     3.15835  3.15835  0.00000 -0.31670
       8     H     0.43299  0.43299  0.00000  0.13403
       9     H     0.42842  0.42842  0.00000  0.14316
      10     C     3.24862  3.24862  0.00000 -0.49725
      11     H     0.41774  0.41774  0.00000  0.16452
      12     H     0.41329  0.41329  0.00000  0.17342
      13     H     0.42156  0.42156  0.00000  0.15688
      14     H     0.41547  0.41547  0.00000  0.16905
      15     H     0.42017  0.42017  0.00000  0.15966

   Total alpha = 21.00000, Total beta = 21.00000, Total charge =  0.00000
