                              Psi4 1.0.54 Driver

  ==> Input File <==

--------------------------------------------------------------------------
set {
	reference rhf
	basis cc-pvtz
}

set_num_threads( 4 )
memory 2 gb

molecule MOL {
0 1

H	 -2.816458	 -0.841657	 -0.064679
N	 -1.878861	 -0.711874	 0.250184
C	 -1.341419	 0.551458	 -0.220231
H	 -1.333674	 -1.468530	 -0.105118
C	 0.082190	 0.731516	 0.254705
H	 -1.357065	 0.652078	 -1.304747
H	 -1.939897	 1.357530	 0.189797
O	 0.939667	 0.088672	 -0.639270
H	 0.323026	 1.792394	 0.306755
H	 0.191618	 0.307832	 1.250419
C	 2.280104	 0.121935	 -0.276858
H	 2.843207	 -0.399087	 -1.037671
H	 2.648262	 1.143421	 -0.208142
H	 2.445956	 -0.368366	 0.679521

	symmetry c1
}
set optking {
	frozen_dihedral = ("
		8 5 3 6
	")
}

ee,wfn = optimize('scf', return_wfn=True)
oeprop( wfn, 'DIPOLE', 'QUADRUPOLE', 'MULLIKEN_CHARGES')
f=open( 'psi4out.xyz', 'w' )
f.write( "14  " )
f.write( str(ee) + "\n" )
f.write( MOL.save_string_xyz() )
f.close()
--------------------------------------------------------------------------

    Molecular point group: c1
  Charge       = 0
  Multiplicity = 1
  Basis Set: CC-PVTZ
  Basis Set:
  @DF-RHF Final Energy:  -248.22400407649224
    Total Energy =                       -248.2240040764921787
    Molecular point group: c1
  Basis Set: CC-PVTZ
  Basis Set:
  Basis Set: CC-PVTZ
  Basis Set:
  @DF-RHF Final Energy:  -248.22425142556605
    Total Energy =                       -248.2242514255658534
  Basis Set: CC-PVTZ
  Basis Set:
  Basis Set: CC-PVTZ
  Basis Set:
  @DF-RHF Final Energy:  -248.22430147875511
    Total Energy =                       -248.2243014787551942
  Basis Set: CC-PVTZ
  Basis Set:
  Basis Set: CC-PVTZ
  Basis Set:
  @DF-RHF Final Energy:  -248.22430286116796
    Total Energy =                       -248.2243028611680984
  Basis Set: CC-PVTZ
  Basis Set:
  Charge       = 0
  Multiplicity = 1
  Basis Set: CC-PVTZ
  Basis Set:

    Orbital Energies (a.u.)
    -----------------------

    Doubly Occupied:

       1A    -20.550392     2A    -15.525699     3A    -11.263366
       4A    -11.263295     5A    -11.239951     6A     -1.383798
       7A     -1.176750     8A     -1.000191     9A     -0.905453
      10A     -0.818560    11A     -0.684778    12A     -0.674017
      13A     -0.648327    14A     -0.615889    15A     -0.602166
      16A     -0.546865    17A     -0.526814    18A     -0.499428
      19A     -0.473446    20A     -0.420370    21A     -0.385156

  @DF-RHF Final Energy:  -248.22430298510216

   => Energetics <=

    Nuclear Repulsion Energy =            193.5862757259451996
    One-Electron Energy =                -721.2117360542277993
    Two-Electron Energy =                 279.4011573431803299
    DFT Exchange-Correlation Energy =       0.0000000000000000
    Empirical Dispersion Energy =           0.0000000000000000
    PCM Polarization Energy =               0.0000000000000000
    EFP Energy =                            0.0000000000000000
    Total Energy =                       -248.2243029851022129
    Molecular point group: c1
  Basis Set: CC-PVTZ
  Basis Set:

  -Total Gradient:
     Atom            X                  Y                   Z
    ------   -----------------  -----------------  -----------------
       1       -0.000010547443    -0.000002508513    -0.000005262324
       2       -0.000000727626    -0.000012599399     0.000012488538
       3       -0.000831137295     0.006899354098    -0.000183245056
       4        0.000003239472    -0.000007408530     0.000000362149
       5       -0.000199242014    -0.005240884288     0.002678203302
       6        0.000742261606    -0.004861660684    -0.000378668586
       7        0.000011307961    -0.000006852347    -0.000000609237
       8        0.000284571142     0.003219487683    -0.002126717879
       9        0.000003353557     0.000003643517    -0.000001486776
      10       -0.000000665790     0.000002133489    -0.000000118346
      11        0.000004914322     0.000012111852     0.000009023868
      12       -0.000011461581     0.000000970799    -0.000001112897
      13        0.000004375545    -0.000002010346    -0.000002273776
      14       -0.000000241854    -0.000003777329    -0.000000582982

  **** Optimization is complete! (in 5 steps) ****
    Final optimized geometry and variables:
    Molecular point group: c1

    Geometry (in Angstrom), charge = 0, multiplicity = 1:

    H           -2.840600564798    -0.982764014609     0.063881964516
    N           -1.897595408017    -0.860869257583     0.367251456821
    C           -1.371895717377     0.422286699956    -0.079136880685
    H           -1.364081517249    -1.605233866325    -0.031884681274
    C            0.058132792049     0.603095778685     0.388102704163
    H           -1.376934510221     0.508335612100    -1.163217147415
    H           -1.988153280343     1.208986723294     0.337757155995
    O            0.909823094523    -0.058099007554    -0.499897691903
    H            0.310960643095     1.662459094707     0.409196109832
    H            0.168370273957     0.209228517326     1.394869213900
    C            2.251345265916    -0.022777426617    -0.142132650379
    H            2.811227142590    -0.551897711569    -0.899740800537
    H            2.620458284996     0.999218326038    -0.085075141070
    H            2.421423735856    -0.502886861433     0.818778074901

  Mulliken Charges: (a.u.)
   Center  Symbol    Alpha    Beta     Spin     Total
       1     H     0.43007  0.43007  0.00000  0.13985
       2     N     3.69518  3.69518  0.00000 -0.39035
       3     C     3.02194  3.02194  0.00000 -0.04387
       4     H     0.42497  0.42497  0.00000  0.15007
       5     C     2.97316  2.97316  0.00000  0.05369
       6     H     0.46159  0.46159  0.00000  0.07682
       7     H     0.45719  0.45719  0.00000  0.08561
       8     O     4.17776  4.17776  0.00000 -0.35552
       9     H     0.47017  0.47017  0.00000  0.05966
      10     H     0.46682  0.46682  0.00000  0.06635
      11     C     3.03178  3.03178  0.00000 -0.06356
      12     H     0.44758  0.44758  0.00000  0.10484
      13     H     0.47171  0.47171  0.00000  0.05659
      14     H     0.47009  0.47009  0.00000  0.05983

   Total alpha = 21.00000, Total beta = 21.00000, Total charge = -0.00000

*** Psi4 exiting successfully. Buy a developer a beer!
