  ==> Input File <==

--------------------------------------------------------------------------
set {
	reference rhf
	basis 6-31G*
}

set_num_threads( 4 )
memory 2 gb

molecule MOL {
0 1

H	 2.230280	 -1.068119	 0.905445
O	 2.016064	 -0.864478	 0.000222
C	 1.050492	 0.053836	 0.000068
C	 -0.318135	 -0.576402	 0.000164
O	 1.285279	 1.218255	 -0.000078
C	 -1.454360	 0.441875	 -0.000474
H	 -0.374042	 -1.230163	 -0.866135
H	 -0.374274	 -1.229227	 0.867154
C	 -2.826123	 -0.230780	 0.000056
H	 -1.357605	 1.085198	 -0.868380
H	 -1.357504	 1.086451	 0.866496
H	 -2.959731	 -0.858053	 -0.876869
H	 -3.619374	 0.509403	 -0.000080
H	 -2.959371	 -0.857318	 0.877556

	symmetry c1
}
set optking {
	frozen_dihedral = ("
		1 2 3 5
	")
}

ee = optimize('scf')
oeprop('DIPOLE', 'QUADRUPOLE', 'MULLIKEN_CHARGES')
f=open( 'psi4out.xyz', 'w' )
f.write( "14  " )
f.write( str(ee) + "\n" )
f.write( MOL.save_string_xyz() )
f.close()
--------------------------------------------------------------------------

    Molecular point group: c1
  Charge       = 0
  Multiplicity = 1
  Basis Set: 6-31G*
  Basis Set:
  @DF-RHF Final Energy:  -305.85768473888709
    Total Energy =                       -305.8576847388872579
    Molecular point group: c1
  Basis Set: 6-31G*
  Basis Set:
  Basis Set: 6-31G*
  Basis Set:
  @DF-RHF Final Energy:  -305.85829044865488
    Total Energy =                       -305.8582904486549978
  Basis Set: 6-31G*
  Basis Set:
  Basis Set: 6-31G*
  Basis Set:
  @DF-RHF Final Energy:  -305.85796414554642
    Total Energy =                       -305.8579641455462479
  Basis Set: 6-31G*
  Basis Set:
  Basis Set: 6-31G*
  Basis Set:
  @DF-RHF Final Energy:  -305.85944641428608
    Total Energy =                       -305.8594464142861398
  Basis Set: 6-31G*
  Basis Set:
  Basis Set: 6-31G*
  Basis Set:
  @DF-RHF Final Energy:  -305.85945879572586
    Total Energy =                       -305.8594587957258568
  Basis Set: 6-31G*
  Basis Set:
  Charge       = 0
  Multiplicity = 1
  Basis Set: 6-31G*
  Basis Set:

    Orbital Energies (a.u.)
    -----------------------

    Doubly Occupied:

       1A    -20.594103     2A    -20.563145     3A    -11.381925
       4A    -11.243540     5A    -11.227134     6A    -11.218807
       7A     -1.460297     8A     -1.367555     9A     -1.083312
      10A     -0.976612    11A     -0.851645    12A     -0.797734
      13A     -0.711161    14A     -0.675130    15A     -0.662590
      16A     -0.629555    17A     -0.579142    18A     -0.559219
      19A     -0.541775    20A     -0.505143    21A     -0.498103
      22A     -0.484028    23A     -0.481385    24A     -0.444521

  @DF-RHF Final Energy:  -305.85945964236043

   => Energetics <=

    Nuclear Repulsion Energy =            239.1051730942138249
    One-Electron Energy =                -890.8541367003119831
    Two-Electron Energy =                 345.8895039637377522
    DFT Exchange-Correlation Energy =       0.0000000000000000
    Empirical Dispersion Energy =           0.0000000000000000
    PCM Polarization Energy =               0.0000000000000000
    EFP Energy =                            0.0000000000000000
    Total Energy =                       -305.8594596423604344
    Molecular point group: c1
  Basis Set: 6-31G*
  Basis Set:

  -Total Gradient:
     Atom            X                  Y                   Z
    ------   -----------------  -----------------  -----------------
       1       -0.001777809350    -0.001950943980     0.000090740625
       2        0.002079453736     0.002556848674    -0.001142733512
       3       -0.000197780313    -0.000538084901     0.003336967414
       4       -0.000000906526     0.000027560092     0.000000714526
       5       -0.000078633704    -0.000054783692    -0.002299274454
       6       -0.000005658972    -0.000002290969     0.000006836861
       7       -0.000010169387    -0.000008427116     0.000005372113
       8       -0.000018863728    -0.000010656925     0.000005222485
       9        0.000002264484    -0.000004810651    -0.000002722930
      10        0.000003167365    -0.000002940560     0.000000978146
      11        0.000007557455    -0.000008888619    -0.000002781694
      12       -0.000002042208    -0.000003062391    -0.000001927132
      13        0.000002022525     0.000000324058    -0.000001037370
      14       -0.000002601387     0.000000156977     0.000003644922

  **** Optimization is complete! (in 6 steps) ****
    Final optimized geometry and variables:
    Molecular point group: c1

    Geometry (in Angstrom), charge = 0, multiplicity = 1:

    H            2.355385483044    -1.079940494663     0.862516518898
    O            2.057548431428    -0.863336117856    -0.012691196410
    C            1.055329755852     0.060133311641     0.011019788672
    C           -0.319804485545    -0.560280611906     0.004545324390
    O            1.279924789697     1.217459488712    -0.026625082368
    C           -1.458124764279     0.454998772019    -0.007706618874
    H           -0.365619869433    -1.217060638056    -0.860527339722
    H           -0.389280405466    -1.217179500267     0.869678373687
    C           -2.829638436572    -0.218203876626    -0.021120395323
    H           -1.351926619376     1.097117868259    -0.875273117429
    H           -1.371717998711     1.101406374941     0.859472927635
    H           -2.952950142581    -0.846892780230    -0.898444649882
    H           -3.623260317069     0.521473600928    -0.031434849622
    H           -2.972863611608    -0.843427339149     0.855897196594

  Mulliken Charges: (a.u.)
   Center  Symbol    Alpha    Beta     Spin     Total
       1     H     0.26621  0.26621  0.00000  0.46757
       2     O     4.37018  4.37018  0.00000 -0.74036
       3     C     2.63029  2.63029  0.00000  0.73943
       4     C     3.20903  3.20903  0.00000 -0.41806
       5     O     4.24508  4.24508  0.00000 -0.49016
       6     C     3.15262  3.15262  0.00000 -0.30525
       7     H     0.39695  0.39695  0.00000  0.20611
       8     H     0.41008  0.41008  0.00000  0.17984
       9     C     3.24286  3.24286  0.00000 -0.48572
      10     H     0.40849  0.40849  0.00000  0.18301
      11     H     0.41208  0.41208  0.00000  0.17583
      12     H     0.42021  0.42021  0.00000  0.15958
      13     H     0.41408  0.41408  0.00000  0.17184
      14     H     0.42182  0.42182  0.00000  0.15636

   Total alpha = 24.00000, Total beta = 24.00000, Total charge = -0.00000
