  ==> Input File <==

--------------------------------------------------------------------------
set {
	reference rhf
	basis cc-pvtz
}

set_num_threads( 4 )
memory 2 gb

molecule MOL {
0 1

H	 -1.791000	 -2.035000	 0.004000
C	 -1.215000	 -1.126000	 0.002000
N	 -1.905000	 -0.000000	 0.007000
C	 0.168000	 -1.183000	 -0.008000
C	 -1.215000	 1.126000	 0.002000
H	 0.665000	 -2.137000	 -0.015000
C	 0.894000	 -0.000000	 -0.011000
H	 -1.791000	 2.035000	 0.004000
C	 0.168000	 1.183000	 -0.008000
C	 2.402000	 0.000000	 0.007000
H	 0.665000	 2.137000	 -0.015000
H	 2.802000	 -0.879000	 -0.486000
H	 2.802000	 0.879000	 -0.486000
H	 2.769000	 -0.000000	 1.030000

	symmetry c1
}
ee = optimize('scf')
oeprop('DIPOLE', 'QUADRUPOLE', 'MULLIKEN_CHARGES')
f=open( 'psi4out.xyz', 'w' )
f.write( "14  " )
f.write( str(ee) + "\n" )
f.write( MOL.save_string_xyz() )
f.close()
--------------------------------------------------------------------------

    Molecular point group: c1
  Charge       = 0
  Multiplicity = 1
  Basis Set: CC-PVTZ
  Basis Set:
  @DF-RHF Final Energy:  -285.82976676452631
    Total Energy =                       -285.8297667645264823
    Molecular point group: c1
  Basis Set: CC-PVTZ
  Basis Set:
  Basis Set: CC-PVTZ
  Basis Set:
  @DF-RHF Final Energy:  -285.82987574910834
    Total Energy =                       -285.8298757491081687
  Basis Set: CC-PVTZ
  Basis Set:
  Charge       = 0
  Multiplicity = 1
  Basis Set: CC-PVTZ
  Basis Set:

    Orbital Energies (a.u.)
    -----------------------

    Doubly Occupied:

       1A    -15.550616     2A    -11.263378     3A    -11.263360
       4A    -11.259200     5A    -11.231941     6A    -11.227601
       7A    -11.227565     8A     -1.263908     9A     -1.110813
      10A     -1.032539    11A     -0.971724    12A     -0.858878
      13A     -0.824743    14A     -0.698126    15A     -0.674447
      16A     -0.647952    17A     -0.594924    18A     -0.592862
      19A     -0.561489    20A     -0.547786    21A     -0.533289
      22A     -0.507437    23A     -0.410368    24A     -0.369904
      25A     -0.345348

  @DF-RHF Final Energy:  -285.82987920806374

   => Energetics <=

    Nuclear Repulsion Energy =            274.5095428559031916
    One-Electron Energy =                -929.5384489920854776
    Two-Electron Energy =                 369.1990269281183714
    DFT Exchange-Correlation Energy =       0.0000000000000000
    Empirical Dispersion Energy =           0.0000000000000000
    PCM Polarization Energy =               0.0000000000000000
    EFP Energy =                            0.0000000000000000
    Total Energy =                       -285.8298792080639146
    Molecular point group: c1
  Basis Set: CC-PVTZ
  Basis Set:

  -Total Gradient:
     Atom            X                  Y                   Z
    ------   -----------------  -----------------  -----------------
       1        0.000011394559     0.000010151211     0.000001242215
       2       -0.000095272748    -0.000011526515    -0.000110369139
       3        0.000041407781    -0.000002594529    -0.000000000391
       4        0.000060716714     0.000006807464    -0.000012659226
       5       -0.000095280207    -0.000011526850     0.000110376581
       6        0.000020273135     0.000003776966     0.000027320501
       7       -0.000003339907    -0.000022913110     0.000000007021
       8        0.000011393657     0.000010151165    -0.000001245390
       9        0.000060713869     0.000006807965     0.000012659711
      10       -0.000004151032     0.000008543777     0.000000005205
      11        0.000020279134     0.000003777135    -0.000027332058
      12       -0.000009913136     0.000011542247     0.000018975227
      13       -0.000009911171     0.000011544833    -0.000018980123
      14       -0.000008310648    -0.000024541759    -0.000000000132

  **** Optimization is complete! (in 3 steps) ****
    Final optimized geometry and variables:
    Molecular point group: c1

    Geometry (in Angstrom), charge = 0, multiplicity = 1:

    H            1.720584422861     0.004475270142    -2.032429147601
    C            1.146959420468     0.002740525339    -1.123416357953
    N            1.834519187067     0.008318717099     0.000000002107
    C           -0.232321594892    -0.007588743979    -1.179906375725
    C            1.146959416767     0.002740524751     1.123416359075
    H           -0.727473057085    -0.015288185580    -2.131932721154
    C           -0.957024488225    -0.010724198425    -0.000000000810
    H            1.720584417241     0.004475268198     2.032429147819
    C           -0.232321597572    -0.007588742221     1.179906370566
    C           -2.462150294194     0.007458651575     0.000000002824
    H           -0.727473057462    -0.015288182933     2.131932708051
    H           -2.859578381431    -0.484465551392    -0.877813741989
    H           -2.859578375194    -0.484465551013     0.877813745158
    H           -2.825861471673     1.029309873925     0.000000004529

  Mulliken Charges: (a.u.)
   Center  Symbol    Alpha    Beta     Spin     Total
       1     H     0.42014  0.42014  0.00000  0.15972
       2     C     3.04917  3.04917  0.00000 -0.09833
       3     N     3.60362  3.60362  0.00000 -0.20724
       4     C     3.08329  3.08329  0.00000 -0.16658
       5     C     3.04917  3.04917  0.00000 -0.09833
       6     H     0.41646  0.41646  0.00000  0.16709
       7     C     2.97299  2.97299  0.00000  0.05402
       8     H     0.42014  0.42014  0.00000  0.15972
       9     C     3.08329  3.08329  0.00000 -0.16658
      10     C     3.14507  3.14507  0.00000 -0.29013
      11     H     0.41646  0.41646  0.00000  0.16709
      12     H     0.44783  0.44783  0.00000  0.10435
      13     H     0.44783  0.44783  0.00000  0.10435
      14     H     0.44456  0.44456  0.00000  0.11088

   Total alpha = 25.00000, Total beta = 25.00000, Total charge = -0.00000
