  ==> Input File <==

--------------------------------------------------------------------------
set {
	reference rhf
	basis 6-31G*
}

set_num_threads( 1 )
memory 2 gb

molecule MOL {
0 1

H	 -2.480931	 -0.565790	 0.975890
O	 -2.347518	 -0.290803	 0.079804
C	 -1.184022	 0.487508	 -0.006784
C	 0.062599	 -0.378592	 0.031606
H	 -1.176523	 1.099369	 -0.904519
H	 -1.187323	 1.153111	 0.844927
O	 1.171513	 0.459272	 -0.058250
H	 0.050699	 -1.089204	 -0.797170
H	 0.078739	 -0.954914	 0.954740
C	 2.397842	 -0.198080	 -0.002151
H	 2.508049	 -0.905315	 -0.822092
H	 3.173794	 0.550865	 -0.078850
H	 2.517602	 -0.735921	 0.936026

	symmetry c1
}
set optking {
	frozen_dihedral = ("
		8 4 3 5,
		10 7 4 8,
		4 7 10 13
	")
}

ee = energy('scf')
oeprop('DIPOLE', 'QUADRUPOLE', 'MULLIKEN_CHARGES')
f=open( 'psi4out.xyz', 'w' )
f.write( "13  " )
f.write( str(ee) + "\n" )
f.write( MOL.save_string_xyz() )
f.close()
--------------------------------------------------------------------------

    Molecular point group: c1

    Geometry (in Angstrom), charge = 0, multiplicity = 1:

       Center              X                  Y                   Z               Mass
    ------------   -----------------  -----------------  -----------------  -----------------
           H         -2.481171592893    -0.567966803536     0.953084206863     1.007825032070
           O         -2.347758592893    -0.292979803536     0.056998206863    15.994914619560
           C         -1.184262592893     0.485331196464    -0.029589793137    12.000000000000
           C          0.062358407107    -0.380768803536     0.008800206863    12.000000000000
           H         -1.176763592893     1.097192196464    -0.927324793137     1.007825032070
           H         -1.187563592893     1.150934196464     0.822121206863     1.007825032070
           O          1.171272407107     0.457095196464    -0.081055793137    15.994914619560
           H          0.050458407107    -1.091380803536    -0.819975793137     1.007825032070
           H          0.078498407107    -0.957090803536     0.931934206863     1.007825032070
           C          2.397601407107    -0.200256803536    -0.024956793137    12.000000000000
           H          2.507808407107    -0.907491803536    -0.844897793137     1.007825032070
           H          3.173553407107     0.548688196464    -0.101655793137     1.007825032070
           H          2.517361407107    -0.738097803536     0.913220206863     1.007825032070

  Charge       = 0
  Multiplicity = 1
  Basis Set: 6-31G*
  Basis Set:

    Orbital Energies (a.u.)
    -----------------------

    Doubly Occupied:

       1A    -20.562328     2A    -20.558667     3A    -11.270623
       4A    -11.270257     5A    -11.269609     6A     -1.388802
       7A     -1.364827     8A     -1.018441     9A     -0.913096
      10A     -0.841014    11A     -0.708532    12A     -0.675416
      13A     -0.659502    14A     -0.640031    15A     -0.598111
      16A     -0.567478    17A     -0.547560    18A     -0.487590
      19A     -0.480196    20A     -0.437590    21A     -0.421815

  @DF-RHF Final Energy:  -267.94881744575900

   => Energetics <=

    Nuclear Repulsion Energy =            190.2384857223459846
    One-Electron Energy =                -743.0116628160735672
    Two-Electron Energy =                 284.8243596479687199
    DFT Exchange-Correlation Energy =       0.0000000000000000
    Empirical Dispersion Energy =           0.0000000000000000
    PCM Polarization Energy =               0.0000000000000000
    EFP Energy =                            0.0000000000000000
    Total Energy =                       -267.9488174457588343

  Mulliken Charges: (a.u.)
   Center  Symbol    Alpha    Beta     Spin     Total
       1     H     0.27996  0.27996  0.00000  0.44009
       2     O     4.37196  4.37196  0.00000 -0.74393
       3     C     3.00497  3.00497  0.00000 -0.00995
       4     C     2.99535  2.99535  0.00000  0.00930
       5     H     0.40749  0.40749  0.00000  0.18502
       6     H     0.42415  0.42415  0.00000  0.15170
       7     O     4.30756  4.30756  0.00000 -0.61512
       8     H     0.42381  0.42381  0.00000  0.15237
       9     H     0.43704  0.43704  0.00000  0.12592
      10     C     3.07996  3.07996  0.00000 -0.15993
      11     H     0.42783  0.42783  0.00000  0.14434
      12     H     0.41074  0.41074  0.00000  0.17851
      13     H     0.42917  0.42917  0.00000  0.14165

   Total alpha = 21.00000, Total beta = 21.00000, Total charge = -0.00000
