                              Psi4 1.0.54 Driver

  ==> Input File <==

--------------------------------------------------------------------------
set {
	reference rhf
	basis cc-pvtz
}

set_num_threads( 4 )
memory 2 gb

molecule MOL {
0 1

H	 -3.264913	 1.574876	 0.552401
C	 -3.285688	 0.815426	 -0.241130
C	 -2.311350	 1.045780	 -1.364292
O	 -4.043525	 -0.089290	 -0.174208
C	 -0.880004	 1.274634	 -0.869773
H	 -2.368504	 0.208024	 -2.047105
H	 -2.652467	 1.932596	 -1.893915
C	 -0.247837	 0.040196	 -0.230469
H	 -0.274118	 1.595525	 -1.710172
H	 -0.871855	 2.098336	 -0.160095
C	 1.181757	 0.280428	 0.247371
H	 -0.256848	 -0.775262	 -0.948837
H	 -0.854798	 -0.291859	 0.607843
C	 2.151032	 -0.811012	 -0.202643
H	 1.515939	 1.247397	 -0.115449
H	 1.191514	 0.341223	 1.333422
C	 3.580021	 -0.656538	 0.320835
H	 2.170545	 -0.847575	 -1.289412
H	 1.766632	 -1.772905	 0.124928
C	 4.327657	 0.562694	 -0.213579
H	 4.138806	 -1.549270	 0.057813
H	 3.561991	 -0.620783	 1.406976
H	 4.355973	 0.557257	 -1.298551
H	 3.867136	 1.491650	 0.100501
H	 5.351524	 0.571613	 0.142204

	symmetry c1
}
set optking {
	frozen_dihedral = ("
		12 8 11 14
	")
}

ee,wfn = optimize('scf', return_wfn=True)
oeprop( wfn, 'DIPOLE', 'QUADRUPOLE', 'MULLIKEN_CHARGES')
f=open( 'psi4out.xyz', 'w' )
f.write( "25  " )
f.write( str(ee) + "\n" )
f.write( MOL.save_string_xyz() )
f.close()
--------------------------------------------------------------------------

    Molecular point group: c1
  Charge       = 0
  Multiplicity = 1
  Basis Set: CC-PVTZ
  Basis Set:
  @DF-RHF Final Energy:  -387.25533901647287
    Total Energy =                       -387.2553390164725897
    Molecular point group: c1
  Basis Set: CC-PVTZ
  Basis Set:
  Basis Set: CC-PVTZ
  Basis Set:
  @DF-RHF Final Energy:  -387.25557176785486
    Total Energy =                       -387.2555717678545761
  Basis Set: CC-PVTZ
  Basis Set:
  Basis Set: CC-PVTZ
  Basis Set:
  @DF-RHF Final Energy:  -387.25562504665032
    Total Energy =                       -387.2556250466500387
  Basis Set: CC-PVTZ
  Basis Set:
  Basis Set: CC-PVTZ
  Basis Set:
  @DF-RHF Final Energy:  -387.25550348497745
    Total Energy =                       -387.2555034849774529
  Basis Set: CC-PVTZ
  Basis Set:
  Basis Set: CC-PVTZ
  Basis Set:
  @DF-RHF Final Energy:  -387.25562714804300
    Total Energy =                       -387.2556271480420946
  Basis Set: CC-PVTZ
  Basis Set:
  Charge       = 0
  Multiplicity = 1
  Basis Set: CC-PVTZ
  Basis Set:

    Orbital Energies (a.u.)
    -----------------------

    Doubly Occupied:

       1A    -20.551374     2A    -11.321065     3A    -11.233857
       4A    -11.233246     5A    -11.221452     6A    -11.217527
       7A    -11.216487     8A    -11.215832     9A    -11.209314
      10A     -1.406328    11A     -1.104137    12A     -1.071150
      13A     -1.013233    14A     -0.943708    15A     -0.876723
      16A     -0.822550    17A     -0.788951    18A     -0.782495
      19A     -0.669021    20A     -0.655073    21A     -0.636910
      22A     -0.625593    23A     -0.608550    24A     -0.597807
      25A     -0.566842    26A     -0.562858    27A     -0.528149
      28A     -0.527093    29A     -0.517657    30A     -0.500624
      31A     -0.488725    32A     -0.478470    33A     -0.461329
      34A     -0.458344    35A     -0.442784    36A     -0.411959

  @DF-RHF Final Energy:  -387.25562771808615

   => Energetics <=

    Nuclear Repulsion Energy =            439.7781891322774186
    One-Electron Energy =               -1396.1332030362068508
    Two-Electron Energy =                 569.0993861858434002
    DFT Exchange-Correlation Energy =       0.0000000000000000
    Empirical Dispersion Energy =           0.0000000000000000
    PCM Polarization Energy =               0.0000000000000000
    EFP Energy =                            0.0000000000000000
    Total Energy =                       -387.2556277180859752
    Molecular point group: c1
  Basis Set: CC-PVTZ
  Basis Set:

  -Total Gradient:
     Atom            X                  Y                   Z
    ------   -----------------  -----------------  -----------------
       1       -0.000094490294     0.000088229636    -0.000014998982
       2        0.000380725364    -0.000027640907     0.000109568520
       3       -0.000108500590     0.000063553012    -0.000078815006
       4       -0.000221388069    -0.000105923674    -0.000025161688
       5        0.000005684574    -0.000031566299     0.000073634932
       6        0.000002967416    -0.000021036209     0.000006229688
       7       -0.000000161220     0.000034185949    -0.000046230654
       8        0.000710119705     0.002647964451    -0.003218594409
       9       -0.000017775136    -0.000020677373     0.000001872410
      10        0.000013947122    -0.000016007788     0.000008049442
      11       -0.000681765713    -0.001879841553     0.002780059925
      12       -0.000382104985    -0.001796014735     0.002026317213
      13       -0.000001286042     0.000024445387     0.000010567482
      14        0.000363341196     0.001053001856    -0.001654220446
      15        0.000000258230     0.000003055884    -0.000005195685
      16        0.000000793718    -0.000023789997     0.000014157846
      17        0.000020123852    -0.000011658866    -0.000006165003
      18       -0.000013206315     0.000010508893     0.000008643070
      19       -0.000008043456     0.000011360995     0.000003382038
      20        0.000003439229    -0.000002387179     0.000008817310
      21        0.000022855251    -0.000004377331     0.000006830974
      22        0.000002905544     0.000005524501    -0.000008056709
      23       -0.000000125950    -0.000002377592    -0.000001751938
      24        0.000000100227    -0.000001609626     0.000001157831
      25        0.000001586345     0.000003078564    -0.000000098161

  **** Optimization is complete! (in 6 steps) ****
    Final optimized geometry and variables:
    Molecular point group: c1

    Geometry (in Angstrom), charge = 0, multiplicity = 1:

    H           -3.313179919105     1.289779343000     0.881807162535
    C           -3.346699810414     0.531730074784     0.087287806832
    C           -2.393235795469     0.766009215228    -1.052980951260
    O           -4.103440443536    -0.373183501314     0.164813980388
    C           -0.954572839259     1.000881856318    -0.584520951161
    H           -2.458968861882    -0.072067640403    -1.734751254634
    H           -2.747719502948     1.651343768590    -1.576437454117
    C           -0.302301308085    -0.232400381365     0.035460039593
    H           -0.364890579178     1.329711650682    -1.433457505337
    H           -0.936824676985     1.820296022146     0.130117999011
    C            1.138309880045     0.011446702767     0.523756659183
    H           -0.316050446758    -1.047566122764    -0.681553789228
    H           -0.908856341586    -0.581617998799     0.865953619155
    C            2.114790710641    -1.078387434589     0.082576456401
    H            1.483036323791     0.969046884889     0.148146852480
    H            1.152647342963     0.092187428046     1.606196545834
    C            3.538071308156    -0.924208418354     0.620306285955
    H            2.142305038839    -1.109330081498    -1.004343205787
    H            1.728420169413    -2.042508468740     0.402195420039
    C            4.287179006659     0.302068645852     0.104034894678
    H            4.102121351570    -1.812959383980     0.354774148818
    H            3.509491569496    -0.898098784219     1.706429534506
    H            4.322663238854     0.308586123384    -0.980799180315
    H            3.823455310282     1.226899974632     0.425385279068
    H            5.308716349938     0.308445790298     0.466424520477

  Mulliken Charges: (a.u.)
   Center  Symbol    Alpha    Beta     Spin     Total
       1     H     0.46426  0.46426  0.00000  0.07149
       2     C     2.90491  2.90491  0.00000  0.19018
       3     C     3.08857  3.08857  0.00000 -0.17715
       4     O     4.16625  4.16625  0.00000 -0.33251
       5     C     3.11717  3.11717  0.00000 -0.23433
       6     H     0.44279  0.44279  0.00000  0.11443
       7     H     0.44054  0.44054  0.00000  0.11893
       8     C     3.09608  3.09608  0.00000 -0.19216
       9     H     0.44273  0.44273  0.00000  0.11454
      10     H     0.44807  0.44807  0.00000  0.10385
      11     C     3.09694  3.09694  0.00000 -0.19389
      12     H     0.44901  0.44901  0.00000  0.10198
      13     H     0.44424  0.44424  0.00000  0.11152
      14     C     3.09467  3.09467  0.00000 -0.18933
      15     H     0.45309  0.45309  0.00000  0.09381
      16     H     0.44939  0.44939  0.00000  0.10123
      17     C     3.09098  3.09098  0.00000 -0.18197
      18     H     0.45368  0.45368  0.00000  0.09265
      19     H     0.44690  0.44690  0.00000  0.10619
      20     C     3.15324  3.15324  0.00000 -0.30647
      21     H     0.44782  0.44782  0.00000  0.10435
      22     H     0.45418  0.45418  0.00000  0.09165
      23     H     0.45482  0.45482  0.00000  0.09036
      24     H     0.45410  0.45410  0.00000  0.09180
      25     H     0.44557  0.44557  0.00000  0.10886

   Total alpha = 36.00000, Total beta = 36.00000, Total charge = -0.00000

*** Psi4 exiting successfully. Buy a developer a beer!
