  ==> Input File <==

--------------------------------------------------------------------------
set {
	reference rhf
	basis 6-31G*
}

set_num_threads( 4 )
memory 2 gb

molecule MOL {
0 1

H	 -4.156742	 0.825964	 -0.386776
O	 -3.438663	 0.258271	 -0.627591
C	 -2.265892	 0.679409	 0.020359
C	 -1.137955	 -0.251707	 -0.387720
H	 -2.022134	 1.704216	 -0.256517
H	 -2.395957	 0.655945	 1.101504
C	 0.198102	 0.111031	 0.262842
H	 -1.046944	 -0.224564	 -1.470175
H	 -1.420346	 -1.267081	 -0.123622
C	 1.331804	 -0.827780	 -0.158768
H	 0.452836	 1.136862	 0.007978
H	 0.094822	 0.080649	 1.346783
C	 2.723619	 -0.410569	 0.329459
H	 1.342964	 -0.912588	 -1.244120
H	 1.116806	 -1.824343	 0.220779
C	 3.243875	 0.895854	 -0.272975
H	 3.424222	 -1.207124	 0.091250
H	 2.714788	 -0.329854	 1.414619
H	 3.251977	 0.848779	 -1.358681
H	 2.637085	 1.747371	 0.016682
H	 4.259473	 1.094070	 0.055697

	symmetry c1
}
set optking {
	frozen_dihedral = ("
		4 7 10 14
	")
}

ee = optimize('scf')
oeprop('DIPOLE', 'QUADRUPOLE', 'MULLIKEN_CHARGES')
f=open( 'psi4out.xyz', 'w' )
f.write( "21  " )
f.write( str(ee) + "\n" )
f.write( MOL.save_string_xyz() )
f.close()
--------------------------------------------------------------------------

    Molecular point group: c1
  Charge       = 0
  Multiplicity = 1
  Basis Set: 6-31G*
  Basis Set:
  @DF-RHF Final Energy:  -310.21241076500803
    Total Energy =                       -310.2124107650079736
    Molecular point group: c1
  Basis Set: 6-31G*
  Basis Set:
  Basis Set: 6-31G*
  Basis Set:
  @DF-RHF Final Energy:  -310.21223137288320
    Total Energy =                       -310.2122313728833660
  Basis Set: 6-31G*
  Basis Set:
  Basis Set: 6-31G*
  Basis Set:
  @DF-RHF Final Energy:  -310.21249224507568
    Total Energy =                       -310.2124922450756230
  Basis Set: 6-31G*
  Basis Set:
  Basis Set: 6-31G*
  Basis Set:
  @DF-RHF Final Energy:  -310.21250161666438
    Total Energy =                       -310.2125016166645537
  Basis Set: 6-31G*
  Basis Set:
  Basis Set: 6-31G*
  Basis Set:
  @DF-RHF Final Energy:  -310.21250295374688
    Total Energy =                       -310.2125029537469345
  Basis Set: 6-31G*
  Basis Set:
  Charge       = 0
  Multiplicity = 1
  Basis Set: 6-31G*
  Basis Set:

    Orbital Energies (a.u.)
    -----------------------

    Doubly Occupied:

       1A    -20.551831     2A    -11.267052     3A    -11.215636
       4A    -11.215333     5A    -11.213570     6A    -11.210683
       7A    -11.208163     8A     -1.358651     9A     -1.086055
      10A     -1.033224    11A     -0.954649    12A     -0.875398
      13A     -0.806770    14A     -0.779931    15A     -0.692479
      16A     -0.661464    17A     -0.619734    18A     -0.610050
      19A     -0.586718    20A     -0.567191    21A     -0.538354
      22A     -0.520466    23A     -0.508672    24A     -0.487283
      25A     -0.479738    26A     -0.461423    27A     -0.454921
      28A     -0.443177    29A     -0.433983

  @DF-RHF Final Energy:  -310.21250338356151

   => Energetics <=

    Nuclear Repulsion Energy =            312.4328797123440609
    One-Electron Energy =               -1039.6055678322973108
    Two-Electron Energy =                 416.9601847363915681
    DFT Exchange-Correlation Energy =       0.0000000000000000
    Empirical Dispersion Energy =           0.0000000000000000
    PCM Polarization Energy =               0.0000000000000000
    EFP Energy =                            0.0000000000000000
    Total Energy =                       -310.2125033835616819
    Molecular point group: c1
  Basis Set: 6-31G*
  Basis Set:

  -Total Gradient:
     Atom            X                  Y                   Z
    ------   -----------------  -----------------  -----------------
       1       -0.000000640373    -0.000000215163    -0.000000469059
       2       -0.000001676083     0.000002028560     0.000000299390
       3       -0.000000873410    -0.000001397187    -0.000002119159
       4        0.000276080370     0.000789871866    -0.000996056368
       5       -0.000000571742    -0.000001109675    -0.000000479303
       6        0.000000390527     0.000000405104     0.000000778904
       7       -0.000637476369    -0.001421885066     0.001396893550
       8        0.000000718371    -0.000002259318    -0.000003140623
       9        0.000000236469     0.000004704872     0.000002017519
      10        0.001482113943     0.002036653821    -0.000477780307
      11        0.000004682239    -0.000002201728     0.000000335889
      12       -0.000004191278    -0.000003928161     0.000006939967
      13       -0.000009829477    -0.000009418015    -0.000014428873
      14       -0.001102836991    -0.001390172635     0.000080842757
      15        0.000004137016    -0.000002711267     0.000012756663
      16       -0.000003093977     0.000009702223     0.000003086250
      17       -0.000006671553    -0.000008971397    -0.000003248829
      18        0.000000339331    -0.000002016657    -0.000003558213
      19        0.000007422626    -0.000002269049    -0.000002137606
      20       -0.000004043966    -0.000000301301    -0.000002958354
      21       -0.000004215665     0.000005490173     0.000002425807

  **** Optimization is complete! (in 6 steps) ****
    Final optimized geometry and variables:
    Molecular point group: c1

    Geometry (in Angstrom), charge = 0, multiplicity = 1:

    H           -4.198471477915     0.707348848331    -0.235208326368
    O           -3.471665136667     0.160344672716    -0.496845923413
    C           -2.306098109420     0.573189042753     0.169204879586
    C           -1.163973441974    -0.324577536419    -0.272654365607
    H           -2.077146452841     1.611492900801    -0.067274711596
    H           -2.437220257069     0.505865238441     1.248331310875
    C            0.168277142444     0.039893132117     0.384614415525
    H           -1.075615643997    -0.258909117268    -1.353426451978
    H           -1.429274199714    -1.353128629114    -0.043049148223
    C            1.307850706994    -0.892441437404    -0.037215006457
    H            0.415388393991     1.067706848596     0.129933473088
    H            0.067087375988     0.009461650928     1.468385707679
    C            2.694588450448    -0.487041121813     0.474248858024
    H            1.326552875430    -0.974157606023    -1.122642345258
    H            1.082871727814    -1.892395549422     0.328325862030
    C            3.259231768931     0.786224365170    -0.158719232187
    H            3.384777533697    -1.304722626644     0.282019336791
    H            2.659114704633    -0.369479056479     1.555560991097
    H            3.309519574380     0.693775582053    -1.240243534125
    H            2.656445076661     1.658568634472     0.070767584921
    H            4.264244511611     0.982434943296     0.202198467226

  Mulliken Charges: (a.u.)
   Center  Symbol    Alpha    Beta     Spin     Total
       1     H     0.28118  0.28118  0.00000  0.43765
       2     O     4.37179  4.37179  0.00000 -0.74358
       3     C     2.98974  2.98974  0.00000  0.02052
       4     C     3.15914  3.15914  0.00000 -0.31829
       5     H     0.43297  0.43297  0.00000  0.13406
       6     H     0.43282  0.43282  0.00000  0.13437
       7     C     3.16168  3.16168  0.00000 -0.32336
       8     H     0.41453  0.41453  0.00000  0.17095
       9     H     0.41502  0.41502  0.00000  0.16996
      10     C     3.15223  3.15223  0.00000 -0.30447
      11     H     0.42196  0.42196  0.00000  0.15607
      12     H     0.42361  0.42361  0.00000  0.15279
      13     C     3.15277  3.15277  0.00000 -0.30553
      14     H     0.42279  0.42279  0.00000  0.15441
      15     H     0.42110  0.42110  0.00000  0.15780
      16     C     3.24075  3.24075  0.00000 -0.48150
      17     H     0.42048  0.42048  0.00000  0.15905
      18     H     0.42357  0.42357  0.00000  0.15286
      19     H     0.42170  0.42170  0.00000  0.15660
      20     H     0.42090  0.42090  0.00000  0.15820
      21     H     0.41928  0.41928  0.00000  0.16145

   Total alpha = 29.00000, Total beta = 29.00000, Total charge = -0.00000
