  ==> Input File <==

--------------------------------------------------------------------------
set {
	reference rhf
	basis 6-31G*
}

set_num_threads( 4 )
memory 2 gb

molecule MOL {
0 1

O	 3.225979	 0.970355	 -0.599647
C	 2.701189	 0.057885	 -0.047330
C	 1.245376	 -0.013843	 0.345420
O	 3.347903	 -1.046386	 0.304773
C	 0.455112	 1.231400	 -0.050772
H	 0.838542	 -0.913825	 -0.103701
H	 1.208210	 -0.175333	 1.419774
C	 -0.998893	 1.219485	 0.433193
H	 0.482531	 1.345121	 -1.130325
H	 0.957290	 2.103070	 0.354729
C	 -1.883438	 0.145884	 -0.207175
H	 -1.431207	 2.195402	 0.224832
H	 -1.019646	 1.105716	 1.516076
C	 -2.038939	 -1.097937	 0.670167
H	 -2.866660	 0.567294	 -0.410910
H	 -1.473512	 -0.152318	 -1.169469
C	 -2.916618	 -2.179696	 0.038021
H	 -2.461490	 -0.809749	 1.631225
H	 -1.055308	 -1.513644	 0.883139
C	 -3.069941	 -3.416822	 0.922165
H	 -3.899612	 -1.765691	 -0.176372
H	 -2.493481	 -2.472175	 -0.920724
H	 -3.696935	 -4.165049	 0.447147
H	 -3.523170	 -3.163030	 1.876298
H	 -2.106107	 -3.874515	 1.126654
C	 4.728119	 -1.109107	 -0.004993
H	 4.882018	 -1.033965	 -1.071845
H	 5.068212	 -2.067527	 0.355250
H	 5.265056	 -0.311663	 0.488280

	symmetry c1
}
set optking {
	frozen_dihedral = ("
		15 11 8 5
	")
}

ee = optimize('scf')
oeprop('DIPOLE', 'QUADRUPOLE', 'MULLIKEN_CHARGES')
f=open( 'psi4out.xyz', 'w' )
f.write( "29  " )
f.write( str(ee) + "\n" )
f.write( MOL.save_string_xyz() )
f.close()
--------------------------------------------------------------------------

    Molecular point group: c1
  Charge       = 0
  Multiplicity = 1
  Basis Set: 6-31G*
  Basis Set:
  @DF-RHF Final Energy:  -501.03888262170642
    Total Energy =                       -501.0388826217069891
    Molecular point group: c1
  Basis Set: 6-31G*
  Basis Set:
  Basis Set: 6-31G*
  Basis Set:
  @DF-RHF Final Energy:  -501.03935770666669
    Total Energy =                       -501.0393577066668058
  Basis Set: 6-31G*
  Basis Set:
  Basis Set: 6-31G*
  Basis Set:
  @DF-RHF Final Energy:  -501.03946442970403
    Total Energy =                       -501.0394644297039122
  Basis Set: 6-31G*
  Basis Set:
  Basis Set: 6-31G*
  Basis Set:
  @DF-RHF Final Energy:  -501.03951828943377
    Total Energy =                       -501.0395182894341133
  Basis Set: 6-31G*
  Basis Set:
  Basis Set: 6-31G*
  Basis Set:
  @DF-RHF Final Energy:  -501.03945767125697
    Total Energy =                       -501.0394576712565140
  Basis Set: 6-31G*
  Basis Set:
  Basis Set: 6-31G*
  Basis Set:
  @DF-RHF Final Energy:  -501.03952200094579
    Total Energy =                       -501.0395220009456807
  Basis Set: 6-31G*
  Basis Set:
  Charge       = 0
  Multiplicity = 1
  Basis Set: 6-31G*
  Basis Set:

    Orbital Energies (a.u.)
    -----------------------

    Doubly Occupied:

       1A    -20.603528     2A    -20.545393     3A    -11.372103
       4A    -11.280789     5A    -11.234844     6A    -11.219131
       7A    -11.217639     8A    -11.216561     9A    -11.216293
      10A    -11.215345    11A    -11.209828    12A     -1.469234
      13A     -1.362697    14A     -1.097325    15A     -1.065921
      16A     -1.018832    17A     -0.976605    18A     -0.931400
      19A     -0.862286    20A     -0.802690    21A     -0.787003
      22A     -0.763909    23A     -0.701356    24A     -0.682695
      25A     -0.671761    26A     -0.648559    27A     -0.627976
      28A     -0.605796    29A     -0.595537    30A     -0.574884
      31A     -0.565468    32A     -0.562822    33A     -0.536024
      34A     -0.526221    35A     -0.515981    36A     -0.504894
      37A     -0.500835    38A     -0.477748    39A     -0.472718
      40A     -0.462840    41A     -0.457842    42A     -0.454874
      43A     -0.438586    44A     -0.435095

  @DF-RHF Final Energy:  -501.03952199463095

   => Energetics <=

    Nuclear Repulsion Energy =            624.8124702816934359
    One-Electron Energy =               -1920.7242471788670173
    Two-Electron Energy =                 794.8722549025426360
    DFT Exchange-Correlation Energy =       0.0000000000000000
    Empirical Dispersion Energy =           0.0000000000000000
    PCM Polarization Energy =               0.0000000000000000
    EFP Energy =                            0.0000000000000000
    Total Energy =                       -501.0395219946310590
    Molecular point group: c1
  Basis Set: 6-31G*
  Basis Set:

  -Total Gradient:
     Atom            X                  Y                   Z
    ------   -----------------  -----------------  -----------------
       1       -0.000014367773    -0.000031558505    -0.000030147629
       2        0.000021162564     0.000049881183     0.000091500317
       3       -0.000014797292    -0.000011578528    -0.000032031339
       4       -0.000008951506    -0.000006969607    -0.000031405436
       5       -0.000062932769     0.000177668860    -0.000116054998
       6       -0.000011553687    -0.000013934134     0.000003691436
       7        0.000011651504     0.000003454481    -0.000000377314
       8        0.000085582965    -0.000154920239     0.000142842030
       9       -0.000008914125     0.000004933774     0.000002198884
      10        0.000010468472    -0.000002182300    -0.000001608045
      11       -0.000152945208    -0.000036157558     0.000259026689
      12        0.000041426666     0.000022754339     0.000016338110
      13        0.000018788094     0.000013550224    -0.000003911457
      14       -0.000000614329    -0.000034542790    -0.000053790443
      15        0.000088160623     0.000053501676    -0.000295963921
      16       -0.000003592911    -0.000012487986     0.000017975025
      17       -0.000022245975    -0.000007786153     0.000041072800
      18        0.000018435055    -0.000010535533    -0.000007018973
      19        0.000011664900    -0.000000895582    -0.000007785149
      20       -0.000014888704    -0.000009163707    -0.000004077143
      21        0.000000291109     0.000005653952    -0.000004381369
      22        0.000008110459     0.000006769078     0.000013442094
      23       -0.000000132883    -0.000005738046     0.000002854580
      24       -0.000003402531    -0.000001059622    -0.000000595966
      25        0.000001480021     0.000003832051     0.000000756702
      26        0.000000282393    -0.000002976534    -0.000002060070
      27        0.000001730059    -0.000000299393    -0.000000284559
      28        0.000001450506     0.000000197212    -0.000000818550
      29       -0.000001345701     0.000000589383     0.000000613691

  **** Optimization is complete! (in 7 steps) ****
    Final optimized geometry and variables:
    Molecular point group: c1

    Geometry (in Angstrom), charge = 0, multiplicity = 1:

    O            2.760390755659     1.502344714727    -0.746279214741
    C            2.244379533328     0.572223612871    -0.215637315705
    C            0.788514702360     0.475942387202     0.172982541271
    O            2.901971429616    -0.533174897388     0.111946872072
    C           -0.012965118314     1.719869567272    -0.201701783809
    H            0.392813038437    -0.417819097475    -0.297992707613
    H            0.751528054315     0.290460712802     1.243178891593
    C           -1.473624233434     1.703138083760     0.265950346329
    H            0.019543364648     1.851452870049    -1.279020983070
    H            0.480535346782     2.588966252338     0.220074337002
    C           -2.361912997167     0.602853569470    -0.351325474272
    H           -1.894669325957     2.673664957500     0.019928955301
    H           -1.507234743125     1.633258098657     1.351757302169
    C           -2.559658708415    -0.634430928394     0.530811757220
    H           -3.342116808028     1.019811522753    -0.567987998484
    H           -1.952806433442     0.301636430880    -1.314323186803
    C           -3.433364053401    -1.705061056449    -0.125386271426
    H           -3.015598386471    -0.327313863746     1.470533022710
    H           -1.598681243929    -1.070885913813     0.792035351525
    C           -3.654210090444    -2.926219180770     0.766737926551
    H           -4.396005248768    -1.271927533828    -0.388809666468
    H           -2.975479460554    -2.020036768870    -1.060799954570
    H           -4.275728183296    -3.666991306201     0.273261555099
    H           -4.144373262158    -2.649394786743     1.695881152196
    H           -2.711288547096    -3.402325359806     1.020817255166
    C            4.283334045954    -0.574336649886    -0.196468103933
    H            4.438284748969    -0.473013430425    -1.261005187381
    H            4.632821518073    -1.537190945540     0.142291887378
    H            4.810988856863     0.217095843025     0.316116390290

  Mulliken Charges: (a.u.)
   Center  Symbol    Alpha    Beta     Spin     Total
       1     O     4.28589  4.28589  0.00000 -0.57178
       2     C     2.60426  2.60426  0.00000  0.79148
       3     C     3.21028  3.21028  0.00000 -0.42056
       4     O     4.30757  4.30757  0.00000 -0.61514
       5     C     3.15333  3.15333  0.00000 -0.30665
       6     H     0.39918  0.39918  0.00000  0.20164
       7     H     0.40097  0.40097  0.00000  0.19806
       8     C     3.15927  3.15927  0.00000 -0.31854
       9     H     0.41330  0.41330  0.00000  0.17341
      10     H     0.40958  0.40958  0.00000  0.18085
      11     C     3.15816  3.15816  0.00000 -0.31632
      12     H     0.41609  0.41609  0.00000  0.16781
      13     H     0.42199  0.42199  0.00000  0.15601
      14     C     3.15372  3.15372  0.00000 -0.30745
      15     H     0.41924  0.41924  0.00000  0.16152
      16     H     0.42230  0.42230  0.00000  0.15540
      17     C     3.15193  3.15193  0.00000 -0.30385
      18     H     0.42304  0.42304  0.00000  0.15392
      19     H     0.42317  0.42317  0.00000  0.15365
      20     C     3.23937  3.23937  0.00000 -0.47874
      21     H     0.42254  0.42254  0.00000  0.15492
      22     H     0.42330  0.42330  0.00000  0.15341
      23     H     0.41900  0.41900  0.00000  0.16200
      24     H     0.42160  0.42160  0.00000  0.15680
      25     H     0.42183  0.42183  0.00000  0.15634
      26     C     3.09242  3.09242  0.00000 -0.18485
      27     H     0.40908  0.40908  0.00000  0.18184
      28     H     0.40850  0.40850  0.00000  0.18299
      29     H     0.40909  0.40909  0.00000  0.18183

   Total alpha = 44.00000, Total beta = 44.00000, Total charge =  0.00000
