                              Psi4 1.0.54 Driver

  ==> Input File <==

--------------------------------------------------------------------------
set {
	reference rhf
	basis cc-pvtz
}

set_num_threads( 4 )
memory 2 gb

molecule MOL {
0 1

H	 -3.436473	 1.252944	 -1.023892
O	 -3.458596	 0.315260	 -0.960865
C	 -3.176635	 -0.080824	 0.355601
C	 -1.763371	 0.265266	 0.799691
H	 -3.321825	 -1.153438	 0.379502
H	 -3.895468	 0.357385	 1.043382
C	 -0.673390	 -0.426948	 -0.013392
H	 -1.631049	 1.344913	 0.747560
H	 -1.664587	 -0.001624	 1.849167
C	 0.737842	 -0.043159	 0.423759
H	 -0.806103	 -0.190518	 -1.063345
H	 -0.797221	 -1.503753	 0.074146
C	 1.824000	 -0.743224	 -0.390623
H	 0.850588	 1.033777	 0.343840
H	 0.868587	 -0.286314	 1.476203
C	 3.059134	 0.110047	 -0.684256
H	 1.399347	 -1.092298	 -1.329062
H	 2.140699	 -1.633021	 0.146577
C	 2.806832	 1.303750	 -1.602167
H	 3.813685	 -0.524235	 -1.139354
H	 3.484056	 0.460045	 0.252954
H	 2.375940	 0.984621	 -2.545865
H	 3.733194	 1.822212	 -1.821921
H	 2.130273	 2.022833	 -1.156305

	symmetry c1
}
set optking {
	frozen_dihedral = ("
		17 13 10 7
	")
}

ee,wfn = optimize('scf', return_wfn=True)
oeprop( wfn, 'DIPOLE', 'QUADRUPOLE', 'MULLIKEN_CHARGES')
f=open( 'psi4out.xyz', 'w' )
f.write( "24  " )
f.write( str(ee) + "\n" )
f.write( MOL.save_string_xyz() )
f.close()
--------------------------------------------------------------------------

    Molecular point group: c1
  Charge       = 0
  Multiplicity = 1
  Basis Set: CC-PVTZ
  Basis Set:
  @DF-RHF Final Energy:  -349.37640234116179
    Total Energy =                       -349.3764023411615653
    Molecular point group: c1
  Basis Set: CC-PVTZ
  Basis Set:
  Basis Set: CC-PVTZ
  Basis Set:
  @DF-RHF Final Energy:  -349.37610699554205
    Total Energy =                       -349.3761069955419885
  Basis Set: CC-PVTZ
  Basis Set:
  Basis Set: CC-PVTZ
  Basis Set:
  @DF-RHF Final Energy:  -349.37676386527465
    Total Energy =                       -349.3767638652743699
  Basis Set: CC-PVTZ
  Basis Set:
  Basis Set: CC-PVTZ
  Basis Set:
  @DF-RHF Final Energy:  -349.37680522839014
    Total Energy =                       -349.3768052283901397
  Basis Set: CC-PVTZ
  Basis Set:
  Basis Set: CC-PVTZ
  Basis Set:
  @DF-RHF Final Energy:  -349.37686646492045
    Total Energy =                       -349.3768664649207949
  Basis Set: CC-PVTZ
  Basis Set:
  Basis Set: CC-PVTZ
  Basis Set:
  @DF-RHF Final Energy:  -349.37686767780411
    Total Energy =                       -349.3768676778043982
  Basis Set: CC-PVTZ
  Basis Set:
  Charge       = 0
  Multiplicity = 1
  Basis Set: CC-PVTZ
  Basis Set:

    Orbital Energies (a.u.)
    -----------------------

    Doubly Occupied:

       1A    -20.546292     2A    -11.265538     3A    -11.215038
       4A    -11.212468     5A    -11.210163     6A    -11.209299
       7A    -11.209055     8A    -11.205283     9A     -1.364154
      10A     -1.088715    11A     -1.049291    12A     -0.986030
      13A     -0.916449    14A     -0.850251    15A     -0.801176
      16A     -0.778959    17A     -0.681858    18A     -0.654401
      19A     -0.625365    20A     -0.619548    21A     -0.600586
      22A     -0.577861    23A     -0.568612    24A     -0.535192
      25A     -0.519034    26A     -0.511745    27A     -0.495771
      28A     -0.475289    29A     -0.468175    30A     -0.461456
      31A     -0.455192    32A     -0.448938    33A     -0.420800

  @DF-RHF Final Energy:  -349.37686837451264

   => Energetics <=

    Nuclear Repulsion Energy =            386.8593865210035005
    One-Electron Energy =               -1240.4165472710096765
    Two-Electron Energy =                 504.1802923754929679
    DFT Exchange-Correlation Energy =       0.0000000000000000
    Empirical Dispersion Energy =           0.0000000000000000
    PCM Polarization Energy =               0.0000000000000000
    EFP Energy =                            0.0000000000000000
    Total Energy =                       -349.3768683745132648
    Molecular point group: c1
  Basis Set: CC-PVTZ
  Basis Set:

  -Total Gradient:
     Atom            X                  Y                   Z
    ------   -----------------  -----------------  -----------------
       1        0.000002069757    -0.000006823552     0.000009206426
       2        0.000003122082    -0.000015801194     0.000000736269
       3       -0.000008523100     0.000024192520     0.000011082061
       4       -0.000006794705    -0.000009780763    -0.000009999064
       5       -0.000002993993     0.000005215965    -0.000010175031
       6       -0.000007100280    -0.000000234992    -0.000005733326
       7        0.000006340529     0.002028189558    -0.001668959942
       8        0.000001685562    -0.000006059568    -0.000001248101
       9        0.000004536967    -0.000002460667    -0.000003625904
      10       -0.000221704837    -0.003554579461     0.002731162240
      11        0.000001146465    -0.000002153685    -0.000001627941
      12        0.000005136489     0.000009749565     0.000009750203
      13        0.001078250692     0.004698699929    -0.002535083758
      14       -0.000023875262    -0.000010251136     0.000010177838
      15       -0.000013647934     0.000010890642     0.000001368764
      16        0.000013214582    -0.000038432943    -0.000045403915
      17       -0.000852223307    -0.003140803560     0.001492223431
      18        0.000012844426    -0.000000642090    -0.000012418003
      19        0.000004790076     0.000008877083     0.000029326768
      20        0.000015497652     0.000008011988     0.000004010078
      21       -0.000016505551     0.000014616603    -0.000024172898
      22        0.000001182728    -0.000009721441     0.000023080252
      23       -0.000003128472    -0.000008866882     0.000002353880
      24        0.000006679431    -0.000001831916    -0.000006030332

  **** Optimization is complete! (in 7 steps) ****
    Final optimized geometry and variables:
    Molecular point group: c1

    Geometry (in Angstrom), charge = 0, multiplicity = 1:

    H           -3.312875290753     1.220277217930    -0.662409974282
    O           -3.336658549102     0.280605995382    -0.651301729649
    C           -3.054593769669    -0.187914081725     0.641057606143
    C           -1.639796782104     0.129387916780     1.101723527989
    H           -3.202665148969    -1.259812244918     0.605687899551
    H           -3.771720573410     0.213495386999     1.352659083166
    C           -0.552792389692    -0.517078919224     0.248652131952
    H           -1.505052803943     1.210087904344     1.110906543660
    H           -1.539701944330    -0.196809092219     2.134117218613
    C            0.860709508632    -0.150454974259     0.693804845183
    H           -0.688122381689    -0.227028641074    -0.787067615600
    H           -0.674986230332    -1.597782958832     0.280195873239
    C            1.961029264490    -0.846766169017    -0.124621323961
    H            0.970201485434     0.927220749018     0.617036547748
    H            0.989532889479    -0.385875873888     1.746210998551
    C            3.213982230544    -0.004658272668    -0.368137635390
    H            1.553933306608    -1.186269245896    -1.073224117770
    H            2.252335472757    -1.755486986700     0.394071109048
    C            3.023140483839     1.123488896650    -1.378781852700
    H            4.009103280758    -0.654115384359    -0.721013483399
    H            3.557624481420     0.407774548122     0.577097036442
    H            2.734817811360     0.728710112716    -2.347392135255
    H            3.941405629208     1.684410071710    -1.510898349536
    H            2.256359099100     1.823431533179    -1.067899888782

  Mulliken Charges: (a.u.)
   Center  Symbol    Alpha    Beta     Spin     Total
       1     H     0.39524  0.39524  0.00000  0.20952
       2     O     4.20369  4.20369  0.00000 -0.40739
       3     C     2.97759  2.97759  0.00000  0.04482
       4     C     3.10296  3.10296  0.00000 -0.20592
       5     H     0.45886  0.45886  0.00000  0.08229
       6     H     0.46023  0.46023  0.00000  0.07954
       7     C     3.08710  3.08710  0.00000 -0.17420
       8     H     0.45896  0.45896  0.00000  0.08208
       9     H     0.45314  0.45314  0.00000  0.09372
      10     C     3.09802  3.09802  0.00000 -0.19605
      11     H     0.44615  0.44615  0.00000  0.10769
      12     H     0.45442  0.45442  0.00000  0.09115
      13     C     3.09721  3.09721  0.00000 -0.19442
      14     H     0.45360  0.45360  0.00000  0.09279
      15     H     0.45001  0.45001  0.00000  0.09998
      16     C     3.08985  3.08985  0.00000 -0.17970
      17     H     0.45368  0.45368  0.00000  0.09264
      18     H     0.44872  0.44872  0.00000  0.10256
      19     C     3.14914  3.14914  0.00000 -0.29828
      20     H     0.44865  0.44865  0.00000  0.10269
      21     H     0.45481  0.45481  0.00000  0.09037
      22     H     0.45427  0.45427  0.00000  0.09146
      23     H     0.44779  0.44779  0.00000  0.10441
      24     H     0.45588  0.45588  0.00000  0.08825

   Total alpha = 33.00000, Total beta = 33.00000, Total charge = -0.00000

*** Psi4 exiting successfully. Buy a developer a beer!
