  ==> Input File <==

--------------------------------------------------------------------------
set {
	reference rhf
	basis 6-31G*
}

set_num_threads( 1 )
memory 2 gb

molecule MOL {
0 1

O	 1.846825	 1.296220	 0.000415
C	 1.705091	 0.115954	 0.001797
C	 0.381791	 -0.609817	 0.001258
O	 2.721346	 -0.737485	 -0.000216
C	 -0.823008	 0.326187	 0.001381
H	 0.371250	 -1.265087	 -0.865474
H	 0.370908	 -1.265746	 0.867490
C	 -1.758167	 0.068676	 -1.181085
H	 -0.476745	 1.354713	 -0.019218
H	 -1.366375	 0.209580	 0.933832
C	 -2.971873	 0.999547	 -1.197063
H	 -1.206538	 0.183622	 -2.113013
H	 -2.100068	 -0.964941	 -1.156166
C	 -3.906513	 0.740962	 -2.378093
H	 -2.632040	 2.032455	 -1.224550
H	 -3.524431	 0.885239	 -0.267143
H	 -3.391393	 0.881411	 -3.324211
H	 -4.756674	 1.415796	 -2.361492
H	 -4.290537	 -0.275153	 -2.359433
C	 4.024888	 -0.184556	 -0.001949
H	 4.179030	 0.422472	 -0.882452
H	 4.701782	 -1.024608	 -0.003642
H	 4.181981	 0.421185	 0.878906

	symmetry c1
}
set optking {
	frozen_dihedral = ("
		15 11 8 12,
		9 5 8 12,
		1 2 3 6,
		1 2 4 20
	")
}

ee = energy('scf')
oeprop('DIPOLE', 'QUADRUPOLE', 'MULLIKEN_CHARGES')
f=open( 'psi4out.xyz', 'w' )
f.write( "23  " )
f.write( str(ee) + "\n" )
f.write( MOL.save_string_xyz() )
f.close()
--------------------------------------------------------------------------

    Molecular point group: c1

    Geometry (in Angstrom), charge = 0, multiplicity = 1:

       Center              X                  Y                   Z               Mass
    ------------   -----------------  -----------------  -----------------  -----------------
           O          1.670987240263     1.069817280963     0.531021081197    15.994914619560
           C          1.529253240263    -0.110448719037     0.532403081197    12.000000000000
           C          0.205953240263    -0.836219719037     0.531864081197    12.000000000000
           O          2.545508240263    -0.963887719037     0.530390081197    15.994914619560
           C         -0.998845759737     0.099784280963     0.531987081197    12.000000000000
           H          0.195412240263    -1.491489719037    -0.334867918803     1.007825032070
           H          0.195070240263    -1.492148719037     1.398096081197     1.007825032070
           C         -1.934004759737    -0.157726719037    -0.650478918803    12.000000000000
           H         -0.652582759737     1.128310280963     0.511388081197     1.007825032070
           H         -1.542212759737    -0.016822719037     1.464438081197     1.007825032070
           C         -3.147710759737     0.773144280963    -0.666456918803    12.000000000000
           H         -1.382375759737    -0.042780719037    -1.582406918803     1.007825032070
           H         -2.275905759737    -1.191343719037    -0.625559918803     1.007825032070
           C         -4.082350759737     0.514559280963    -1.847486918803    12.000000000000
           H         -2.807877759737     1.806052280963    -0.693943918803     1.007825032070
           H         -3.700268759737     0.658836280963     0.263463081197     1.007825032070
           H         -3.567230759737     0.655008280963    -2.793604918803     1.007825032070
           H         -4.932511759737     1.189393280963    -1.830885918803     1.007825032070
           H         -4.466374759737    -0.501555719037    -1.828826918803     1.007825032070
           C          3.849050240263    -0.410958719037     0.528657081197    12.000000000000
           H          4.003192240263     0.196069280963    -0.351845918803     1.007825032070
           H          4.525944240263    -1.251010719037     0.526964081197     1.007825032070
           H          4.006143240263     0.194782280963     1.409512081197     1.007825032070

  Charge       = 0
  Multiplicity = 1
  Basis Set: 6-31G*
  Basis Set:

    Orbital Energies (a.u.)
    -----------------------

    Doubly Occupied:

       1A    -20.604381     2A    -20.546440     3A    -11.373010
       4A    -11.281233     5A    -11.234000     6A    -11.216192
       7A    -11.214711     8A    -11.214414     9A    -11.208195
      10A     -1.470114    11A     -1.363945    12A     -1.091810
      13A     -1.042450    14A     -0.986562    15A     -0.930961
      16A     -0.842984    17A     -0.794784    18A     -0.766773
      19A     -0.702673    20A     -0.681404    21A     -0.672838
      22A     -0.643609    23A     -0.612245    24A     -0.599964
      25A     -0.570063    26A     -0.556601    27A     -0.555015
      28A     -0.528642    29A     -0.523514    30A     -0.500896
      31A     -0.484834    32A     -0.468498    33A     -0.461832
      34A     -0.457905    35A     -0.453928    36A     -0.438554

  @DF-RHF Final Energy:  -422.97142460280622

   => Energetics <=

    Nuclear Repulsion Energy =            455.5086053682683769
    One-Electron Energy =               -1478.7680312412862804
    Two-Electron Energy =                 600.2880012702116801
    DFT Exchange-Correlation Energy =       0.0000000000000000
    Empirical Dispersion Energy =           0.0000000000000000
    PCM Polarization Energy =               0.0000000000000000
    EFP Energy =                            0.0000000000000000
    Total Energy =                       -422.9714246028062234

  Mulliken Charges: (a.u.)
   Center  Symbol    Alpha    Beta     Spin     Total
       1     O     4.28463  4.28463  0.00000 -0.56926
       2     C     2.61114  2.61114  0.00000  0.77773
       3     C     3.21076  3.21076  0.00000 -0.42152
       4     O     4.30576  4.30576  0.00000 -0.61153
       5     C     3.16277  3.16277  0.00000 -0.32555
       6     H     0.39757  0.39757  0.00000  0.20486
       7     H     0.39749  0.39749  0.00000  0.20502
       8     C     3.15552  3.15552  0.00000 -0.31104
       9     H     0.39241  0.39241  0.00000  0.21519
      10     H     0.41913  0.41913  0.00000  0.16174
      11     C     3.15249  3.15249  0.00000 -0.30499
      12     H     0.42199  0.42199  0.00000  0.15602
      13     H     0.42460  0.42460  0.00000  0.15080
      14     C     3.23949  3.23949  0.00000 -0.47898
      15     H     0.41988  0.41988  0.00000  0.16023
      16     H     0.42294  0.42294  0.00000  0.15412
      17     H     0.42145  0.42145  0.00000  0.15710
      18     H     0.41892  0.41892  0.00000  0.16216
      19     H     0.42237  0.42237  0.00000  0.15526
      20     C     3.09225  3.09225  0.00000 -0.18450
      21     H     0.40904  0.40904  0.00000  0.18191
      22     H     0.40839  0.40839  0.00000  0.18323
      23     H     0.40901  0.40901  0.00000  0.18198

   Total alpha = 36.00000, Total beta = 36.00000, Total charge =  0.00000
