  ==> Input File <==

--------------------------------------------------------------------------
set {
	reference rhf
	basis 6-31G*
}

set_num_threads( 1 )
memory 2 gb

molecule MOL {
0 1

H	 2.305798	 -1.204656	 0.454230
N	 2.434251	 -0.367735	 -0.081097
C	 1.267428	 0.496480	 0.024474
H	 2.576254	 -0.651359	 -1.032048
C	 -0.016086	 -0.325158	 -0.029487
H	 1.288818	 1.183521	 -0.816092
H	 1.267576	 1.109062	 0.929528
C	 -1.282277	 0.529072	 0.046735
H	 -0.012495	 -0.908639	 -0.945788
H	 -0.015903	 -1.041248	 0.791956
C	 -2.563920	 -0.301775	 -0.006060
H	 -1.284084	 1.244622	 -0.773004
H	 -1.271387	 1.115393	 0.963286
H	 -2.621848	 -0.873522	 -0.927727
H	 -3.445135	 0.329952	 0.047812
H	 -2.609542	 -1.004582	 0.821105

	symmetry c1
}
set optking {
	frozen_dihedral = ("
		6 3 5 9,
		12 8 5 9
	")
}

ee = energy('scf')
oeprop('DIPOLE', 'QUADRUPOLE', 'MULLIKEN_CHARGES')
f=open( 'psi4out.xyz', 'w' )
f.write( "16  " )
f.write( str(ee) + "\n" )
f.write( MOL.save_string_xyz() )
f.close()
--------------------------------------------------------------------------

    Molecular point group: c1

    Geometry (in Angstrom), charge = 0, multiplicity = 1:

       Center              X                  Y                   Z               Mass
    ------------   -----------------  -----------------  -----------------  -----------------
           H          2.318154389073    -1.189976155669     0.470623870703     1.007825032070
           N          2.446607389073    -0.353055155669    -0.064703129297    14.003074004780
           C          1.279784389073     0.511159844331     0.040867870703    12.000000000000
           H          2.588610389073    -0.636679155669    -1.015654129297     1.007825032070
           C         -0.003729610927    -0.310478155669    -0.013093129297    12.000000000000
           H          1.301174389073     1.198200844331    -0.799698129297     1.007825032070
           H          1.279932389073     1.123741844331     0.945921870703     1.007825032070
           C         -1.269920610927     0.543751844331     0.063128870703    12.000000000000
           H         -0.000138610927    -0.893959155669    -0.929394129297     1.007825032070
           H         -0.003546610927    -1.026568155669     0.808349870703     1.007825032070
           C         -2.551563610927    -0.287095155669     0.010333870703    12.000000000000
           H         -1.271727610927     1.259301844331    -0.756610129297     1.007825032070
           H         -1.259030610927     1.130072844331     0.979679870703     1.007825032070
           H         -2.609491610927    -0.858842155669    -0.911333129297     1.007825032070
           H         -3.432778610927     0.344631844331     0.064205870703     1.007825032070
           H         -2.597185610927    -0.989902155669     0.837498870703     1.007825032070

  Charge       = 0
  Multiplicity = 1
  Basis Set: 6-31G*
  Basis Set:

    Orbital Energies (a.u.)
    -----------------------

    Doubly Occupied:

       1A    -15.531157     2A    -11.241127     3A    -11.217539
       4A    -11.213154     5A    -11.210628     6A     -1.178732
       7A     -1.061599     8A     -0.959360     9A     -0.847711
      10A     -0.798278    11A     -0.677939    12A     -0.626570
      13A     -0.594878    14A     -0.590577    15A     -0.555503
      16A     -0.527794    17A     -0.501598    18A     -0.487522
      19A     -0.473967    20A     -0.467729    21A     -0.372547

  @DF-RHF Final Energy:  -212.31409393065610

   => Energetics <=

    Nuclear Repulsion Energy =            186.8226437531806141
    One-Electron Energy =                -656.0017113319057671
    Two-Electron Energy =                 256.8649736480689398
    DFT Exchange-Correlation Energy =       0.0000000000000000
    Empirical Dispersion Energy =           0.0000000000000000
    PCM Polarization Energy =               0.0000000000000000
    EFP Energy =                            0.0000000000000000
    Total Energy =                       -212.3140939306562132

  Mulliken Charges: (a.u.)
   Center  Symbol    Alpha    Beta     Spin     Total
       1     H     0.33467  0.33467  0.00000  0.33066
       2     N     3.91920  3.91920  0.00000 -0.83840
       3     C     3.05923  3.05923  0.00000 -0.11846
       4     H     0.33367  0.33367  0.00000  0.33267
       5     C     3.15837  3.15837  0.00000 -0.31673
       6     H     0.42086  0.42086  0.00000  0.15829
       7     H     0.41892  0.41892  0.00000  0.16216
       8     C     3.15602  3.15602  0.00000 -0.31203
       9     H     0.42639  0.42639  0.00000  0.14723
      10     H     0.42681  0.42681  0.00000  0.14637
      11     C     3.23863  3.23863  0.00000 -0.47725
      12     H     0.42277  0.42277  0.00000  0.15447
      13     H     0.42189  0.42189  0.00000  0.15622
      14     H     0.42187  0.42187  0.00000  0.15626
      15     H     0.41899  0.41899  0.00000  0.16202
      16     H     0.42173  0.42173  0.00000  0.15654

   Total alpha = 21.00000, Total beta = 21.00000, Total charge = -0.00000
