  ==> Input File <==

--------------------------------------------------------------------------
set {
	reference rhf
	basis cc-pvtz
}

set_num_threads( 4 )
memory 2 gb

molecule MOL {
0 1

H	 0.250317	 -1.048115	 -1.435363
C	 0.390193	 0.033974	 -1.563251
C	 0.062554	 0.862911	 -0.350953
O	 0.778662	 0.462604	 -2.594039
C	 -1.339253	 0.577611	 0.196911
H	 0.184850	 1.907974	 -0.604690
H	 0.800859	 0.612749	 0.407598
C	 -1.813142	 -0.849710	 -0.061612
H	 -2.032833	 1.276441	 -0.256032
H	 -1.357249	 0.782269	 1.263793
H	 -1.839268	 -1.063526	 -1.124230
H	 -2.810118	 -1.001930	 0.334000
H	 -1.159274	 -1.579980	 0.402282

	symmetry c1
}
set optking {
	frozen_dihedral = ("
		6 3 5 9
	")
}

ee = optimize('scf')
oeprop('DIPOLE', 'QUADRUPOLE', 'MULLIKEN_CHARGES')
f=open( 'psi4out.xyz', 'w' )
f.write( "13  " )
f.write( str(ee) + "\n" )
f.write( MOL.save_string_xyz() )
f.close()
--------------------------------------------------------------------------

    Molecular point group: c1
  Charge       = 0
  Multiplicity = 1
  Basis Set: CC-PVTZ
  Basis Set:
  @DF-RHF Final Energy:  -231.06292754284561
    Total Energy =                       -231.0629275428456424
    Molecular point group: c1
  Basis Set: CC-PVTZ
  Basis Set:
  Basis Set: CC-PVTZ
  Basis Set:
  @DF-RHF Final Energy:  -231.06360664917040
    Total Energy =                       -231.0636066491703957
  Basis Set: CC-PVTZ
  Basis Set:
  Basis Set: CC-PVTZ
  Basis Set:
  @DF-RHF Final Energy:  -231.06087711241670
    Total Energy =                       -231.0608771124165344
  Basis Set: CC-PVTZ
  Basis Set:
  Basis Set: CC-PVTZ
  Basis Set:
  @DF-RHF Final Energy:  -231.06556757323546
    Total Energy =                       -231.0655675732355121
  Basis Set: CC-PVTZ
  Basis Set:
  @DF-RHF Final Energy:  -231.06592006905754
    Total Energy =                       -231.0659200690574835
  Basis Set: CC-PVTZ
  Basis Set:
  @DF-RHF Final Energy:  -231.06597809059573
    Total Energy =                       -231.0659780905957632
  Basis Set: CC-PVTZ
  Basis Set:
  Basis Set: CC-PVTZ
  Basis Set:
  @DF-RHF Final Energy:  -231.06601508417208
    Total Energy =                       -231.0660150841720508
  Basis Set: CC-PVTZ
  Basis Set:
  Basis Set: CC-PVTZ
  Basis Set:
  @DF-RHF Final Energy:  -231.06602372959662
    Total Energy =                       -231.0660237295965089
  Basis Set: CC-PVTZ
  Basis Set:
  Charge       = 0
  Multiplicity = 1
  Basis Set: CC-PVTZ
  Basis Set:

    Orbital Energies (a.u.)
    -----------------------

    Doubly Occupied:

       1A    -20.551541     2A    -11.320209     3A    -11.237034
       4A    -11.234208     5A    -11.223588     6A     -1.406043
       7A     -1.084500     8A     -0.974346     9A     -0.858529
      10A     -0.776316    11A     -0.682286    12A     -0.642522
      13A     -0.617341    14A     -0.605048    15A     -0.563302
      16A     -0.535422    17A     -0.515137    18A     -0.490013
      19A     -0.481789    20A     -0.410164

  @DF-RHF Final Energy:  -231.06602499867287

   => Energetics <=

    Nuclear Repulsion Energy =            174.3049580426539649
    One-Electron Energy =                -658.3232894222239793
    Two-Electron Energy =                 252.9523063808971983
    DFT Exchange-Correlation Energy =       0.0000000000000000
    Empirical Dispersion Energy =           0.0000000000000000
    PCM Polarization Energy =               0.0000000000000000
    EFP Energy =                            0.0000000000000000
    Total Energy =                       -231.0660249986727877
    Molecular point group: c1
  Basis Set: CC-PVTZ
  Basis Set:

  -Total Gradient:
     Atom            X                  Y                   Z
    ------   -----------------  -----------------  -----------------
       1        0.000001015043     0.000005976414    -0.000001076256
       2        0.000001514660    -0.000017666823     0.000005500400
       3        0.001882301478     0.001784192967     0.006645775873
       4        0.000002873281     0.000013813188    -0.000024952943
       5       -0.001177879038    -0.004054342794    -0.005669286670
       6       -0.001401528889    -0.000876753751    -0.004697586141
       7       -0.000012547523     0.000000444038     0.000011820429
       8        0.000003488542     0.000010962931    -0.000006843082
       9        0.000706108394     0.003132523916     0.003739297488
      10       -0.000004863477     0.000007125881    -0.000000640189
      11       -0.000004621876    -0.000007960862    -0.000004220080
      12        0.000000397560    -0.000000281972    -0.000001002384
      13        0.000003741844     0.000001966869     0.000003213557

  **** Optimization is complete! (in 9 steps) ****
    Final optimized geometry and variables:
    Molecular point group: c1

    Geometry (in Angstrom), charge = 0, multiplicity = 1:

    H            1.045908996764    -1.234382633585    -0.571467956534
    C            0.883125009972    -0.156935282132    -0.684337930604
    C            0.526491434077     0.595345411924     0.573098213332
    O            0.994960439536     0.346084805236    -1.749439211121
    C           -0.918930363910     0.341756927344     1.051474558125
    H            0.657960317288     1.642995207738     0.340052632661
    H            1.231373833937     0.302390781882     1.345018688635
    C           -1.449350703180    -1.076871217609     0.865689859047
    H           -1.574128772021     1.058312229946     0.570487459148
    H           -0.958694007462     0.590903384669     2.106539379111
    H           -1.529961958310    -1.347587020976    -0.180697118551
    H           -2.437317860868    -1.164808668191     1.300370225031
    H           -0.811229318108    -1.807634679628     1.351730490373

  Mulliken Charges: (a.u.)
   Center  Symbol    Alpha    Beta     Spin     Total
       1     H     0.46172  0.46172  0.00000  0.07657
       2     C     2.90562  2.90562  0.00000  0.18877
       3     C     3.09073  3.09073  0.00000 -0.18145
       4     O     4.16581  4.16581  0.00000 -0.33162
       5     C     3.08979  3.08979  0.00000 -0.17959
       6     H     0.44025  0.44025  0.00000  0.11949
       7     H     0.44916  0.44916  0.00000  0.10169
       8     C     3.15831  3.15831  0.00000 -0.31662
       9     H     0.44510  0.44510  0.00000  0.10980
      10     H     0.44976  0.44976  0.00000  0.10049
      11     H     0.44919  0.44919  0.00000  0.10161
      12     H     0.44266  0.44266  0.00000  0.11468
      13     H     0.45191  0.45191  0.00000  0.09619

   Total alpha = 20.00000, Total beta = 20.00000, Total charge =  0.00000
