  ==> Input File <==

--------------------------------------------------------------------------
set {
	reference rhf
	basis 6-31G*
}

set_num_threads( 1 )
memory 2 gb

molecule MOL {
0 1

H	 3.463771	 0.168298	 -0.756243
C	 2.752674	 -0.045734	 0.033351
C	 1.322923	 0.120767	 -0.479465
H	 2.934561	 -1.059086	 0.377456
H	 2.958358	 0.631174	 0.856809
C	 0.306652	 -0.176050	 0.621399
H	 1.144658	 -0.551717	 -1.312180
H	 1.166477	 1.131798	 -0.836680
N	 -1.068537	 -0.011044	 0.085269
H	 0.372515	 -1.192590	 0.973735
H	 0.391664	 0.520566	 1.441230
O	 -1.768568	 0.802075	 0.605046
O	 -1.389260	 -0.729598	 -0.811860

	symmetry c1
}
set optking {
	frozen_dihedral = ("
		7 3 6 9
	")
}

ee = energy('scf')
oeprop('DIPOLE', 'QUADRUPOLE', 'MULLIKEN_CHARGES')
f=open( 'psi4out.xyz', 'w' )
f.write( "13  " )
f.write( str(ee) + "\n" )
f.write( MOL.save_string_xyz() )
f.close()
--------------------------------------------------------------------------

    Molecular point group: c1

    Geometry (in Angstrom), charge = 0, multiplicity = 1:

       Center              X                  Y                   Z               Mass
    ------------   -----------------  -----------------  -----------------  -----------------
           H          3.467765703817     0.174608085528    -0.764546705111     1.007825032070
           C          2.756668703817    -0.039423914472     0.025047294889    12.000000000000
           C          1.326917703817     0.127077085528    -0.487768705111    12.000000000000
           H          2.938555703817    -1.052775914472     0.369152294889     1.007825032070
           H          2.962352703817     0.637484085528     0.848505294889     1.007825032070
           C          0.310646703817    -0.169739914472     0.613095294889    12.000000000000
           H          1.148652703817    -0.545406914472    -1.320483705111     1.007825032070
           H          1.170471703817     1.138108085528    -0.844983705111     1.007825032070
           N         -1.064542296183    -0.004733914472     0.076965294889    14.003074004780
           H          0.376509703817    -1.186279914472     0.965431294889     1.007825032070
           H          0.395658703817     0.526876085528     1.432926294889     1.007825032070
           O         -1.764573296183     0.808385085528     0.596742294889    15.994914619560
           O         -1.385265296183    -0.723287914472    -0.820163705111    15.994914619560

  Charge       = 0
  Multiplicity = 1
  Basis Set: 6-31G*
  Basis Set:

    Orbital Energies (a.u.)
    -----------------------

    Doubly Occupied:

       1A    -20.603021     2A    -20.599453     3A    -15.847426
       4A    -11.299346     5A    -11.254511     6A    -11.238771
       7A     -1.631072     8A     -1.416700     9A     -1.134981
      10A     -1.027743    11A     -0.883482    12A     -0.831863
      13A     -0.759741    14A     -0.737513    15A     -0.723770
      16A     -0.669292    17A     -0.604527    18A     -0.586675
      19A     -0.550596    20A     -0.521607    21A     -0.512629
      22A     -0.484481    23A     -0.473183    24A     -0.448612

  @DF-RHF Final Energy:  -321.73526875607399

   => Energetics <=

    Nuclear Repulsion Energy =            247.4981083690526873
    One-Electron Energy =                -928.7848175157166679
    Two-Electron Energy =                 359.5514403905900735
    DFT Exchange-Correlation Energy =       0.0000000000000000
    Empirical Dispersion Energy =           0.0000000000000000
    PCM Polarization Energy =               0.0000000000000000
    EFP Energy =                            0.0000000000000000
    Total Energy =                       -321.7352687560738786

  Mulliken Charges: (a.u.)
   Center  Symbol    Alpha    Beta     Spin     Total
       1     H     0.40760  0.40760  0.00000  0.18479
       2     C     3.24817  3.24817  0.00000 -0.49635
       3     C     3.17334  3.17334  0.00000 -0.34669
       4     H     0.41507  0.41507  0.00000  0.16986
       5     H     0.41560  0.41560  0.00000  0.16879
       6     C     3.08633  3.08633  0.00000 -0.17267
       7     H     0.39416  0.39416  0.00000  0.21167
       8     H     0.40430  0.40430  0.00000  0.19139
       9     N     3.22200  3.22200  0.00000  0.55600
      10     H     0.38735  0.38735  0.00000  0.22530
      11     H     0.38639  0.38639  0.00000  0.22722
      12     O     4.22846  4.22846  0.00000 -0.45692
      13     O     4.23120  4.23120  0.00000 -0.46240

   Total alpha = 24.00000, Total beta = 24.00000, Total charge =  0.00000
