  ==> Input File <==

--------------------------------------------------------------------------
set {
	reference rhf
	basis 6-31G*
}

set_num_threads( 4 )
memory 2 gb

molecule MOL {
0 1

H	 2.138600	 -1.026027	 -0.261502
C	 1.854263	 -0.016824	 -0.583161
C	 0.692068	 0.589600	 0.160137
O	 2.450110	 0.520089	 -1.459985
C	 -0.558097	 -0.297372	 0.091132
H	 0.501697	 1.573845	 -0.251567
H	 0.990712	 0.711550	 1.200700
C	 -1.850991	 0.512573	 -0.019058
H	 -0.476753	 -0.965681	 -0.762987
H	 -0.604799	 -0.930658	 0.975228
C	 -3.096943	 -0.368295	 -0.099594
H	 -1.800724	 1.150330	 -0.898172
H	 -1.931651	 1.177355	 0.838044
H	 -3.060452	 -1.020287	 -0.967456
H	 -3.996858	 0.233488	 -0.175704
H	 -3.191959	 -0.995686	 0.782074

	symmetry c1
}
set optking {
	frozen_dihedral = ("
		6 3 5 9
	")
}

ee = optimize('scf')
oeprop('DIPOLE', 'QUADRUPOLE', 'MULLIKEN_CHARGES')
f=open( 'psi4out.xyz', 'w' )
f.write( "16  " )
f.write( str(ee) + "\n" )
f.write( MOL.save_string_xyz() )
f.close()
--------------------------------------------------------------------------

    Molecular point group: c1
  Charge       = 0
  Multiplicity = 1
  Basis Set: 6-31G*
  Basis Set:
  @DF-RHF Final Energy:  -270.01608444979604
    Total Energy =                       -270.0160844497960966
    Molecular point group: c1
  Basis Set: 6-31G*
  Basis Set:
  Basis Set: 6-31G*
  Basis Set:
  @DF-RHF Final Energy:  -270.01554391992079
    Total Energy =                       -270.0155439199208445
  Basis Set: 6-31G*
  Basis Set:
  Basis Set: 6-31G*
  Basis Set:
  @DF-RHF Final Energy:  -270.01493638686941
    Total Energy =                       -270.0149363868695218
  Basis Set: 6-31G*
  Basis Set:
  Basis Set: 6-31G*
  Basis Set:
  @DF-RHF Final Energy:  -270.01638119088625
    Total Energy =                       -270.0163811908860225
  Basis Set: 6-31G*
  Basis Set:
  @DF-RHF Final Energy:  -270.01635683907551
    Total Energy =                       -270.0163568390755700
  Basis Set: 6-31G*
  Basis Set:
  @DF-RHF Final Energy:  -270.01644990210821
    Total Energy =                       -270.0164499021083202
  Basis Set: 6-31G*
  Basis Set:
  Basis Set: 6-31G*
  Basis Set:
  @DF-RHF Final Energy:  -270.01645858441640
    Total Energy =                       -270.0164585844161138
  Basis Set: 6-31G*
  Basis Set:
  Basis Set: 6-31G*
  Basis Set:
  @DF-RHF Final Energy:  -270.01646507424300
    Total Energy =                       -270.0164650742429444
  Basis Set: 6-31G*
  Basis Set:
  Charge       = 0
  Multiplicity = 1
  Basis Set: 6-31G*
  Basis Set:

    Orbital Energies (a.u.)
    -----------------------

    Doubly Occupied:

       1A    -20.561982     2A    -11.327028     3A    -11.236344
       4A    -11.235051     5A    -11.229175     6A    -11.218124
       7A     -1.402136     8A     -1.094867     9A     -1.018259
      10A     -0.906305    11A     -0.812614    12A     -0.795087
      13A     -0.673417    14A     -0.648347    15A     -0.628137
      16A     -0.602810    17A     -0.588889    18A     -0.541334
      19A     -0.528023    20A     -0.514415    21A     -0.486548
      22A     -0.483067    23A     -0.471793    24A     -0.409953

  @DF-RHF Final Energy:  -270.01646561340419

   => Energetics <=

    Nuclear Repulsion Energy =            228.8399341417714083
    One-Electron Energy =                -818.8853868770054305
    Two-Electron Energy =                 320.0289871218295730
    DFT Exchange-Correlation Energy =       0.0000000000000000
    Empirical Dispersion Energy =           0.0000000000000000
    PCM Polarization Energy =               0.0000000000000000
    EFP Energy =                            0.0000000000000000
    Total Energy =                       -270.0164656134044208
    Molecular point group: c1
  Basis Set: 6-31G*
  Basis Set:

  -Total Gradient:
     Atom            X                  Y                   Z
    ------   -----------------  -----------------  -----------------
       1       -0.000028516247     0.000001539827     0.000021005186
       2       -0.000005296393     0.000010128966    -0.000010682556
       3        0.001721517510    -0.002063011336    -0.003630566095
       4       -0.000005386548     0.000015380725     0.000003049318
       5       -0.002260908838     0.003325166579    -0.001691576071
       6       -0.001031702592     0.001157585226     0.003267985767
       7        0.000008500989    -0.000005164106     0.000001767979
       8        0.000014623521    -0.000009863923    -0.000035287928
       9        0.001581150835    -0.002426612378     0.002059587269
      10        0.000008601660    -0.000006998514     0.000006071279
      11       -0.000003304581     0.000004746312     0.000007237454
      12       -0.000009944016     0.000014307341    -0.000005486021
      13        0.000012142441    -0.000019065371    -0.000001820465
      14        0.000008899368     0.000003345716     0.000007974983
      15       -0.000003704876    -0.000001084785    -0.000004065290
      16       -0.000006672232    -0.000000400281     0.000004805191

  **** Optimization is complete! (in 9 steps) ****
    Final optimized geometry and variables:
    Molecular point group: c1

    Geometry (in Angstrom), charge = 0, multiplicity = 1:

    H            2.135574624013    -1.232933134399    -0.024904772803
    C            1.950625689320    -0.176529353000    -0.253852375274
    C            0.755461422410     0.429355222230     0.433289252354
    O            2.671790531308     0.409052381185    -0.994677874227
    C           -0.502835603606    -0.459708609742     0.351730873791
    H            0.579265140744     1.417652976623     0.024852070675
    H            1.026404262299     0.576378790530     1.477919520871
    C           -1.798972327541     0.346562563084     0.269340399768
    H           -0.431945783675    -1.133338906275    -0.500457585453
    H           -0.540990977888    -1.109613782508     1.222476530873
    C           -3.045457407104    -0.535985636503     0.240100332634
    H           -1.774350011768     0.971753014284    -0.619706010683
    H           -1.853299653033     1.023816311046     1.118795197870
    H           -3.031750800777    -1.205444078158    -0.615172179914
    H           -3.947407774624     0.064074657169     0.175763329076
    H           -3.116696961486    -1.145558546895     1.136346646273

  Mulliken Charges: (a.u.)
   Center  Symbol    Alpha    Beta     Spin     Total
       1     H     0.43146  0.43146  0.00000  0.13709
       2     C     2.83064  2.83064  0.00000  0.33873
       3     C     3.21093  3.21093  0.00000 -0.42187
       4     O     4.23833  4.23833  0.00000 -0.47666
       5     C     3.16493  3.16493  0.00000 -0.32986
       6     H     0.39797  0.39797  0.00000  0.20406
       7     H     0.40558  0.40558  0.00000  0.18884
       8     C     3.15286  3.15286  0.00000 -0.30572
       9     H     0.41629  0.41629  0.00000  0.16741
      10     H     0.41682  0.41682  0.00000  0.16637
      11     C     3.24104  3.24104  0.00000 -0.48207
      12     H     0.41713  0.41713  0.00000  0.16574
      13     H     0.41967  0.41967  0.00000  0.16065
      14     H     0.41962  0.41962  0.00000  0.16075
      15     H     0.41618  0.41618  0.00000  0.16763
      16     H     0.42054  0.42054  0.00000  0.15892

   Total alpha = 24.00000, Total beta = 24.00000, Total charge = -0.00000
