  ==> Input File <==

--------------------------------------------------------------------------
set {
	reference rhf
	basis cc-pvtz
}

set_num_threads( 4 )
memory 2 gb

molecule MOL {
0 1

H	 2.342730	 0.877684	 -1.045694
C	 2.360424	 0.000000	 -0.411793
C	 1.173749	 0.000000	 0.526870
H	 3.286567	 0.000000	 0.151574
H	 2.342730	 -0.877684	 -1.045694
O	 -0.000000	 0.000000	 -0.223739
H	 1.203779	 0.876757	 1.172538
H	 1.203779	 -0.876757	 1.172538
C	 -1.173749	 0.000000	 0.526870
C	 -2.264123	 0.692323	 -0.261204
H	 -1.010650	 0.511676	 1.474540
H	 -1.467987	 -1.022669	 0.759388
H	 -1.982199	 1.714221	 -0.481922
H	 -3.188626	 0.704109	 0.304726
H	 -2.440020	 0.178254	 -1.197829

	symmetry c1
}
set optking {
	frozen_dihedral = ("
		11 9 6 3
	")
}

ee = optimize('scf')
oeprop('DIPOLE', 'QUADRUPOLE', 'MULLIKEN_CHARGES')
f=open( 'psi4out.xyz', 'w' )
f.write( "15  " )
f.write( str(ee) + "\n" )
f.write( MOL.save_string_xyz() )
f.close()
--------------------------------------------------------------------------

    Molecular point group: c1
  Charge       = 0
  Multiplicity = 1
  Basis Set: CC-PVTZ
  Basis Set:
  @DF-RHF Final Energy:  -232.23182863248954
    Total Energy =                       -232.2318286324893393
    Molecular point group: c1
  Basis Set: CC-PVTZ
  Basis Set:
  Basis Set: CC-PVTZ
  Basis Set:
  @DF-RHF Final Energy:  -232.23192968272167
    Total Energy =                       -232.2319296827217272
  Basis Set: CC-PVTZ
  Basis Set:
  Basis Set: CC-PVTZ
  Basis Set:
  @DF-RHF Final Energy:  -232.23196033564014
    Total Energy =                       -232.2319603356398261
  Basis Set: CC-PVTZ
  Basis Set:
  Charge       = 0
  Multiplicity = 1
  Basis Set: CC-PVTZ
  Basis Set:

    Orbital Energies (a.u.)
    -----------------------

    Doubly Occupied:

       1A    -20.544009     2A    -11.266602     3A    -11.265976
       4A    -11.207408     5A    -11.207074     6A     -1.379386
       7A     -1.044755     8A     -0.983660     9A     -0.848492
      10A     -0.825888    11A     -0.676621    12A     -0.667795
      13A     -0.617312    14A     -0.589847    15A     -0.550056
      16A     -0.533589    17A     -0.522932    18A     -0.496777
      19A     -0.486606    20A     -0.466421    21A     -0.410671

  @DF-RHF Final Energy:  -232.23196068591494

   => Energetics <=

    Nuclear Repulsion Energy =            191.2851770584325095
    One-Electron Energy =                -693.8505253231788856
    Two-Electron Energy =                 270.3333875788311502
    DFT Exchange-Correlation Energy =       0.0000000000000000
    Empirical Dispersion Energy =           0.0000000000000000
    PCM Polarization Energy =               0.0000000000000000
    EFP Energy =                            0.0000000000000000
    Total Energy =                       -232.2319606859152259
    Molecular point group: c1
  Basis Set: CC-PVTZ
  Basis Set:

  -Total Gradient:
     Atom            X                  Y                   Z
    ------   -----------------  -----------------  -----------------
       1        0.000000755232    -0.000003928691     0.000000593176
       2        0.000015460819     0.000010770279     0.000012437722
       3        0.000040170238     0.002284542788     0.000017256403
       4        0.000024930264     0.000002295369    -0.000004344544
       5       -0.000010000984     0.000006655909     0.000012623505
       6        0.000128470726    -0.003991788600     0.000288960658
       7       -0.000008871199    -0.000005293508    -0.000011957329
       8       -0.000002063236     0.000007375766    -0.000000038581
       9       -0.000913405111     0.004196142324    -0.001507368809
      10       -0.000012138977    -0.000015308470    -0.000008901310
      11        0.000733246179    -0.002484279473     0.001188115106
      12       -0.000003036483     0.000002195589    -0.000008833608
      13        0.000015034285    -0.000010336360     0.000009018560
      14       -0.000005904040    -0.000004957010     0.000008612918
      15       -0.000002647716     0.000005914088     0.000003826133

  **** Optimization is complete! (in 4 steps) ****
    Final optimized geometry and variables:
    Molecular point group: c1

    Geometry (in Angstrom), charge = 0, multiplicity = 1:

    H            2.326464050923     0.719444702883    -1.086232257534
    C            2.342943135612    -0.155393248833    -0.448199825419
    C            1.162813523546    -0.142362970071     0.498509270394
    H            3.273025673754    -0.159017211936     0.108952781771
    H            2.315072713643    -1.035826520891    -1.077942093857
    O           -0.015183796631    -0.127189728155    -0.245928195245
    H            1.205908989780     0.734101777681     1.142930635846
    H            1.191212872670    -1.019572176329     1.144183508689
    C           -1.197539143993    -0.129558574083     0.496390876634
    C           -2.294568338693     0.546824065910    -0.296308208988
    H           -1.044938399274     0.368422813708     1.451362439896
    H           -1.480001842217    -1.155941797867     0.726252063444
    H           -2.042389725806     1.581836692610    -0.491580440400
    H           -3.230501769505     0.515241113883     0.250337945471
    H           -2.435393098750     0.046927452583    -1.246581647811

  Mulliken Charges: (a.u.)
   Center  Symbol    Alpha    Beta     Spin     Total
       1     H     0.45168  0.45168  0.00000  0.09664
       2     C     3.13620  3.13620  0.00000 -0.27241
       3     C     2.96557  2.96557  0.00000  0.06887
       4     H     0.45907  0.45907  0.00000  0.08187
       5     H     0.45145  0.45145  0.00000  0.09711
       6     O     4.18117  4.18117  0.00000 -0.36234
       7     H     0.47301  0.47301  0.00000  0.05399
       8     H     0.47390  0.47390  0.00000  0.05221
       9     C     2.96944  2.96944  0.00000  0.06112
      10     C     3.13426  3.13426  0.00000 -0.26853
      11     H     0.47417  0.47417  0.00000  0.05165
      12     H     0.46681  0.46681  0.00000  0.06638
      13     H     0.45358  0.45358  0.00000  0.09285
      14     H     0.45906  0.45906  0.00000  0.08188
      15     H     0.45064  0.45064  0.00000  0.09872

   Total alpha = 21.00000, Total beta = 21.00000, Total charge =  0.00000
