  ==> Input File <==

--------------------------------------------------------------------------
set {
	reference rhf
	basis 6-31G*
}

set_num_threads( 4 )
memory 2 gb

molecule MOL {
0 1

H	 -4.244132	 0.029284	 0.659923
O	 -3.521580	 -0.330725	 0.165739
C	 -2.312111	 0.201130	 0.642087
C	 -1.177863	 -0.397191	 -0.171080
H	 -2.307017	 1.286157	 0.547232
H	 -2.179094	 -0.034529	 1.697128
C	 0.198102	 0.111031	 0.262842
H	 -1.349222	 -0.165679	 -1.218824
H	 -1.224508	 -1.478753	 -0.078754
C	 1.331804	 -0.827780	 -0.158768
H	 0.361943	 1.100838	 -0.156218
H	 0.217265	 0.229072	 1.345532
C	 2.723619	 -0.410569	 0.329459
H	 1.342964	 -0.912588	 -1.244120
H	 1.116806	 -1.824343	 0.220779
C	 3.243875	 0.895854	 -0.272975
H	 3.424222	 -1.207124	 0.091250
H	 2.714788	 -0.329854	 1.414619
H	 3.251977	 0.848779	 -1.358681
H	 2.637085	 1.747371	 0.016682
H	 4.259473	 1.094070	 0.055697

	symmetry c1
}
set optking {
	frozen_dihedral = ("
		8 4 7 10
	")
}

ee = optimize('scf')
oeprop('DIPOLE', 'QUADRUPOLE', 'MULLIKEN_CHARGES')
f=open( 'psi4out.xyz', 'w' )
f.write( "21  " )
f.write( str(ee) + "\n" )
f.write( MOL.save_string_xyz() )
f.close()
--------------------------------------------------------------------------

    Molecular point group: c1
  Charge       = 0
  Multiplicity = 1
  Basis Set: 6-31G*
  Basis Set:
  @DF-RHF Final Energy:  -310.21138480500781
    Total Energy =                       -310.2113848050080946
    Molecular point group: c1
  Basis Set: 6-31G*
  Basis Set:
  Basis Set: 6-31G*
  Basis Set:
  @DF-RHF Final Energy:  -310.21151958988872
    Total Energy =                       -310.2115195898887805
  Basis Set: 6-31G*
  Basis Set:
  Basis Set: 6-31G*
  Basis Set:
  @DF-RHF Final Energy:  -310.21157682172213
    Total Energy =                       -310.2115768217221898
  Basis Set: 6-31G*
  Basis Set:
  Basis Set: 6-31G*
  Basis Set:
  @DF-RHF Final Energy:  -310.21158548401564
    Total Energy =                       -310.2115854840153020
  Basis Set: 6-31G*
  Basis Set:
  Basis Set: 6-31G*
  Basis Set:
  @DF-RHF Final Energy:  -310.21158780352880
    Total Energy =                       -310.2115878035290280
  Basis Set: 6-31G*
  Basis Set:
  Charge       = 0
  Multiplicity = 1
  Basis Set: 6-31G*
  Basis Set:

    Orbital Energies (a.u.)
    -----------------------

    Doubly Occupied:

       1A    -20.551781     2A    -11.266991     3A    -11.215724
       4A    -11.215164     5A    -11.213711     6A    -11.210614
       7A    -11.208119     8A     -1.358699     9A     -1.085857
      10A     -1.033023    11A     -0.954355    12A     -0.875360
      13A     -0.807084    14A     -0.779363    15A     -0.692748
      16A     -0.660941    17A     -0.620449    18A     -0.608978
      19A     -0.588601    20A     -0.563112    21A     -0.543015
      22A     -0.518330    23A     -0.507409    24A     -0.491939
      25A     -0.476831    26A     -0.458577    27A     -0.456637
      28A     -0.443327    29A     -0.433742

  @DF-RHF Final Energy:  -310.21158805918071

   => Energetics <=

    Nuclear Repulsion Energy =            312.3255681732614448
    One-Electron Energy =               -1039.3933532901237413
    Two-Electron Energy =                 416.8561970576816407
    DFT Exchange-Correlation Energy =       0.0000000000000000
    Empirical Dispersion Energy =           0.0000000000000000
    PCM Polarization Energy =               0.0000000000000000
    EFP Energy =                            0.0000000000000000
    Total Energy =                       -310.2115880591806558
    Molecular point group: c1
  Basis Set: 6-31G*
  Basis Set:

  -Total Gradient:
     Atom            X                  Y                   Z
    ------   -----------------  -----------------  -----------------
       1        0.000012226165     0.000004901165     0.000005269925
       2        0.000040352239    -0.000003384499    -0.000003788313
       3       -0.000004658455     0.000019365998     0.000045799301
       4        0.001552963061    -0.003910948283    -0.000432459581
       5       -0.000004124280    -0.000003950363    -0.000003691996
       6       -0.000021971589     0.000003903664     0.000012578466
       7       -0.000035167305     0.002378749954    -0.002478987393
       8       -0.001295952541     0.002766066375     0.000895165677
       9        0.000023500930     0.000006908102     0.000010051524
      10       -0.000215452289    -0.001232292428     0.001899410167
      11       -0.000041183530    -0.000020378657     0.000011512545
      12       -0.000008048642    -0.000004214340     0.000012352464
      13       -0.000007932161    -0.000003240202     0.000033477984
      14        0.000008124548    -0.000036562737    -0.000010247639
      15       -0.000021186182     0.000018738017     0.000009069056
      16       -0.000007479455     0.000013922008    -0.000004451247
      17        0.000000281438     0.000017081022    -0.000009140097
      18        0.000015124809    -0.000017080569     0.000008748359
      19       -0.000001288616    -0.000003829664     0.000006834787
      20        0.000014469983     0.000001774332    -0.000004054777
      21       -0.000002598126     0.000004471105    -0.000003449213

  **** Optimization is complete! (in 6 steps) ****
    Final optimized geometry and variables:
    Molecular point group: c1

    Geometry (in Angstrom), charge = 0, multiplicity = 1:

    H           -4.248718657355     0.195983098523     0.474835035939
    O           -3.525032011110    -0.167026344991    -0.015502024482
    C           -2.311833457235     0.285236575605     0.528053872805
    C           -1.174498520842    -0.322945433365    -0.275608567734
    H           -2.255539453608     1.372565382134     0.489041573956
    H           -2.227257382030    -0.008051196505     1.573496943668
    C            0.199595979322     0.173182621551     0.188764368321
    H           -1.336665109436    -0.057873631393    -1.316286933234
    H           -1.241155100626    -1.404123249815    -0.200910310128
    C            1.343203505141    -0.746160613513    -0.249374070960
    H            0.357844104557     1.183081196601    -0.178098918988
    H            0.213868147001     0.238856668956     1.276627987356
    C            2.735249070145    -0.301881787871     0.213525130182
    H            1.339193382490    -0.839717778472    -1.334480271903
    H            1.149300900556    -1.742562381152     0.140852016206
    C            3.232475805742     0.997841185685    -0.422091637395
    H            3.443061340202    -1.094294265441    -0.017031307114
    H            2.738500241499    -0.199279925457     1.296986371729
    H            3.231129039678     0.926690584064    -1.506448512198
    H            2.617482151386     1.847818950188    -0.145715905549
    H            4.248403178741     1.216410229271    -0.107627374723

  Mulliken Charges: (a.u.)
   Center  Symbol    Alpha    Beta     Spin     Total
       1     H     0.28119  0.28119  0.00000  0.43763
       2     O     4.37181  4.37181  0.00000 -0.74363
       3     C     2.99097  2.99097  0.00000  0.01805
       4     C     3.15905  3.15905  0.00000 -0.31810
       5     H     0.43311  0.43311  0.00000  0.13378
       6     H     0.43270  0.43270  0.00000  0.13460
       7     C     3.16256  3.16256  0.00000 -0.32512
       8     H     0.41337  0.41337  0.00000  0.17326
       9     H     0.41468  0.41468  0.00000  0.17064
      10     C     3.15222  3.15222  0.00000 -0.30445
      11     H     0.41895  0.41895  0.00000  0.16209
      12     H     0.42551  0.42551  0.00000  0.14897
      13     C     3.15283  3.15283  0.00000 -0.30566
      14     H     0.42285  0.42285  0.00000  0.15430
      15     H     0.42106  0.42106  0.00000  0.15788
      16     C     3.24097  3.24097  0.00000 -0.48194
      17     H     0.42061  0.42061  0.00000  0.15878
      18     H     0.42378  0.42378  0.00000  0.15243
      19     H     0.42176  0.42176  0.00000  0.15647
      20     H     0.42071  0.42071  0.00000  0.15858
      21     H     0.41929  0.41929  0.00000  0.16143

   Total alpha = 29.00000, Total beta = 29.00000, Total charge =  0.00000
