  ==> Input File <==

--------------------------------------------------------------------------
set {
	reference rhf
	basis 6-31G*
}

set_num_threads( 1 )
memory 2 gb

molecule MOL {
0 1

H	 2.591676	 2.013956	 0.335017
O	 3.341076	 1.666752	 -0.126416
C	 3.569581	 0.339145	 0.272707
C	 4.508397	 0.224081	 1.468581
H	 2.597914	 -0.061931	 0.530921
H	 3.950795	 -0.249200	 -0.561143
C	 5.929511	 0.722182	 1.194357
H	 4.080177	 0.780931	 2.297985
H	 4.543756	 -0.820771	 1.772557
C	 6.861072	 0.543283	 2.396441
H	 5.892631	 1.771977	 0.916986
H	 6.342438	 0.186190	 0.339638
C	 8.318720	 0.947656	 2.147271
H	 6.469792	 1.109234	 3.239914
H	 6.840501	 -0.501963	 2.697669
C	 8.539759	 2.442714	 1.901464
H	 8.908989	 0.647316	 3.010517
H	 8.709426	 0.381618	 1.303004
C	 10.018291	 2.811923	 1.763386
H	 8.104081	 3.009845	 2.722839
H	 8.014307	 2.755922	 1.002518
C	 10.241384	 4.302721	 1.511563
H	 10.549077	 2.515289	 2.665473
H	 10.457692	 2.239023	 0.949386
H	 9.841548	 4.901840	 2.324836
H	 11.298448	 4.532782	 1.420338
H	 9.753221	 4.623382	 0.595464

	symmetry c1
}
set optking {
	frozen_dihedral = ("
		14 10 7 4,
		14 10 13 16,
		10 7 4 8,
		8 4 3 2,
		10 13 16 20,
		20 16 19 22
	")
}

ee = energy('scf')
oeprop('DIPOLE', 'QUADRUPOLE', 'MULLIKEN_CHARGES')
f=open( 'psi4out.xyz', 'w' )
f.write( "27  " )
f.write( str(ee) + "\n" )
f.write( MOL.save_string_xyz() )
f.close()
--------------------------------------------------------------------------

    Molecular point group: c1

    Geometry (in Angstrom), charge = 0, multiplicity = 1:

       Center              X                  Y                   Z               Mass
    ------------   -----------------  -----------------  -----------------  -----------------
           H         -4.164624109220     0.440730385219    -1.029917798324     1.007825032070
           O         -3.415224109220     0.093526385219    -1.491350798324    15.994914619560
           C         -3.186719109220    -1.234080614781    -1.092227798324    12.000000000000
           C         -2.247903109220    -1.349144614781     0.103646201676    12.000000000000
           H         -4.158386109220    -1.635156614781    -0.834013798324     1.007825032070
           H         -2.805505109220    -1.822425614781    -1.926077798324     1.007825032070
           C         -0.826789109220    -0.851043614781    -0.170577798324    12.000000000000
           H         -2.676123109220    -0.792294614781     0.933050201676     1.007825032070
           H         -2.212544109220    -2.393996614781     0.407622201676     1.007825032070
           C          0.104771890780    -1.029942614781     1.031506201676    12.000000000000
           H         -0.863669109220     0.198751385219    -0.447948798324     1.007825032070
           H         -0.413862109220    -1.387035614781    -1.025296798324     1.007825032070
           C          1.562419890780    -0.625569614781     0.782336201676    12.000000000000
           H         -0.286508109220    -0.463991614781     1.874979201676     1.007825032070
           H          0.084200890780    -2.075188614781     1.332734201676     1.007825032070
           C          1.783458890780     0.869488385219     0.536529201676    12.000000000000
           H          2.152688890780    -0.925909614781     1.645582201676     1.007825032070
           H          1.953125890780    -1.191607614781    -0.061930798324     1.007825032070
           C          3.261990890780     1.238697385219     0.398451201676    12.000000000000
           H          1.347780890780     1.436619385219     1.357904201676     1.007825032070
           H          1.258006890780     1.182696385219    -0.362416798324     1.007825032070
           C          3.485083890780     2.729495385219     0.146628201676    12.000000000000
           H          3.792776890780     0.942063385219     1.300538201676     1.007825032070
           H          3.701391890780     0.665797385219    -0.415548798324     1.007825032070
           H          3.085247890780     3.328614385219     0.959901201676     1.007825032070
           H          4.542147890780     2.959556385219     0.055403201676     1.007825032070
           H          2.996920890780     3.050156385219    -0.769470798324     1.007825032070

  Charge       = 0
  Multiplicity = 1
  Basis Set: 6-31G*
  Basis Set:

    Orbital Energies (a.u.)
    -----------------------

    Doubly Occupied:

       1A    -20.551560     2A    -11.268495     3A    -11.214021
       4A    -11.211449     5A    -11.210850     6A    -11.210117
       7A    -11.208699     8A    -11.208534     9A    -11.205266
      10A     -1.359421    11A     -1.089167    12A     -1.056788
      13A     -1.008067    14A     -0.943569    15A     -0.881399
      16A     -0.816437    17A     -0.798066    18A     -0.772557
      19A     -0.689682    20A     -0.649815    21A     -0.640108
      22A     -0.607363    23A     -0.599087    24A     -0.584491
      25A     -0.569377    26A     -0.552197    27A     -0.535718
      28A     -0.519495    29A     -0.508268    30A     -0.491755
      31A     -0.476479    32A     -0.468306    33A     -0.462317
      34A     -0.455947    35A     -0.449705    36A     -0.436767
      37A     -0.418848

  @DF-RHF Final Energy:  -388.27966762580843

   => Energetics <=

    Nuclear Repulsion Energy =            458.7301829161716569
    One-Electron Energy =               -1435.7592821279786222
    Two-Electron Energy =                 588.7494315859985363
    DFT Exchange-Correlation Energy =       0.0000000000000000
    Empirical Dispersion Energy =           0.0000000000000000
    PCM Polarization Energy =               0.0000000000000000
    EFP Energy =                            0.0000000000000000
    Total Energy =                       -388.2796676258084290

  Mulliken Charges: (a.u.)
   Center  Symbol    Alpha    Beta     Spin     Total
       1     H     0.28024  0.28024  0.00000  0.43952
       2     O     4.37073  4.37073  0.00000 -0.74146
       3     C     2.99895  2.99895  0.00000  0.00209
       4     C     3.15934  3.15934  0.00000 -0.31869
       5     H     0.43049  0.43049  0.00000  0.13903
       6     H     0.41847  0.41847  0.00000  0.16306
       7     C     3.15586  3.15586  0.00000 -0.31172
       8     H     0.42580  0.42580  0.00000  0.14840
       9     H     0.42514  0.42514  0.00000  0.14973
      10     C     3.15289  3.15289  0.00000 -0.30578
      11     H     0.40872  0.40872  0.00000  0.18257
      12     H     0.42536  0.42536  0.00000  0.14927
      13     C     3.15275  3.15275  0.00000 -0.30550
      14     H     0.42477  0.42477  0.00000  0.15046
      15     H     0.42416  0.42416  0.00000  0.15168
      16     C     3.15308  3.15308  0.00000 -0.30616
      17     H     0.42286  0.42286  0.00000  0.15429
      18     H     0.42414  0.42414  0.00000  0.15173
      19     C     3.15103  3.15103  0.00000 -0.30206
      20     H     0.42521  0.42521  0.00000  0.14958
      21     H     0.42001  0.42001  0.00000  0.15997
      22     C     3.23912  3.23912  0.00000 -0.47823
      23     H     0.42393  0.42393  0.00000  0.15214
      24     H     0.42328  0.42328  0.00000  0.15343
      25     H     0.42226  0.42226  0.00000  0.15548
      26     H     0.42007  0.42007  0.00000  0.15986
      27     H     0.42135  0.42135  0.00000  0.15731

   Total alpha = 37.00000, Total beta = 37.00000, Total charge = -0.00000
