  ==> Input File <==

--------------------------------------------------------------------------
set {
	reference rhf
	basis cc-pvtz
}

set_num_threads( 4 )
memory 2 gb

molecule MOL {
0 1

H	 -1.835082	 1.385983	 0.000069
C	 -1.300516	 0.441153	 -0.000028
O	 -0.006604	 0.654344	 -0.000106
O	 -1.828920	 -0.612308	 0.000113
C	 0.852093	 -0.482521	 -0.000161
C	 0.905512	 -1.020083	 1.410114
H	 1.829446	 -0.181954	 -0.350016
H	 0.461565	 -1.215158	 -0.692038
H	 1.294639	 -0.274922	 2.092232
H	 1.552666	 -1.888329	 1.444695
H	 -0.080128	 -1.313297	 1.748505

	symmetry c1
}
set optking {
	frozen_dihedral = ("
		7 5 3 2
	")
}

ee = optimize('scf')
oeprop('DIPOLE', 'QUADRUPOLE', 'MULLIKEN_CHARGES')
f=open( 'psi4out.xyz', 'w' )
f.write( "11  " )
f.write( str(ee) + "\n" )
f.write( MOL.save_string_xyz() )
f.close()
--------------------------------------------------------------------------

    Molecular point group: c1
  Charge       = 0
  Multiplicity = 1
  Basis Set: CC-PVTZ
  Basis Set:
  @DF-RHF Final Energy:  -266.92891800377038
    Total Energy =                       -266.9289180037703773
    Molecular point group: c1
  Basis Set: CC-PVTZ
  Basis Set:
  Basis Set: CC-PVTZ
  Basis Set:
  @DF-RHF Final Energy:  -266.93050501297677
    Total Energy =                       -266.9305050129767096
  Basis Set: CC-PVTZ
  Basis Set:
  Basis Set: CC-PVTZ
  Basis Set:
  @DF-RHF Final Energy:  -266.92721333833367
    Total Energy =                       -266.9272133383338428
  Basis Set: CC-PVTZ
  Basis Set:
  Basis Set: CC-PVTZ
  Basis Set:
  @DF-RHF Final Energy:  -266.93077749683960
    Total Energy =                       -266.9307774968397666
  Basis Set: CC-PVTZ
  Basis Set:
  Basis Set: CC-PVTZ
  Basis Set:
  @DF-RHF Final Energy:  -266.93079911499092
    Total Energy =                       -266.9307991149909185
  Basis Set: CC-PVTZ
  Basis Set:
  Charge       = 0
  Multiplicity = 1
  Basis Set: CC-PVTZ
  Basis Set:

    Orbital Energies (a.u.)
    -----------------------

    Doubly Occupied:

       1A    -20.605225     2A    -20.545616     3A    -11.370950
       4A    -11.290246     5A    -11.221168     6A     -1.478597
       7A     -1.377447     8A     -1.049378     9A     -0.913317
      10A     -0.796658    11A     -0.747455    12A     -0.687779
      13A     -0.657236    14A     -0.626208    15A     -0.577213
      16A     -0.542379    17A     -0.538091    18A     -0.502403
      19A     -0.462493    20A     -0.456346

  @DF-RHF Final Energy:  -266.93080008900870

   => Energetics <=

    Nuclear Repulsion Energy =            182.6057753309283669
    One-Electron Energy =                -726.1807440379487844
    Two-Electron Energy =                 276.6441686180118040
    DFT Exchange-Correlation Energy =       0.0000000000000000
    Empirical Dispersion Energy =           0.0000000000000000
    PCM Polarization Energy =               0.0000000000000000
    EFP Energy =                            0.0000000000000000
    Total Energy =                       -266.9308000890085850
    Molecular point group: c1
  Basis Set: CC-PVTZ
  Basis Set:

  -Total Gradient:
     Atom            X                  Y                   Z
    ------   -----------------  -----------------  -----------------
       1        0.000020857125    -0.000020245765    -0.000023265366
       2        0.000025313518    -0.000049255284     0.000872917228
       3        0.000092770306     0.000147096319    -0.001010341284
       4       -0.000079328286    -0.000006409456    -0.000006701922
       5       -0.000231515983    -0.000344901237    -0.000638378778
       6       -0.000082544458     0.000056720311    -0.000044521667
       7        0.000224325567     0.000222681104     0.000843934942
       8        0.000004111527     0.000000517641     0.000010908444
       9        0.000003665598    -0.000008054800     0.000008933259
      10        0.000015730069     0.000002803261    -0.000020507378
      11        0.000006615020    -0.000000952092     0.000007022520

  **** Optimization is complete! (in 6 steps) ****
    Final optimized geometry and variables:
    Molecular point group: c1

    Geometry (in Angstrom), charge = 0, multiplicity = 1:

    H           -1.527401364375     1.641373846384    -0.344582998778
    C           -1.025745160614     0.679097083207    -0.315936170836
    O            0.274086766355     0.852282298296    -0.299139797510
    O           -1.592856936176    -0.354449640947    -0.308835093903
    C            1.116962297412    -0.297554233831    -0.249776925159
    C            1.237121439067    -0.850062227493     1.155462064367
    H            2.073524125391     0.056242719876    -0.602026744196
    H            0.738975164149    -1.042166784121    -0.933523769128
    H            1.598829286398    -0.087972745808     1.834958384144
    H            1.943775662145    -1.672127820394     1.158861405888
    H            0.285836872509    -1.217734786084     1.513276512519

  Mulliken Charges: (a.u.)
   Center  Symbol    Alpha    Beta     Spin     Total
       1     H     0.44586  0.44586  0.00000  0.10827
       2     C     2.84258  2.84258  0.00000  0.31484
       3     O     4.14894  4.14894  0.00000 -0.29789
       4     O     4.19744  4.19744  0.00000 -0.39488
       5     C     2.98111  2.98111  0.00000  0.03779
       6     C     3.14725  3.14725  0.00000 -0.29450
       7     H     0.44373  0.44373  0.00000  0.11254
       8     H     0.44943  0.44943  0.00000  0.10115
       9     H     0.45156  0.45156  0.00000  0.09688
      10     H     0.45111  0.45111  0.00000  0.09777
      11     H     0.44099  0.44099  0.00000  0.11802

   Total alpha = 20.00000, Total beta = 20.00000, Total charge = -0.00000
