  ==> Input File <==

--------------------------------------------------------------------------
set {
	reference rhf
	basis 6-31G*
}

set_num_threads( 1 )
memory 2 gb

molecule MOL {
0 1

O	 1.214711	 1.306902	 -0.000018
C	 1.122059	 0.121804	 -0.000188
C	 -0.170150	 -0.657997	 -0.000612
O	 2.172624	 -0.688929	 0.000216
C	 -1.412532	 0.227344	 -0.000452
H	 -0.153702	 -1.313099	 -0.867402
H	 -0.153924	 -1.313811	 0.865644
C	 -1.199853	 1.527741	 -0.777048
H	 -1.692333	 0.452059	 1.024106
H	 -2.245281	 -0.323674	 -0.426375
C	 -2.440173	 2.420251	 -0.783054
H	 -0.363904	 2.075519	 -0.346693
H	 -0.917190	 1.296808	 -1.802154
H	 -2.728146	 2.697072	 0.226944
H	 -2.262732	 3.335132	 -1.339636
H	 -3.285195	 1.913035	 -1.239464
C	 3.452279	 -0.082609	 0.000533
H	 3.583069	 0.529321	 -0.880332
H	 4.163299	 -0.894027	 0.001117
H	 3.582335	 0.529955	 0.881077

	symmetry c1
}
set optking {
	frozen_dihedral = ("
		9 5 8 12,
		1 2 3 6,
		1 2 4 17
	")
}

ee = energy('scf')
oeprop('DIPOLE', 'QUADRUPOLE', 'MULLIKEN_CHARGES')
f=open( 'psi4out.xyz', 'w' )
f.write( "20  " )
f.write( str(ee) + "\n" )
f.write( MOL.save_string_xyz() )
f.close()
--------------------------------------------------------------------------

    Molecular point group: c1

    Geometry (in Angstrom), charge = 0, multiplicity = 1:

       Center              X                  Y                   Z               Mass
    ------------   -----------------  -----------------  -----------------  -----------------
           O          0.836478551388     0.776100431777     0.195189334353    15.994914619560
           C          0.743826551388    -0.408997568223     0.195019334353    12.000000000000
           C         -0.548382448612    -1.188798568223     0.194595334353    12.000000000000
           O          1.794391551388    -1.219730568223     0.195423334353    15.994914619560
           C         -1.790764448612    -0.303457568223     0.194755334353    12.000000000000
           H         -0.531934448612    -1.843900568223    -0.672194665647     1.007825032070
           H         -0.532156448612    -1.844612568223     1.060851334353     1.007825032070
           C         -1.578085448612     0.996939431777    -0.581840665647    12.000000000000
           H         -2.070565448612    -0.078742568223     1.219313334353     1.007825032070
           H         -2.623513448612    -0.854475568223    -0.231167665647     1.007825032070
           C         -2.818405448612     1.889449431777    -0.587846665647    12.000000000000
           H         -0.742136448612     1.544717431777    -0.151485665647     1.007825032070
           H         -1.295422448612     0.766006431777    -1.606946665647     1.007825032070
           H         -3.106378448612     2.166270431777     0.422151334353     1.007825032070
           H         -2.640964448612     2.804330431777    -1.144428665647     1.007825032070
           H         -3.663427448612     1.382233431777    -1.044256665647     1.007825032070
           C          3.074046551388    -0.613410568223     0.195740334353    12.000000000000
           H          3.204836551388    -0.001480568223    -0.685124665647     1.007825032070
           H          3.785066551388    -1.424828568223     0.196324334353     1.007825032070
           H          3.204102551388    -0.000846568223     1.076284334353     1.007825032070

  Charge       = 0
  Multiplicity = 1
  Basis Set: 6-31G*
  Basis Set:

    Orbital Energies (a.u.)
    -----------------------

    Doubly Occupied:

       1A    -20.607373     2A    -20.547130     3A    -11.377822
       4A    -11.283437     5A    -11.236832     6A    -11.217315
       7A    -11.195276     8A    -11.190073     9A     -1.474598
      10A     -1.370714    11A     -1.083770    12A     -1.017519
      13A     -0.966720    14A     -0.879849    15A     -0.799620
      16A     -0.774831    17A     -0.699361    18A     -0.686123
      19A     -0.675135    20A     -0.635651    21A     -0.604776
      22A     -0.579671    23A     -0.570880    24A     -0.541929
      25A     -0.537281    26A     -0.519593    27A     -0.503162
      28A     -0.489520    29A     -0.465619    30A     -0.457049
      31A     -0.453942    32A     -0.403836

  @DF-RHF Final Energy:  -383.91838762398703

   => Energetics <=

    Nuclear Repulsion Energy =            395.9714323975729826
    One-Electron Energy =               -1308.0865329706564353
    Two-Electron Energy =                 528.1967129490959678
    DFT Exchange-Correlation Energy =       0.0000000000000000
    Empirical Dispersion Energy =           0.0000000000000000
    PCM Polarization Energy =               0.0000000000000000
    EFP Energy =                            0.0000000000000000
    Total Energy =                       -383.9183876239875417

  Mulliken Charges: (a.u.)
   Center  Symbol    Alpha    Beta     Spin     Total
       1     O     4.28900  4.28900  0.00000 -0.57800
       2     C     2.60050  2.60050  0.00000  0.79899
       3     C     3.21138  3.21138  0.00000 -0.42276
       4     O     4.30732  4.30732  0.00000 -0.61465
       5     C     3.15397  3.15397  0.00000 -0.30793
       6     H     0.39843  0.39843  0.00000  0.20315
       7     H     0.39713  0.39713  0.00000  0.20575
       8     C     3.17121  3.17121  0.00000 -0.34243
       9     H     0.41829  0.41829  0.00000  0.16342
      10     H     0.41796  0.41796  0.00000  0.16408
      11     C     3.23728  3.23728  0.00000 -0.47457
      12     H     0.37256  0.37256  0.00000  0.25488
      13     H     0.43156  0.43156  0.00000  0.13688
      14     H     0.42511  0.42511  0.00000  0.14978
      15     H     0.42084  0.42084  0.00000  0.15832
      16     H     0.42918  0.42918  0.00000  0.14165
      17     C     3.09288  3.09288  0.00000 -0.18577
      18     H     0.40882  0.40882  0.00000  0.18235
      19     H     0.40771  0.40771  0.00000  0.18457
      20     H     0.40886  0.40886  0.00000  0.18229

   Total alpha = 32.00000, Total beta = 32.00000, Total charge =  0.00000
