                              Psi4 1.0.54 Driver

  ==> Input File <==

--------------------------------------------------------------------------
set {
	reference rhf
	basis cc-pvtz
}

set_num_threads( 4 )
memory 2 gb

molecule MOL {
0 1

H	 2.146449	 -0.015363	 -5.021835
C	 2.499305	 0.499806	 -4.135855
C	 1.356395	 0.769417	 -3.163029
H	 3.263031	 -0.117957	 -3.676173
H	 2.969678	 1.424006	 -4.455860
C	 1.814932	 1.504790	 -1.905674
H	 0.895108	 -0.170908	 -2.883850
H	 0.590810	 1.358215	 -3.663049
C	 0.690750	 1.793991	 -0.915995
H	 2.583123	 0.926412	 -1.407488
H	 2.267065	 2.449608	 -2.193214
C	 0.166485	 0.574257	 -0.177158
H	 1.040952	 2.482728	 -0.151296
H	 -0.138856	 2.295593	 -1.405554
C	 -1.180025	 0.697761	 0.509157
O	 0.791315	 -0.435320	 -0.117018
C	 -2.285431	 -0.137488	 -0.145671
H	 -1.447360	 1.745713	 0.496200
H	 -1.065514	 0.394096	 1.546399
C	 -3.646545	 0.082747	 0.508954
H	 -2.348635	 0.118247	 -1.199806
H	 -2.034895	 -1.192387	 -0.096473
C	 -4.757412	 -0.737227	 -0.138149
H	 -3.900211	 1.137405	 0.459735
H	 -3.580878	 -0.166775	 1.564416
H	 -4.867876	 -0.486707	 -1.187777
H	 -4.549650	 -1.800049	 -0.072540
H	 -5.709585	 -0.556397	 0.346597

	symmetry c1
}
set optking {
	frozen_dihedral = ("
		16 12 15 17
	")
}

ee,wfn = optimize('scf', return_wfn=True)
oeprop( wfn, 'DIPOLE', 'QUADRUPOLE', 'MULLIKEN_CHARGES')
f=open( 'psi4out.xyz', 'w' )
f.write( "28  " )
f.write( str(ee) + "\n" )
f.write( MOL.save_string_xyz() )
f.close()
--------------------------------------------------------------------------

    Molecular point group: c1
  Charge       = 0
  Multiplicity = 1
  Basis Set: CC-PVTZ
  Basis Set:
  @DF-RHF Final Energy:  -426.31953735112882
    Total Energy =                       -426.3195373511288153
    Molecular point group: c1
  Basis Set: CC-PVTZ
  Basis Set:
  Basis Set: CC-PVTZ
  Basis Set:
  @DF-RHF Final Energy:  -426.32006339852001
    Total Energy =                       -426.3200633985204604
  Basis Set: CC-PVTZ
  Basis Set:
  Basis Set: CC-PVTZ
  Basis Set:
  @DF-RHF Final Energy:  -426.32061534227751
    Total Energy =                       -426.3206153422776197
  Basis Set: CC-PVTZ
  Basis Set:
  Basis Set: CC-PVTZ
  Basis Set:
  @DF-RHF Final Energy:  -426.32054713792832
    Total Energy =                       -426.3205471379279743
  Basis Set: CC-PVTZ
  Basis Set:
  @DF-RHF Final Energy:  -426.32062205039722
    Total Energy =                       -426.3206220503980148
  Basis Set: CC-PVTZ
  Basis Set:
  @DF-RHF Final Energy:  -426.32062572018708
    Total Energy =                       -426.3206257201874223
  Basis Set: CC-PVTZ
  Basis Set:
  Basis Set: CC-PVTZ
  Basis Set:
  @DF-RHF Final Energy:  -426.32064852223368
    Total Energy =                       -426.3206485222342508
  Basis Set: CC-PVTZ
  Basis Set:
  Basis Set: CC-PVTZ
  Basis Set:
  @DF-RHF Final Energy:  -426.32065116476406
    Total Energy =                       -426.3206511647640582
  Basis Set: CC-PVTZ
  Basis Set:
  Charge       = 0
  Multiplicity = 1
  Basis Set: CC-PVTZ
  Basis Set:

    Orbital Energies (a.u.)
    -----------------------

    Doubly Occupied:

       1A    -20.536150     2A    -11.317191     3A    -11.229741
       4A    -11.226684     5A    -11.224926     6A    -11.220904
       7A    -11.214709     8A    -11.211383     9A    -11.210147
      10A    -11.203632    11A     -1.396959    12A     -1.092594
      13A     -1.079240    14A     -1.023277    15A     -0.992218
      16A     -0.909983    17A     -0.869042    18A     -0.806322
      19A     -0.798028    20A     -0.725665    21A     -0.671799
      22A     -0.652426    23A     -0.627017    24A     -0.621565
      25A     -0.610087    26A     -0.589212    27A     -0.576110
      28A     -0.573971    29A     -0.543637    30A     -0.530858
      31A     -0.518975    32A     -0.511452    33A     -0.501573
      34A     -0.480152    35A     -0.478539    36A     -0.473235
      37A     -0.469021    38A     -0.466212    39A     -0.457416
      40A     -0.393866

  @DF-RHF Final Energy:  -426.32065127264070

   => Energetics <=

    Nuclear Repulsion Energy =            534.1494872242900556
    One-Electron Energy =               -1636.8684497118097170
    Two-Electron Energy =                 676.3983112148786176
    DFT Exchange-Correlation Energy =       0.0000000000000000
    Empirical Dispersion Energy =           0.0000000000000000
    PCM Polarization Energy =               0.0000000000000000
    EFP Energy =                            0.0000000000000000
    Total Energy =                       -426.3206512726409301
    Molecular point group: c1
  Basis Set: CC-PVTZ
  Basis Set:

  -Total Gradient:
     Atom            X                  Y                   Z
    ------   -----------------  -----------------  -----------------
       1        0.000001766542    -0.000004133006     0.000003128914
       2        0.000000274759    -0.000010411774     0.000000393330
       3        0.000001584675     0.000016190918    -0.000003357557
       4        0.000010756605    -0.000001949678     0.000000853055
       5       -0.000002261546     0.000001689865    -0.000001638731
       6       -0.000004506512    -0.000001841969     0.000001064151
       7       -0.000004774485     0.000003877428     0.000004372170
       8       -0.000003710185     0.000005472933    -0.000007306003
       9       -0.000007981082    -0.000012279351    -0.000001069702
      10        0.000005372281     0.000000096977    -0.000001724919
      11       -0.000003487033     0.000002086824    -0.000003310486
      12        0.000313280004     0.000056682976     0.000478403166
      13        0.000000964942    -0.000004134943    -0.000000275704
      14        0.000000488026     0.000000946369     0.000000946973
      15       -0.000159445004     0.000241830392    -0.000317998528
      16       -0.000208883194    -0.000083397905    -0.000295280017
      17        0.000058989368    -0.000213437776     0.000133616150
      18       -0.000001047437    -0.000007821392     0.000001552213
      19        0.000006902447    -0.000004040173     0.000003448695
      20       -0.000012068354     0.000022664156    -0.000008211974
      21        0.000005353693     0.000000319159    -0.000000820015
      22        0.000002000771    -0.000000520180     0.000001149894
      23        0.000005685257    -0.000010084807     0.000010990697
      24       -0.000004775404     0.000003212845     0.000001491256
      25       -0.000004462801    -0.000000022118    -0.000004110256
      26        0.000003489816     0.000004701996     0.000005457917
      27       -0.000001168419    -0.000002882196    -0.000003621745
      28        0.000001662274    -0.000002815568     0.000001857057

  **** Optimization is complete! (in 9 steps) ****
    Final optimized geometry and variables:
    Molecular point group: c1

    Geometry (in Angstrom), charge = 0, multiplicity = 1:

    H            2.824046484056    -0.433354124509    -4.034655601864
    C            3.121406889407     0.063874432849    -3.118577828810
    C            1.920193927929     0.316265680850    -2.213848714774
    H            3.854601346116    -0.564307133968    -2.624518183626
    H            3.611530604597     0.993198706119    -3.390679005281
    C            2.299902544279     1.028113370142    -0.917091575011
    H            1.442128885143    -0.627495739572    -1.980408904958
    H            1.187728125235     0.916164935151    -2.749114339998
    C            1.119678249977     1.291991000231     0.010539767046
    H            3.041512294765     0.442681427890    -0.386763877157
    H            2.763838083887     1.979896855145    -1.159314321880
    C            0.577259356261     0.075749408736     0.732857199546
    H            1.396786572398     2.000319504249     0.789025442075
    H            0.297900250197     1.762303560900    -0.524218597386
    C           -0.710103170784     0.259096872257     1.516032074114
    O            1.122084069286    -0.980189841461     0.703623646696
    C           -1.874679086593    -0.479297242125     0.848745258979
    H           -0.945964760733     1.312107480229     1.620466556962
    H           -0.545238127449    -0.146439650834     2.507690853220
    C           -3.181595912382    -0.345874302124     1.624548230658
    H           -2.016340454009    -0.098397306250    -0.159999351148
    H           -1.609777929010    -1.525525646114     0.750331045806
    C           -4.340698703343    -1.085320510072     0.965011360462
    H           -3.435972210970     0.705560384646     1.726995843369
    H           -3.038282515465    -0.725121166168     2.632333430924
    H           -4.531289111168    -0.704390088419    -0.032772351293
    H           -4.128818505671    -2.145487628667     0.878284736545
    H           -5.252612838806    -0.975794466330     1.540299016183

  Mulliken Charges: (a.u.)
   Center  Symbol    Alpha    Beta     Spin     Total
       1     H     0.44876  0.44876  0.00000  0.10249
       2     C     3.15161  3.15161  0.00000 -0.30321
       3     C     3.08408  3.08408  0.00000 -0.16817
       4     H     0.45191  0.45191  0.00000  0.09618
       5     H     0.45715  0.45715  0.00000  0.08570
       6     C     3.08729  3.08729  0.00000 -0.17458
       7     H     0.44454  0.44454  0.00000  0.11091
       8     H     0.45894  0.45894  0.00000  0.08212
       9     C     3.12681  3.12681  0.00000 -0.25361
      10     H     0.44562  0.44562  0.00000  0.10876
      11     H     0.44765  0.44765  0.00000  0.10469
      12     C     2.86914  2.86914  0.00000  0.26171
      13     H     0.43361  0.43361  0.00000  0.13279
      14     H     0.44248  0.44248  0.00000  0.11504
      15     C     3.09408  3.09408  0.00000 -0.18816
      16     O     4.18316  4.18316  0.00000 -0.36631
      17     C     3.09207  3.09207  0.00000 -0.18414
      18     H     0.44794  0.44794  0.00000  0.10411
      19     H     0.44036  0.44036  0.00000  0.11928
      20     C     3.08749  3.08749  0.00000 -0.17498
      21     H     0.45373  0.45373  0.00000  0.09254
      22     H     0.43967  0.43967  0.00000  0.12067
      23     C     3.14944  3.14944  0.00000 -0.29887
      24     H     0.45443  0.45443  0.00000  0.09115
      25     H     0.45235  0.45235  0.00000  0.09530
      26     H     0.45509  0.45509  0.00000  0.08982
      27     H     0.45285  0.45285  0.00000  0.09431
      28     H     0.44776  0.44776  0.00000  0.10447

   Total alpha = 40.00000, Total beta = 40.00000, Total charge = -0.00000

*** Psi4 exiting successfully. Buy a developer a beer!
