                              Psi4 1.0.54 Driver

  ==> Input File <==

--------------------------------------------------------------------------
set {
	reference rhf
	basis cc-pvtz
}

set_num_threads( 4 )
memory 2 gb

molecule MOL {
0 1

H	 -2.816458	 -0.841657	 -0.064679
N	 -1.878861	 -0.711874	 0.250184
C	 -1.341419	 0.551458	 -0.220231
H	 -1.333674	 -1.468530	 -0.105118
C	 0.082190	 0.731516	 0.254705
H	 -1.357065	 0.652078	 -1.304747
H	 -1.939897	 1.357530	 0.189797
O	 0.881195	 -0.248324	 -0.336237
H	 0.440901	 1.722476	 -0.020063
H	 0.119896	 0.643586	 1.338114
C	 0.811714	 -1.493878	 0.274490
H	 1.467705	 -2.164199	 -0.261916
H	 1.134086	 -1.446362	 1.312524
H	 -0.198661	 -1.895013	 0.246281

	symmetry c1
}
set optking {
	frozen_dihedral = ("
		11 8 5 3
	")
}

ee,wfn = optimize('scf', return_wfn=True)
oeprop( wfn, 'DIPOLE', 'QUADRUPOLE', 'MULLIKEN_CHARGES')
f=open( 'psi4out.xyz', 'w' )
f.write( "14  " )
f.write( str(ee) + "\n" )
f.write( MOL.save_string_xyz() )
f.close()
--------------------------------------------------------------------------

    Molecular point group: c1
  Charge       = 0
  Multiplicity = 1
  Basis Set: CC-PVTZ
  Basis Set:
  @DF-RHF Final Energy:  -248.19441274563380
    Total Energy =                       -248.1944127456337128
    Molecular point group: c1
  Basis Set: CC-PVTZ
  Basis Set:
  Basis Set: CC-PVTZ
  Basis Set:
  @DF-RHF Final Energy:  -248.21199905010181
    Total Energy =                       -248.2119990501018378
  Basis Set: CC-PVTZ
  Basis Set:
  Basis Set: CC-PVTZ
  Basis Set:
  @DF-RHF Final Energy:  -248.05723039462305
    Total Energy =                       -248.0572303946230477
  Basis Set: CC-PVTZ
  Basis Set:
  Basis Set: CC-PVTZ
  Basis Set:
  @DF-RHF Final Energy:  -248.11250811238051
    Total Energy =                       -248.1125081123807377
  Basis Set: CC-PVTZ
  Basis Set:
  @DF-RHF Final Energy:  -247.69423870596177
    Total Energy =                       -247.6942387059615953
  @DF-RHF Final Energy:  -247.85679550710924
    Total Energy =                       -247.8567955071090978
  @DF-RHF Final Energy:  -248.01738655787057
    Total Energy =                       -248.0173865578707080
  @DF-RHF Final Energy:  -247.71711129446993
    Total Energy =                       -247.7171112944700440
  @DF-RHF Final Energy:  -247.80821636211834
    Total Energy =                       -247.8082163621183440
  @DF-RHF Final Energy:  -247.38316504021944
    Total Energy =                       -247.3831650402194668
  @DF-RHF Final Energy:  -247.64718983060737
    Total Energy =                       -247.6471898306074024
  @DF-RHF Final Energy:  -247.34221194355911
    Total Energy =                       -247.3422119435592776
  @DF-RHF Final Energy:  -246.96788419705842
    Total Energy =                       -246.9678841970584244
  @DF-RHF Final Energy:  -246.68398949941295
    Total Energy =                       -246.6839894994128031
  @DF-RHF Final Energy:  -246.78699613296584
    Total Energy =                       -246.7869961329658963
  @DF-RHF Final Energy:  -246.87622611119184
    Total Energy =                       -246.8762261111918122
  @DF-RHF Final Energy:  -246.78699613309971
    Total Energy =                       -246.7869961330998478
  @DF-RHF Final Energy:  -247.04578961082464
    Total Energy =                       -247.0457896108245279
  @DF-RHF Final Energy:  -247.28359684128370
    Total Energy =                       -247.2835968412835825
  @DF-RHF Final Energy:  -247.54434956373842
    Total Energy =                       -247.5443495637386206
  @DF-RHF Final Energy:  -248.21490603989218
    Total Energy =                       -248.2149060398923552
  @DF-RHF Final Energy:  -248.21430620103564
    Total Energy =                       -248.2143062010359245
  @DF-RHF Final Energy:  -248.16178845263241
    Total Energy =                       -248.1617884526323223
  @DF-RHF Final Energy:  -248.21251863974973
    Total Energy =                       -248.2125186397496464
  @DF-RHF Final Energy:  -248.19318664842402
    Total Energy =                       -248.1931866484242164
  @DF-RHF Final Energy:  -248.21576714320369
    Total Energy =                       -248.2157671432034931
  @DF-RHF Final Energy:  -248.21730020215114
    Total Energy =                       -248.2173002021511365
  @DF-RHF Final Energy:  -248.21710594115808
    Total Energy =                       -248.2171059411580245
  @DF-RHF Final Energy:  -248.21876102606595
    Total Energy =                       -248.2187610260660904
  @DF-RHF Final Energy:  -248.21809956331384
    Total Energy =                       -248.2180995633137854
  @DF-RHF Final Energy:  -248.21888886525315
    Total Energy =                       -248.2188888652531773
  @DF-RHF Final Energy:  -248.21884998086225
    Total Energy =                       -248.2188499808622737
  @DF-RHF Final Energy:  -248.21892106663336
    Total Energy =                       -248.2189210666333565
  @DF-RHF Final Energy:  -248.21894558594343
    Total Energy =                       -248.2189455859432883
  @DF-RHF Final Energy:  -248.21900138984512
    Total Energy =                       -248.2190013898451753
  @DF-RHF Final Energy:  -248.21901967932160
    Total Energy =                       -248.2190196793217183
  Basis Set: CC-PVTZ
  Basis Set:
  @DF-RHF Final Energy:  -248.21901178648790
    Total Energy =                       -248.2190117864877266
  Basis Set: CC-PVTZ
  Basis Set:
  Basis Set: CC-PVTZ
  Basis Set:
  @DF-RHF Final Energy:  -248.21903417192979
    Total Energy =                       -248.2190341719298772
  Basis Set: CC-PVTZ
  Basis Set:
  Basis Set: CC-PVTZ
  Basis Set:
  @DF-RHF Final Energy:  -248.21903524663688
    Total Energy =                       -248.2190352466369063
  Basis Set: CC-PVTZ
  Basis Set:
  Charge       = 0
  Multiplicity = 1
  Basis Set: CC-PVTZ
  Basis Set:

    Orbital Energies (a.u.)
    -----------------------

    Doubly Occupied:

       1A    -20.544722     2A    -15.533356     3A    -11.261917
       4A    -11.260011     5A    -11.243195     6A     -1.375759
       7A     -1.182164     8A     -1.002230     9A     -0.912252
      10A     -0.811532    11A     -0.689648    12A     -0.670374
      13A     -0.641799    14A     -0.623244    15A     -0.599277
      16A     -0.543340    17A     -0.535855    18A     -0.509102
      19A     -0.461726    20A     -0.419582    21A     -0.385652

  @DF-RHF Final Energy:  -248.21903588299830

   => Energetics <=

    Nuclear Repulsion Energy =            196.3287984529494565
    One-Electron Energy =                -726.6821894280107017
    Two-Electron Energy =                 282.1343550920630037
    DFT Exchange-Correlation Energy =       0.0000000000000000
    Empirical Dispersion Energy =           0.0000000000000000
    PCM Polarization Energy =               0.0000000000000000
    EFP Energy =                            0.0000000000000000
    Total Energy =                       -248.2190358829982983
    Molecular point group: c1
  Basis Set: CC-PVTZ
  Basis Set:

  -Total Gradient:
     Atom            X                  Y                   Z
    ------   -----------------  -----------------  -----------------
       1       -0.000005338623    -0.000030315651    -0.000002693859
       2       -0.000138489414    -0.000024691912    -0.000154545743
       3       -0.000231162864     0.000570784881     0.001274164030
       4        0.000118159354     0.000074102283     0.000010469814
       5        0.000996376743    -0.001128533141    -0.001521882302
       6        0.000001716224     0.000021675023     0.000023722503
       7       -0.000058243074    -0.000071181308    -0.000004272564
       8       -0.001786328427     0.001499574655     0.000219019298
       9       -0.000028259971    -0.000030337259    -0.000093976505
      10       -0.000033315132    -0.000004350623     0.000023285271
      11        0.001327478200    -0.000755713119     0.000150083215
      12       -0.000050205401    -0.000122956768     0.000071303156
      13       -0.000079569344    -0.000008004623     0.000032324586
      14       -0.000032818270     0.000009947564    -0.000027000902

  **** Optimization is complete! (in 34 steps) ****
    Final optimized geometry and variables:
    Molecular point group: c1

    Geometry (in Angstrom), charge = 0, multiplicity = 1:

    H            0.299671468833    -2.191910362878     1.698800793619
    N            0.195696052030    -1.279587109437     1.309389317395
    C           -0.136168596115    -1.362769437251    -0.105735463069
    H            1.059182290596    -0.803948343932     1.456568426934
    C           -0.761620842200    -0.093289205712    -0.661303976395
    H            0.713914684880    -1.632733812067    -0.730324087315
    H           -0.876238774472    -2.147759044016    -0.221042097582
    O            0.119981648769     0.969907766276    -0.872887368616
    H           -1.177221291740    -0.320656052323    -1.635297928053
    H           -1.574788050400     0.216411766530    -0.009074308652
    C            0.490088807174     1.739548467571     0.226003895700
    H            0.856468926675     2.684667345759    -0.149831260316
    H           -0.352087018258     1.927459929462     0.885454834700
    H            1.282254005584     1.278895200128     0.807005323223

  Mulliken Charges: (a.u.)
   Center  Symbol    Alpha    Beta     Spin     Total
       1     H     0.42807  0.42807  0.00000  0.14386
       2     N     3.69373  3.69373  0.00000 -0.38745
       3     C     3.03352  3.03352  0.00000 -0.06705
       4     H     0.42708  0.42708  0.00000  0.14584
       5     C     2.97464  2.97464  0.00000  0.05072
       6     H     0.46282  0.46282  0.00000  0.07436
       7     H     0.45750  0.45750  0.00000  0.08499
       8     O     4.18243  4.18243  0.00000 -0.36487
       9     H     0.45082  0.45082  0.00000  0.09837
      10     H     0.46879  0.46879  0.00000  0.06242
      11     C     3.03180  3.03180  0.00000 -0.06359
      12     H     0.44569  0.44569  0.00000  0.10863
      13     H     0.46714  0.46714  0.00000  0.06572
      14     H     0.47598  0.47598  0.00000  0.04804

   Total alpha = 21.00000, Total beta = 21.00000, Total charge =  0.00000

*** Psi4 exiting successfully. Buy a developer a beer!
