                              Psi4 1.0.54 Driver

  ==> Input File <==

--------------------------------------------------------------------------
set {
	reference rhf
	basis cc-pvtz
}

set_num_threads( 4 )
memory 2 gb

molecule MOL {
0 1

O	 -1.605114	 2.308923	 0.246708
C	 -1.669443	 1.261632	 -0.310494
C	 -0.441539	 0.634470	 -0.940548
C	 -2.966063	 0.493069	 -0.404599
C	 0.376695	 -0.140025	 0.100361
H	 0.159854	 1.434528	 -1.353277
H	 -0.730443	 -0.027778	 -1.749762
C	 1.630207	 -0.772146	 -0.501001
H	 0.641216	 0.540912	 0.899474
H	 -0.238125	 -0.919585	 0.543737
C	 2.907848	 -0.545876	 0.309149
H	 1.772784	 -0.391628	 -1.509394
H	 1.468529	 -1.842059	 -0.599744
C	 3.373802	 0.906639	 0.372125
H	 3.699140	 -1.146831	 -0.127906
H	 2.764321	 -0.923458	 1.318191
H	 3.519798	 1.311927	 -0.623875
H	 4.316899	 0.983758	 0.900700
H	 2.661122	 1.540651	 0.885346
H	 -3.294328	 0.472537	 -1.438919
H	 -3.722629	 0.963885	 0.204097
H	 -2.824822	 -0.535811	 -0.093078

	symmetry c1
}
set optking {
	frozen_dihedral = ("
		3 5 8 12
	")
}

ee,wfn = optimize('scf', return_wfn=True)
oeprop( wfn, 'DIPOLE', 'QUADRUPOLE', 'MULLIKEN_CHARGES')
f=open( 'psi4out.xyz', 'w' )
f.write( "22  " )
f.write( str(ee) + "\n" )
f.write( MOL.save_string_xyz() )
f.close()
--------------------------------------------------------------------------

    Molecular point group: c1
  Charge       = 0
  Multiplicity = 1
  Basis Set: CC-PVTZ
  Basis Set:
  @DF-RHF Final Energy:  -348.21839509447568
    Total Energy =                       -348.2183950944759090
    Molecular point group: c1
  Basis Set: CC-PVTZ
  Basis Set:
  Basis Set: CC-PVTZ
  Basis Set:
  @DF-RHF Final Energy:  -348.21861139834618
    Total Energy =                       -348.2186113983464111
  Basis Set: CC-PVTZ
  Basis Set:
  Basis Set: CC-PVTZ
  Basis Set:
  @DF-RHF Final Energy:  -348.21881324257367
    Total Energy =                       -348.2188132425737308
  Basis Set: CC-PVTZ
  Basis Set:
  Basis Set: CC-PVTZ
  Basis Set:
  @DF-RHF Final Energy:  -348.21875583388703
    Total Energy =                       -348.2187558338866893
  Basis Set: CC-PVTZ
  Basis Set:
  @DF-RHF Final Energy:  -348.21881416933354
    Total Energy =                       -348.2188141693332000
  Basis Set: CC-PVTZ
  Basis Set:
  @DF-RHF Final Energy:  -348.21884298021803
    Total Energy =                       -348.2188429802185397
  Basis Set: CC-PVTZ
  Basis Set:
  Basis Set: CC-PVTZ
  Basis Set:
  @DF-RHF Final Energy:  -348.21883811662781
    Total Energy =                       -348.2188381166276372
  Basis Set: CC-PVTZ
  Basis Set:
  Basis Set: CC-PVTZ
  Basis Set:
  @DF-RHF Final Energy:  -348.21884369185085
    Total Energy =                       -348.2188436918512480
  Basis Set: CC-PVTZ
  Basis Set:
  Charge       = 0
  Multiplicity = 1
  Basis Set: CC-PVTZ
  Basis Set:

    Orbital Energies (a.u.)
    -----------------------

    Doubly Occupied:

       1A    -20.536866     2A    -11.319082     3A    -11.228193
       4A    -11.227555     5A    -11.226833     6A    -11.220200
       7A    -11.218431     8A    -11.208454     9A     -1.396837
      10A     -1.095384    11A     -1.045188    12A     -0.999324
      13A     -0.938992    14A     -0.857053    15A     -0.788624
      16A     -0.734988    17A     -0.660016    18A     -0.650232
      19A     -0.627653    20A     -0.620151    21A     -0.599850
      22A     -0.576001    23A     -0.567992    24A     -0.547263
      25A     -0.532514    26A     -0.512631    27A     -0.506544
      28A     -0.489458    29A     -0.468561    30A     -0.464969
      31A     -0.459901    32A     -0.398133

  @DF-RHF Final Energy:  -348.21884391277217

   => Energetics <=

    Nuclear Repulsion Energy =            375.6586954377664824
    One-Electron Energy =               -1216.3073269185726986
    Two-Electron Energy =                 492.4297875680340439
    DFT Exchange-Correlation Energy =       0.0000000000000000
    Empirical Dispersion Energy =           0.0000000000000000
    PCM Polarization Energy =               0.0000000000000000
    EFP Energy =                            0.0000000000000000
    Total Energy =                       -348.2188439127721722
    Molecular point group: c1
  Basis Set: CC-PVTZ
  Basis Set:

  -Total Gradient:
     Atom            X                  Y                   Z
    ------   -----------------  -----------------  -----------------
       1        0.000002328231     0.000022080681     0.000018907201
       2       -0.000006379267    -0.000029466242     0.000005988393
       3        0.000871971129     0.001403913318     0.000460081480
       4       -0.000003404115     0.000026602155    -0.000020018060
       5       -0.001520925681    -0.002375659492    -0.000885408246
       6       -0.000001516167     0.000002750815    -0.000001355184
       7        0.000009454315    -0.000001545243    -0.000000333975
       8        0.001939205353     0.002712722743     0.001417487305
       9       -0.000002094612     0.000000851180    -0.000007437606
      10       -0.000005618183     0.000000995316     0.000001115329
      11       -0.000002462302     0.000005180782     0.000007284747
      12       -0.001285731872    -0.001741499366    -0.001000932512
      13        0.000001593197     0.000000483768     0.000002211434
      14       -0.000003187384    -0.000002395715    -0.000002753553
      15        0.000003120854     0.000005956107    -0.000003407077
      16        0.000000211937    -0.000007691157     0.000007297957
      17        0.000002820253     0.000004348205    -0.000005282890
      18       -0.000005191645    -0.000004089042     0.000000379834
      19        0.000001900486    -0.000007334271    -0.000003160184
      20       -0.000001742509    -0.000008454000    -0.000000459570
      21       -0.000002003755     0.000000584021     0.000003745273
      22        0.000007651740    -0.000008334568     0.000006049901

  **** Optimization is complete! (in 9 steps) ****
    Final optimized geometry and variables:
    Molecular point group: c1

    Geometry (in Angstrom), charge = 0, multiplicity = 1:

    O           -1.873201244658     1.715880182289     0.521524514700
    C           -1.902612577359     0.714548913205    -0.117330878763
    C           -0.653670904531     0.179594307858    -0.788913737791
    C           -3.173978236137    -0.084144619757    -0.279331395496
    C            0.180008677197    -0.661416745907     0.186796123406
    H           -0.069436534790     1.027285079641    -1.122866414011
    H           -0.919008153708    -0.415297699637    -1.656941803156
    C            1.458004027444    -1.241248281202    -0.451421694640
    H            0.433323878528    -0.031558650651     1.030242698557
    H           -0.424534460839    -1.469351791436     0.585714310754
    C            2.721192871300    -1.073214839433     0.394087925666
    H            1.615979084779    -0.796972111468    -1.429938825081
    H            1.306027617644    -2.298968429822    -0.640392361346
    C            3.227631483080     0.364376370298     0.476802825922
    H            3.505439137046    -1.696109950876    -0.024608163673
    H            2.534670622677    -1.452765777514     1.395185392723
    H            3.479744950884     0.741936506926    -0.508743720474
    H            4.118496259049     0.425341099599     1.091067441230
    H            2.489856795647     1.032008256666     0.906121170641
    H           -3.502723129262    -0.024128271314    -1.311964221127
    H           -3.944293362932     0.307928972732     0.366784365789
    H           -3.000404126927    -1.131400752495    -0.058877552506

  Mulliken Charges: (a.u.)
   Center  Symbol    Alpha    Beta     Spin     Total
       1     O     4.17721  4.17721  0.00000 -0.35443
       2     C     2.85876  2.85876  0.00000  0.28247
       3     C     3.09890  3.09890  0.00000 -0.19781
       4     C     3.15530  3.15530  0.00000 -0.31060
       5     C     3.11411  3.11411  0.00000 -0.22822
       6     H     0.43841  0.43841  0.00000  0.12319
       7     H     0.44763  0.44763  0.00000  0.10474
       8     C     3.09916  3.09916  0.00000 -0.19832
       9     H     0.43870  0.43870  0.00000  0.12260
      10     H     0.44298  0.44298  0.00000  0.11403
      11     C     3.08891  3.08891  0.00000 -0.17782
      12     H     0.45347  0.45347  0.00000  0.09305
      13     H     0.44595  0.44595  0.00000  0.10810
      14     C     3.15132  3.15132  0.00000 -0.30265
      15     H     0.44815  0.44815  0.00000  0.10371
      16     H     0.45329  0.45329  0.00000  0.09342
      17     H     0.45502  0.45502  0.00000  0.08996
      18     H     0.44652  0.44652  0.00000  0.10695
      19     H     0.45069  0.45069  0.00000  0.09862
      20     H     0.44834  0.44834  0.00000  0.10332
      21     H     0.43616  0.43616  0.00000  0.12768
      22     H     0.45100  0.45100  0.00000  0.09800

   Total alpha = 32.00000, Total beta = 32.00000, Total charge =  0.00000

*** Psi4 exiting successfully. Buy a developer a beer!
