  ==> Input File <==

--------------------------------------------------------------------------
set {
	reference rhf
	basis 6-31G*
}

set_num_threads( 1 )
memory 2 gb

molecule MOL {
0 1

H	 -2.647191	 0.836686	 0.933187
C	 -2.090743	 1.743668	 1.160982
O	 -0.719773	 1.545386	 1.032670
H	 -2.375827	 2.514889	 0.458781
H	 -2.356366	 2.068054	 2.166291
C	 -0.201424	 0.575658	 1.887182
C	 1.264029	 0.372532	 1.581579
H	 -0.310788	 0.889635	 2.926005
H	 -0.727459	 -0.369001	 1.765069
O	 1.392611	 -0.295398	 0.366430
H	 1.760328	 1.340217	 1.545786
H	 1.719999	 -0.209821	 2.383233
C	 2.706965	 -0.449871	 -0.062409
H	 2.756559	 -0.644779	 -1.131878
H	 3.305899	 0.433456	 0.155466
H	 3.125548	 -1.294566	 0.467107

	symmetry c1
}
set optking {
	frozen_dihedral = ("
		3 6 7 11,
		2 3 6 7
	")
}

ee = energy('scf')
oeprop('DIPOLE', 'QUADRUPOLE', 'MULLIKEN_CHARGES')
f=open( 'psi4out.xyz', 'w' )
f.write( "16  " )
f.write( str(ee) + "\n" )
f.write( MOL.save_string_xyz() )
f.close()
--------------------------------------------------------------------------

    Molecular point group: c1

    Geometry (in Angstrom), charge = 0, multiplicity = 1:

       Center              X                  Y                   Z               Mass
    ------------   -----------------  -----------------  -----------------  -----------------
           H         -3.037916264869     0.253731305109    -0.054364318357     1.007825032070
           C         -2.481468264869     1.160713305109     0.173430681643    12.000000000000
           O         -1.110498264869     0.962431305109     0.045118681643    15.994914619560
           H         -2.766552264869     1.931934305109    -0.528770318357     1.007825032070
           H         -2.747091264869     1.485099305109     1.178739681643     1.007825032070
           C         -0.592149264869    -0.007296694891     0.899630681643    12.000000000000
           C          0.873303735131    -0.210422694891     0.594027681643    12.000000000000
           H         -0.701513264869     0.306680305109     1.938453681643     1.007825032070
           H         -1.118184264869    -0.951955694891     0.777517681643     1.007825032070
           O          1.001885735131    -0.878352694891    -0.621121318357    15.994914619560
           H          1.369602735131     0.757262305109     0.558234681643     1.007825032070
           H          1.329273735131    -0.792775694891     1.395681681643     1.007825032070
           C          2.316239735131    -1.032825694891    -1.049960318357    12.000000000000
           H          2.365833735131    -1.227733694891    -2.119429318357     1.007825032070
           H          2.915173735131    -0.149498694891    -0.832085318357     1.007825032070
           H          2.734822735131    -1.877520694891    -0.520444318357     1.007825032070

  Charge       = 0
  Multiplicity = 1
  Basis Set: 6-31G*
  Basis Set:

    Orbital Energies (a.u.)
    -----------------------

    Doubly Occupied:

       1A    -20.553546     2A    -20.551835     3A    -11.269463
       4A    -11.268584     5A    -11.263514     6A    -11.263481
       7A     -1.387981     8A     -1.370344     9A     -1.030591
      10A     -0.935610    11A     -0.892165    12A     -0.824429
      13A     -0.683629    14A     -0.680793    15A     -0.656515
      16A     -0.635472    17A     -0.629845    18A     -0.597844
      19A     -0.550835    20A     -0.536002    21A     -0.509226
      22A     -0.477182    23A     -0.462371    24A     -0.418821
      25A     -0.409169

  @DF-RHF Final Energy:  -306.97552843629688

   => Energetics <=

    Nuclear Repulsion Energy =            258.8702021628982379
    One-Electron Energy =                -931.9728790868796295
    Two-Electron Energy =                 366.1271484876846216
    DFT Exchange-Correlation Energy =       0.0000000000000000
    Empirical Dispersion Energy =           0.0000000000000000
    PCM Polarization Energy =               0.0000000000000000
    EFP Energy =                            0.0000000000000000
    Total Energy =                       -306.9755284362967132

  Mulliken Charges: (a.u.)
   Center  Symbol    Alpha    Beta     Spin     Total
       1     H     0.42805  0.42805  0.00000  0.14391
       2     C     3.07951  3.07951  0.00000 -0.15901
       3     O     4.30084  4.30084  0.00000 -0.60168
       4     H     0.41130  0.41130  0.00000  0.17741
       5     H     0.43191  0.43191  0.00000  0.13617
       6     C     2.99329  2.99329  0.00000  0.01341
       7     C     2.99364  2.99364  0.00000  0.01271
       8     H     0.43228  0.43228  0.00000  0.13544
       9     H     0.42266  0.42266  0.00000  0.15467
      10     O     4.30222  4.30222  0.00000 -0.60444
      11     H     0.42186  0.42186  0.00000  0.15628
      12     H     0.43287  0.43287  0.00000  0.13426
      13     C     3.07854  3.07854  0.00000 -0.15709
      14     H     0.41225  0.41225  0.00000  0.17550
      15     H     0.43043  0.43043  0.00000  0.13915
      16     H     0.42835  0.42835  0.00000  0.14330

   Total alpha = 25.00000, Total beta = 25.00000, Total charge = -0.00000
