                              Psi4 1.0.54 Driver

  ==> Input File <==

--------------------------------------------------------------------------
set {
	reference rhf
	basis cc-pvtz
}

set_num_threads( 4 )
memory 2 gb

molecule MOL {
0 1

O	 -2.817697	 1.304178	 0.001046
C	 -2.664672	 0.129869	 0.003507
C	 -3.797908	 -0.860100	 -0.001145
O	 -1.481217	 -0.452708	 0.001092
H	 -4.408836	 -0.679689	 -0.875387
H	 -3.443486	 -1.878443	 -0.002770
H	 -4.412123	 -0.683688	 0.871605
C	 -0.332055	 0.384012	 -0.000250
C	 0.892252	 -0.506059	 -0.000295
H	 -0.360822	 1.020205	 -0.874146
H	 -0.359817	 1.021310	 0.872861
C	 2.188199	 0.299473	 -0.001416
H	 0.857046	 -1.152781	 -0.871031
H	 0.857910	 -1.151798	 0.871202
C	 3.437151	 -0.577593	 -0.000991
H	 2.209565	 0.950707	 -0.871712
H	 2.210062	 0.952234	 0.867721
C	 3.200636	 -1.953969	 0.611101
H	 4.229449	 -0.071957	 0.543666
H	 3.793984	 -0.692783	 -1.020544
H	 2.875465	 -1.872902	 1.642865
H	 4.105304	 -2.550499	 0.595812
H	 2.436382	 -2.498412	 0.066719

	symmetry c1
}
set optking {
	frozen_dihedral = ("
		19 15 12 16
	")
}

ee,wfn = optimize('scf', return_wfn=True)
oeprop( wfn, 'DIPOLE', 'QUADRUPOLE', 'MULLIKEN_CHARGES')
f=open( 'psi4out.xyz', 'w' )
f.write( "23  " )
f.write( str(ee) + "\n" )
f.write( MOL.save_string_xyz() )
f.close()
--------------------------------------------------------------------------

    Molecular point group: c1
  Charge       = 0
  Multiplicity = 1
  Basis Set: CC-PVTZ
  Basis Set:
  @DF-RHF Final Energy:  -423.12533384884148
    Total Energy =                       -423.1253338488406825
    Molecular point group: c1
  Basis Set: CC-PVTZ
  Basis Set:
  Basis Set: CC-PVTZ
  Basis Set:
  @DF-RHF Final Energy:  -423.07486019000703
    Total Energy =                       -423.0748601900075982
  Basis Set: CC-PVTZ
  Basis Set:
  Basis Set: CC-PVTZ
  Basis Set:
  @DF-RHF Final Energy:  -423.12495097365968
    Total Energy =                       -423.1249509736599066
  Basis Set: CC-PVTZ
  Basis Set:
  Basis Set: CC-PVTZ
  Basis Set:
  @DF-RHF Final Energy:  -423.12794940624150
    Total Energy =                       -423.1279494062408730
  Basis Set: CC-PVTZ
  Basis Set:
  @DF-RHF Final Energy:  -423.12657752481596
    Total Energy =                       -423.1265775248160708
  Basis Set: CC-PVTZ
  Basis Set:
  @DF-RHF Final Energy:  -423.12805185962395
    Total Energy =                       -423.1280518596234970
  Basis Set: CC-PVTZ
  Basis Set:
  Basis Set: CC-PVTZ
  Basis Set:
  @DF-RHF Final Energy:  -423.12818760217152
    Total Energy =                       -423.1281876021714652
  Basis Set: CC-PVTZ
  Basis Set:
  Basis Set: CC-PVTZ
  Basis Set:
  @DF-RHF Final Energy:  -423.12818912449205
    Total Energy =                       -423.1281891244925646
  Basis Set: CC-PVTZ
  Basis Set:
  Charge       = 0
  Multiplicity = 1
  Basis Set: CC-PVTZ
  Basis Set:

    Orbital Energies (a.u.)
    -----------------------

    Doubly Occupied:

       1A    -20.595707     2A    -20.529351     3A    -11.366245
       4A    -11.279058     5A    -11.230572     6A    -11.222224
       7A    -11.221217     8A    -11.220246     9A    -11.210643
      10A     -1.470941    11A     -1.363800    12A     -1.093697
      13A     -1.040793    14A     -1.002077    15A     -0.931502
      16A     -0.858253    17A     -0.790241    18A     -0.769765
      19A     -0.694564    20A     -0.687571    21A     -0.673095
      22A     -0.645216    23A     -0.610648    24A     -0.603006
      25A     -0.575405    26A     -0.569113    27A     -0.549507
      28A     -0.538150    29A     -0.529450    30A     -0.507015
      31A     -0.500549    32A     -0.468730    33A     -0.467437
      34A     -0.463322    35A     -0.455117    36A     -0.438518

  @DF-RHF Final Energy:  -423.12818931885823

   => Energetics <=

    Nuclear Repulsion Energy =            455.9933489278820957
    One-Electron Energy =               -1479.8975868894481209
    Two-Electron Energy =                 600.7760486427083606
    DFT Exchange-Correlation Energy =       0.0000000000000000
    Empirical Dispersion Energy =           0.0000000000000000
    PCM Polarization Energy =               0.0000000000000000
    EFP Energy =                            0.0000000000000000
    Total Energy =                       -423.1281893188576078
    Molecular point group: c1
  Basis Set: CC-PVTZ
  Basis Set:

  -Total Gradient:
     Atom            X                  Y                   Z
    ------   -----------------  -----------------  -----------------
       1       -0.000031355060     0.000003162948     0.000006573958
       2        0.000076041694    -0.000008013471    -0.000009534737
       3       -0.000020632665     0.000019444078     0.000010357158
       4       -0.000009267242    -0.000001941424     0.000015148315
       5       -0.000011913441    -0.000012610080    -0.000009009180
       6       -0.000001989872    -0.000001337003    -0.000002149035
       7       -0.000011304560    -0.000009955071    -0.000000617064
       8        0.000030726820     0.000018883916    -0.000044185556
       9       -0.000022185203    -0.000021480296     0.000055723454
      10       -0.000000141398     0.000000793865     0.000002857190
      11       -0.000010252480    -0.000004392273     0.000013083211
      12        0.001293844747     0.006026250708     0.004687826744
      13        0.000010411323    -0.000005728942    -0.000008791946
      14       -0.000015855400     0.000004011001    -0.000004344805
      15        0.001737115944     0.001906082475    -0.007336684890
      16       -0.001355622352    -0.005393325781    -0.002884737764
      17        0.000013772534     0.000008444770     0.000000402215
      18       -0.000023225447    -0.000007663451     0.000012496514
      19       -0.001653744489    -0.002523078842     0.005498833692
      20       -0.000008874225     0.000022954581    -0.000002177766
      21       -0.000002105634    -0.000000751856     0.000004570220
      22        0.000017065540     0.000000161066     0.000004152025
      23       -0.000000509134    -0.000019910918    -0.000009791953

  **** Optimization is complete! (in 9 steps) ****
    Final optimized geometry and variables:
    Molecular point group: c1

    Geometry (in Angstrom), charge = 0, multiplicity = 1:

    O           -2.890099569262     0.832799986632    -0.688174171719
    C           -2.490651148455    -0.261405892404    -0.474257528571
    C           -3.366858206587    -1.485015932849    -0.474564754836
    O           -1.228915442709    -0.539729215499    -0.209567552579
    H           -3.839658814802    -1.569352026433    -1.443888802463
    H           -2.807752624794    -2.381221478127    -0.257881599447
    H           -4.147663477224    -1.349161806767     0.261719618311
    C           -0.304910294822     0.540144324608    -0.182062893849
    C            1.061869009171    -0.024880330146     0.141825948811
    H           -0.314113196309     1.035726222733    -1.143097398707
    H           -0.624003038412     1.257652271945     0.561647090340
    C            2.118262515553     1.080515517667     0.203800779757
    H            1.326157100075    -0.754604791101    -0.616976701233
    H            1.001033066829    -0.557376685292     1.082942508536
    C            3.567160088803     0.600218597270     0.422042142238
    H            2.075228408693     1.601244845707    -0.747964489440
    H            1.844022691383     1.789528547574     0.977805898486
    C            3.728599281486    -0.667162476811     1.263230918430
    H            4.105249087293     1.383388979905     0.945191293090
    H            4.053262855033     0.452473858855    -0.535533758842
    H            3.272241061378    -0.554823308552     2.241159405154
    H            4.780535050614    -0.878733748106     1.416949793128
    H            3.287456017722    -1.535225176441     0.789419985131

  Mulliken Charges: (a.u.)
   Center  Symbol    Alpha    Beta     Spin     Total
       1     O     4.20241  4.20241  0.00000 -0.40483
       2     C     2.81558  2.81558  0.00000  0.36883
       3     C     3.13990  3.13990  0.00000 -0.27980
       4     O     4.14434  4.14434  0.00000 -0.28868
       5     H     0.44213  0.44213  0.00000  0.11575
       6     H     0.44193  0.44193  0.00000  0.11615
       7     H     0.44214  0.44214  0.00000  0.11573
       8     C     2.98108  2.98108  0.00000  0.03784
       9     C     3.08487  3.08487  0.00000 -0.16974
      10     H     0.45330  0.45330  0.00000  0.09341
      11     H     0.45426  0.45426  0.00000  0.09148
      12     C     3.10574  3.10574  0.00000 -0.21148
      13     H     0.44984  0.44984  0.00000  0.10032
      14     H     0.44773  0.44773  0.00000  0.10454
      15     C     3.08794  3.08794  0.00000 -0.17587
      16     H     0.45015  0.45015  0.00000  0.09970
      17     H     0.44944  0.44944  0.00000  0.10113
      18     C     3.15800  3.15800  0.00000 -0.31601
      19     H     0.44981  0.44981  0.00000  0.10038
      20     H     0.45032  0.45032  0.00000  0.09936
      21     H     0.45326  0.45326  0.00000  0.09348
      22     H     0.44430  0.44430  0.00000  0.11141
      23     H     0.45154  0.45154  0.00000  0.09693

   Total alpha = 36.00000, Total beta = 36.00000, Total charge = -0.00000

*** Psi4 exiting successfully. Buy a developer a beer!
