                              Psi4 1.0.54 Driver

  ==> Input File <==

--------------------------------------------------------------------------
set {
	reference rhf
	basis cc-pvtz
}

set_num_threads( 4 )
memory 2 gb

molecule MOL {
0 1

O	 2.825358	 1.419812	 0.263167
C	 2.707126	 0.373056	 0.811285
C	 1.413242	 -0.414919	 0.783161
C	 3.851619	 -0.247392	 1.580312
C	 0.288398	 0.247429	 0.000314
H	 1.637902	 -1.398762	 0.377391
H	 1.114144	 -0.590114	 1.814109
C	 -0.993089	 -0.581367	 -0.000217
H	 0.617058	 0.418392	 -1.018444
H	 0.092948	 1.227843	 0.419505
C	 -2.258482	 0.271340	 0.000669
H	 -1.002280	 -1.233920	 -0.870484
H	 -1.002061	 -1.235367	 0.868958
C	 -3.544441	 -0.550271	 -0.000253
H	 -2.250545	 0.925250	 -0.867923
H	 -2.250598	 0.923423	 0.870642
C	 -4.804551	 0.308747	 0.000556
H	 -3.553737	 -1.201524	 -0.870151
H	 -3.553831	 -1.203282	 0.868313
H	 -4.842050	 0.949078	 -0.874436
H	 -5.698404	 -0.304480	 -0.000254
H	 -4.842277	 0.947103	 0.876982
H	 4.096142	 -1.219865	 1.167332
H	 4.716615	 0.395904	 1.531906
H	 3.567285	 -0.399486	 2.615717

	symmetry c1
}
set optking {
	frozen_dihedral = ("
		9 5 8 12
	")
}

ee,wfn = optimize('scf', return_wfn=True)
oeprop( wfn, 'DIPOLE', 'QUADRUPOLE', 'MULLIKEN_CHARGES')
f=open( 'psi4out.xyz', 'w' )
f.write( "25  " )
f.write( str(ee) + "\n" )
f.write( MOL.save_string_xyz() )
f.close()
--------------------------------------------------------------------------

    Molecular point group: c1
  Charge       = 0
  Multiplicity = 1
  Basis Set: CC-PVTZ
  Basis Set:
  @DF-RHF Final Energy:  -387.27118146213428
    Total Energy =                       -387.2711814621338817
    Molecular point group: c1
  Basis Set: CC-PVTZ
  Basis Set:
  Basis Set: CC-PVTZ
  Basis Set:
  @DF-RHF Final Energy:  -387.27147215519693
    Total Energy =                       -387.2714721551972161
  Basis Set: CC-PVTZ
  Basis Set:
  Basis Set: CC-PVTZ
  Basis Set:
  @DF-RHF Final Energy:  -387.27110696460352
    Total Energy =                       -387.2711069646030637
  Basis Set: CC-PVTZ
  Basis Set:
  Basis Set: CC-PVTZ
  Basis Set:
  @DF-RHF Final Energy:  -387.27153611855897
    Total Energy =                       -387.2715361185588563
  Basis Set: CC-PVTZ
  Basis Set:
  Basis Set: CC-PVTZ
  Basis Set:
  @DF-RHF Final Energy:  -387.27154253011190
    Total Energy =                       -387.2715425301117875
  Basis Set: CC-PVTZ
  Basis Set:
  Charge       = 0
  Multiplicity = 1
  Basis Set: CC-PVTZ
  Basis Set:

    Orbital Energies (a.u.)
    -----------------------

    Doubly Occupied:

       1A    -20.538837     2A    -11.320253     3A    -11.230157
       4A    -11.226499     5A    -11.215244     6A    -11.214650
       7A    -11.213505     8A    -11.211784     9A    -11.206626
      10A     -1.398774    11A     -1.094247    12A     -1.057489
      13A     -1.015036    14A     -0.970094    15A     -0.891049
      16A     -0.815382    17A     -0.791226    18A     -0.731500
      19A     -0.662179    20A     -0.652308    21A     -0.635791
      22A     -0.625217    23A     -0.597767    24A     -0.583221
      25A     -0.567776    26A     -0.562728    27A     -0.540746
      28A     -0.525398    29A     -0.515006    30A     -0.494097
      31A     -0.487640    32A     -0.475338    33A     -0.463638
      34A     -0.462079    35A     -0.450484    36A     -0.400997

  @DF-RHF Final Energy:  -387.27154284591728

   => Energetics <=

    Nuclear Repulsion Energy =            439.2928033858532331
    One-Electron Energy =               -1395.4391713879592771
    Two-Electron Energy =                 568.8748251561887628
    DFT Exchange-Correlation Energy =       0.0000000000000000
    Empirical Dispersion Energy =           0.0000000000000000
    PCM Polarization Energy =               0.0000000000000000
    EFP Energy =                            0.0000000000000000
    Total Energy =                       -387.2715428459173381
    Molecular point group: c1
  Basis Set: CC-PVTZ
  Basis Set:

  -Total Gradient:
     Atom            X                  Y                   Z
    ------   -----------------  -----------------  -----------------
       1       -0.000007934028     0.000017935512    -0.000009887509
       2        0.000013155572    -0.000015623436     0.000002240175
       3        0.000012181353     0.000013039932    -0.000005901534
       4       -0.000009056441    -0.000001825512     0.000021009084
       5       -0.003445752567     0.005329644842    -0.000795210784
       6       -0.000006556902    -0.000007373512     0.000005399797
       7        0.000013294359    -0.000005675942     0.000007521402
       8        0.003074784551    -0.004743766420     0.002950856577
       9        0.002375506208    -0.003688325887     0.000210184711
      10        0.000003123937    -0.000024297717     0.000022131359
      11       -0.000002434376    -0.000001164959    -0.000053213006
      12       -0.002021575572     0.003084073090    -0.002349365574
      13        0.000004657602     0.000028967083    -0.000008735009
      14       -0.000003955909     0.000006573603    -0.000006650088
      15       -0.000000632444    -0.000002678051    -0.000009687308
      16        0.000000648668     0.000023867424    -0.000006403943
      17       -0.000003704836    -0.000002069624     0.000033475834
      18        0.000005905182     0.000009124817    -0.000001259564
      19       -0.000008436928    -0.000014164056    -0.000003893784
      20        0.000006724738    -0.000009315899     0.000001416847
      21       -0.000004565620     0.000000039507     0.000007498135
      22       -0.000005362025     0.000010088254    -0.000002818140
      23        0.000005402729    -0.000001095328    -0.000000091987
      24       -0.000000100300     0.000003113048    -0.000003683172
      25        0.000004683043    -0.000009090766    -0.000004932521

  **** Optimization is complete! (in 6 steps) ****
    Final optimized geometry and variables:
    Molecular point group: c1

    Geometry (in Angstrom), charge = 0, multiplicity = 1:

    O            2.911774295686     1.288242008615    -0.171077925842
    C            2.791889981330     0.256119040914     0.403963144762
    C            1.480766616674    -0.502283225307     0.442811626231
    C            3.951361890434    -0.373467551316     1.142757789763
    C            0.337623280966     0.171524006569    -0.307638559808
    H            1.666338668474    -1.498200027604     0.046048552741
    H            1.220226043113    -0.653054429298     1.487876732177
    C           -0.947609135434    -0.667612707243    -0.292470099737
    H            0.662727566885     0.327705651601    -1.328520387747
    H            0.160945256249     1.149642577019     0.121768518127
    C           -2.213854252385     0.185617070482    -0.355167595439
    H           -0.952661106896    -1.331417960280    -1.152258797186
    H           -0.984871373945    -1.291849276163     0.595659443891
    C           -3.498463966398    -0.635415232736    -0.412994914220
    H           -2.163804411449     0.835987888556    -1.225398131585
    H           -2.246098318796     0.842085940179     0.511108764870
    C           -4.757834919415     0.223522095500    -0.459468093553
    H           -3.472118041740    -1.282449495713    -1.285622905200
    H           -3.543398794495    -1.293043456772     0.451222506321
    H           -4.759482521185     0.868086093914    -1.332142597601
    H           -5.650802879819    -0.389682067870    -0.499932811038
    H           -4.831730373072     0.857664197355     0.417757774149
    H            4.158112945988    -1.360076269645     0.742865949288
    H            4.827970264862     0.248509224049     1.046810209215
    H            3.704013524583    -0.496321663261     2.191442929449

  Mulliken Charges: (a.u.)
   Center  Symbol    Alpha    Beta     Spin     Total
       1     O     4.17054  4.17054  0.00000 -0.34108
       2     C     2.86319  2.86319  0.00000  0.27361
       3     C     3.11433  3.11433  0.00000 -0.22865
       4     C     3.15116  3.15116  0.00000 -0.30231
       5     C     3.08613  3.08613  0.00000 -0.17227
       6     H     0.44409  0.44409  0.00000  0.11181
       7     H     0.44552  0.44552  0.00000  0.10897
       8     C     3.09189  3.09189  0.00000 -0.18377
       9     H     0.44448  0.44448  0.00000  0.11104
      10     H     0.44572  0.44572  0.00000  0.10856
      11     C     3.08684  3.08684  0.00000 -0.17368
      12     H     0.45307  0.45307  0.00000  0.09386
      13     H     0.45614  0.45614  0.00000  0.08773
      14     C     3.08472  3.08472  0.00000 -0.16944
      15     H     0.45218  0.45218  0.00000  0.09564
      16     H     0.45511  0.45511  0.00000  0.08977
      17     C     3.15004  3.15004  0.00000 -0.30008
      18     H     0.45475  0.45475  0.00000  0.09050
      19     H     0.45534  0.45534  0.00000  0.08932
      20     H     0.45460  0.45460  0.00000  0.09079
      21     H     0.44870  0.44870  0.00000  0.10260
      22     H     0.45515  0.45515  0.00000  0.08971
      23     H     0.45046  0.45046  0.00000  0.09909
      24     H     0.43540  0.43540  0.00000  0.12919
      25     H     0.45045  0.45045  0.00000  0.09909

   Total alpha = 36.00000, Total beta = 36.00000, Total charge =  0.00000

*** Psi4 exiting successfully. Buy a developer a beer!
