                              Psi4 1.0.54 Driver

  ==> Input File <==

--------------------------------------------------------------------------
set {
	reference rhf
	basis cc-pvtz
}

set_num_threads( 4 )
memory 2 gb

molecule MOL {
0 1

H	 -1.383951	 -0.574812	 -1.138697
O	 -1.432053	 -0.565244	 -0.200812
C	 -0.727158	 0.534527	 0.310686
C	 0.680222	 0.664433	 -0.252229
H	 -1.306802	 1.408001	 0.044211
H	 -0.690821	 0.490158	 1.397609
C	 1.605391	 -0.489360	 0.123098
H	 0.615089	 0.745647	 -1.332226
H	 1.101414	 1.597893	 0.110950
H	 1.247627	 -1.432485	 -0.275204
H	 2.601435	 -0.332816	 -0.273062
H	 1.691776	 -0.589902	 1.200774

	symmetry c1
}
set optking {
	frozen_dihedral = ("
		1 2 3 4
	")
}

ee,wfn = optimize('scf', return_wfn=True)
oeprop( wfn, 'DIPOLE', 'QUADRUPOLE', 'MULLIKEN_CHARGES')
f=open( 'psi4out.xyz', 'w' )
f.write( "12  " )
f.write( str(ee) + "\n" )
f.write( MOL.save_string_xyz() )
f.close()
--------------------------------------------------------------------------

    Molecular point group: c1
  Charge       = 0
  Multiplicity = 1
  Basis Set: CC-PVTZ
  Basis Set:
  @DF-RHF Final Energy:  -193.18903251869966
    Total Energy =                       -193.1890325186995199
    Molecular point group: c1
  Basis Set: CC-PVTZ
  Basis Set:
  Basis Set: CC-PVTZ
  Basis Set:
  @DF-RHF Final Energy:  -193.19023172570442
    Total Energy =                       -193.1902317257045070
  Basis Set: CC-PVTZ
  Basis Set:
  Basis Set: CC-PVTZ
  Basis Set:
  @DF-RHF Final Energy:  -193.19066856511100
    Total Energy =                       -193.1906685651109967
  Basis Set: CC-PVTZ
  Basis Set:
  Basis Set: CC-PVTZ
  Basis Set:
  @DF-RHF Final Energy:  -193.19067562661573
    Total Energy =                       -193.1906756266155867
  Basis Set: CC-PVTZ
  Basis Set:
  Charge       = 0
  Multiplicity = 1
  Basis Set: CC-PVTZ
  Basis Set:

    Orbital Energies (a.u.)
    -----------------------

    Doubly Occupied:

       1A    -20.546361     2A    -11.265940     3A    -11.220726
       4A    -11.208714     5A     -1.364551     6A     -1.051467
       7A     -0.923916     8A     -0.817838     9A     -0.674615
      10A     -0.640107    11A     -0.634061    12A     -0.569220
      13A     -0.537069    14A     -0.518226    15A     -0.487371
      16A     -0.468425    17A     -0.433659

  @DF-RHF Final Energy:  -193.19067659437638

   => Energetics <=

    Nuclear Repulsion Energy =            133.2441108362938280
    One-Electron Energy =                -526.1450393581362732
    Two-Electron Energy =                 199.7102519274661176
    DFT Exchange-Correlation Energy =       0.0000000000000000
    Empirical Dispersion Energy =           0.0000000000000000
    PCM Polarization Energy =               0.0000000000000000
    EFP Energy =                            0.0000000000000000
    Total Energy =                       -193.1906765943763276
    Molecular point group: c1
  Basis Set: CC-PVTZ
  Basis Set:

  -Total Gradient:
     Atom            X                  Y                   Z
    ------   -----------------  -----------------  -----------------
       1        0.001131639931    -0.000728366314     0.000164031243
       2       -0.001539917580     0.001075878184    -0.000474074641
       3        0.000726806289    -0.000752470519     0.000981016747
       4       -0.000344581896     0.000416311629    -0.000705821055
       5        0.000011704723    -0.000008879692    -0.000008367511
       6        0.000005807485    -0.000033610343    -0.000006839440
       7        0.000011568567     0.000022042810     0.000029344494
       8       -0.000011425905    -0.000003200891     0.000011005220
       9        0.000008243031     0.000006147412     0.000003883683
      10       -0.000001225023     0.000018568172    -0.000003199902
      11       -0.000004453418     0.000003010816     0.000006458085
      12        0.000005833793    -0.000015431265     0.000002563077

  **** Optimization is complete! (in 5 steps) ****
    Final optimized geometry and variables:
    Molecular point group: c1

    Geometry (in Angstrom), charge = 0, multiplicity = 1:

    H           -1.351777501360    -0.630972759501    -1.101251989831
    O           -1.422164943582    -0.573101040152    -0.165528725244
    C           -0.721089347921     0.550473780546     0.297336917181
    C            0.697914453941     0.642573463252    -0.242339712607
    H           -1.263776542656     1.459046995410     0.047838023521
    H           -0.706409438402     0.468432283669     1.376839197987
    C            1.589720565810    -0.523657076120     0.170910488122
    H            0.658636074642     0.711033427755    -1.328008823812
    H            1.129776329163     1.577371848357     0.103218376751
    H            1.178927919627    -1.468546897123    -0.161082120997
    H            2.582985377721    -0.421411675705    -0.250426654631
    H            1.689836535921    -0.569737875570     1.250090786613

  Mulliken Charges: (a.u.)
   Center  Symbol    Alpha    Beta     Spin     Total
       1     H     0.39435  0.39435  0.00000  0.21130
       2     O     4.20443  4.20443  0.00000 -0.40886
       3     C     2.96790  2.96790  0.00000  0.06420
       4     C     3.09634  3.09634  0.00000 -0.19268
       5     H     0.46392  0.46392  0.00000  0.07217
       6     H     0.46137  0.46137  0.00000  0.07725
       7     C     3.14409  3.14409  0.00000 -0.28817
       8     H     0.45954  0.45954  0.00000  0.08092
       9     H     0.45291  0.45291  0.00000  0.09418
      10     H     0.45014  0.45014  0.00000  0.09971
      11     H     0.44997  0.44997  0.00000  0.10006
      12     H     0.45504  0.45504  0.00000  0.08992

   Total alpha = 17.00000, Total beta = 17.00000, Total charge = -0.00000

*** Psi4 exiting successfully. Buy a developer a beer!
