  ==> Input File <==

--------------------------------------------------------------------------
set {
	reference rhf
	basis 6-31G*
}

set_num_threads( 1 )
memory 2 gb

molecule MOL {
0 1

H	 -5.900015	 -3.240511	 -0.850293
O	 -6.208677	 -3.794877	 -0.148526
C	 -5.181917	 -4.665510	 0.253738
C	 -4.075962	 -3.968675	 1.038602
H	 -5.656809	 -5.412822	 0.876375
H	 -4.761396	 -5.182653	 -0.607949
C	 -3.305583	 -2.920717	 0.231653
H	 -4.516936	 -3.502183	 1.915696
H	 -3.384255	 -4.728971	 1.397570
C	 -2.167903	 -2.278368	 1.030334
H	 -3.994553	 -2.149967	 -0.102459
H	 -2.894764	 -3.384508	 -0.665268
C	 -1.309753	 -1.282496	 0.241564
H	 -2.581343	 -1.782106	 1.906484
H	 -1.520726	 -3.067741	 1.406835
C	 -2.037799	 -0.007733	 -0.193645
H	 -0.458178	 -1.002041	 0.857990
H	 -0.896916	 -1.779330	 -0.635111
C	 -3.489788	 0.042957	 0.286558
H	 -2.017067	 0.064384	 -1.280144
H	 -1.513726	 0.868678	 0.179924
C	 -4.216917	 1.317354	 -0.141063
H	 -4.025645	 -0.823308	 -0.095450
H	 -3.513059	 -0.038752	 1.371301
H	 -4.239342	 1.411634	 -1.223113
H	 -5.243387	 1.322503	 0.212445
H	 -3.726170	 2.201406	 0.256408

	symmetry c1
}
set optking {
	frozen_dihedral = ("
		14 10 7 4,
		14 10 13 16,
		10 7 4 8,
		8 4 3 2,
		20 16 19 22,
		4 3 2 1
	")
}

ee = energy('scf')
oeprop('DIPOLE', 'QUADRUPOLE', 'MULLIKEN_CHARGES')
f=open( 'psi4out.xyz', 'w' )
f.write( "27  " )
f.write( str(ee) + "\n" )
f.write( MOL.save_string_xyz() )
f.close()
--------------------------------------------------------------------------

    Molecular point group: c1

    Geometry (in Angstrom), charge = 0, multiplicity = 1:

       Center              X                  Y                   Z               Mass
    ------------   -----------------  -----------------  -----------------  -----------------
           H         -2.287978621672    -1.270877218756    -1.123522892844     1.007825032070
           O         -2.596640621672    -1.825243218756    -0.421755892844    15.994914619560
           C         -1.569880621672    -2.695876218756    -0.019491892844    12.000000000000
           C         -0.463925621672    -1.999041218756     0.765372107156    12.000000000000
           H         -2.044772621672    -3.443188218756     0.603145107156     1.007825032070
           H         -1.149359621672    -3.213019218756    -0.881178892844     1.007825032070
           C          0.306453378328    -0.951083218756    -0.041576892844    12.000000000000
           H         -0.904899621672    -1.532549218756     1.642466107156     1.007825032070
           H          0.227781378328    -2.759337218756     1.124340107156     1.007825032070
           C          1.444133378328    -0.308734218756     0.757104107156    12.000000000000
           H         -0.382516621672    -0.180333218756    -0.375688892844     1.007825032070
           H          0.717272378328    -1.414874218756    -0.938497892844     1.007825032070
           C          2.302283378328     0.687137781244    -0.031665892844    12.000000000000
           H          1.030693378328     0.187527781244     1.633254107156     1.007825032070
           H          2.091310378328    -1.098107218756     1.133605107156     1.007825032070
           C          1.574237378328     1.961900781244    -0.466874892844    12.000000000000
           H          3.153858378328     0.967592781244     0.584760107156     1.007825032070
           H          2.715120378328     0.190303781244    -0.908340892844     1.007825032070
           C          0.122248378328     2.012590781244     0.013328107156    12.000000000000
           H          1.594969378328     2.034017781244    -1.553373892844     1.007825032070
           H          2.098310378328     2.838311781244    -0.093305892844     1.007825032070
           C         -0.604880621672     3.286987781244    -0.414292892844    12.000000000000
           H         -0.413608621672     1.146325781244    -0.368679892844     1.007825032070
           H          0.098977378328     1.930881781244     1.098071107156     1.007825032070
           H         -0.627305621672     3.381267781244    -1.496342892844     1.007825032070
           H         -1.631350621672     3.292136781244    -0.060784892844     1.007825032070
           H         -0.114133621672     4.171039781244    -0.016821892844     1.007825032070

  Charge       = 0
  Multiplicity = 1
  Basis Set: 6-31G*
  Basis Set:

    Orbital Energies (a.u.)
    -----------------------

    Doubly Occupied:

       1A    -20.553117     2A    -11.267082     3A    -11.216708
       4A    -11.215199     5A    -11.214490     6A    -11.214382
       7A    -11.212998     8A    -11.209980     9A    -11.206723
      10A     -1.359712    11A     -1.102228    12A     -1.055843
      13A     -1.008175    14A     -0.951634    15A     -0.889657
      16A     -0.838060    17A     -0.795383    18A     -0.769485
      19A     -0.694615    20A     -0.652562    21A     -0.646877
      22A     -0.616512    23A     -0.597655    24A     -0.587529
      25A     -0.576341    26A     -0.569550    27A     -0.534948
      28A     -0.519054    29A     -0.506150    30A     -0.503552
      31A     -0.494635    32A     -0.486169    33A     -0.461046
      34A     -0.448774    35A     -0.441940    36A     -0.429011
      37A     -0.419765

  @DF-RHF Final Energy:  -388.24715261720439

   => Energetics <=

    Nuclear Repulsion Energy =            482.3153209172255629
    One-Electron Energy =               -1482.5897779440024351
    Two-Electron Energy =                 612.0273044095770274
    DFT Exchange-Correlation Energy =       0.0000000000000000
    Empirical Dispersion Energy =           0.0000000000000000
    PCM Polarization Energy =               0.0000000000000000
    EFP Energy =                            0.0000000000000000
    Total Energy =                       -388.2471526171998448

  Mulliken Charges: (a.u.)
   Center  Symbol    Alpha    Beta     Spin     Total
       1     H     0.27945  0.27945  0.00000  0.44110
       2     O     4.37076  4.37076  0.00000 -0.74152
       3     C     2.99763  2.99763  0.00000  0.00474
       4     C     3.15928  3.15928  0.00000 -0.31857
       5     H     0.41431  0.41431  0.00000  0.17138
       6     H     0.43186  0.43186  0.00000  0.13628
       7     C     3.16131  3.16131  0.00000 -0.32262
       8     H     0.41602  0.41602  0.00000  0.16795
       9     H     0.42426  0.42426  0.00000  0.15147
      10     C     3.16081  3.16081  0.00000 -0.32161
      11     H     0.42516  0.42516  0.00000  0.14968
      12     H     0.42571  0.42571  0.00000  0.14858
      13     C     3.15691  3.15691  0.00000 -0.31381
      14     H     0.41889  0.41889  0.00000  0.16221
      15     H     0.41841  0.41841  0.00000  0.16317
      16     C     3.15368  3.15368  0.00000 -0.30737
      17     H     0.41871  0.41871  0.00000  0.16257
      18     H     0.42142  0.42142  0.00000  0.15717
      19     C     3.15734  3.15734  0.00000 -0.31468
      20     H     0.42216  0.42216  0.00000  0.15568
      21     H     0.41940  0.41940  0.00000  0.16119
      22     C     3.23542  3.23542  0.00000 -0.47084
      23     H     0.42453  0.42453  0.00000  0.15094
      24     H     0.42050  0.42050  0.00000  0.15900
      25     H     0.42387  0.42387  0.00000  0.15226
      26     H     0.41949  0.41949  0.00000  0.16101
      27     H     0.42268  0.42268  0.00000  0.15463

   Total alpha = 37.00000, Total beta = 37.00000, Total charge =  0.00000
