                              Psi4 1.0.54 Driver

  ==> Input File <==

--------------------------------------------------------------------------
set {
	reference rhf
	basis cc-pvtz
}

set_num_threads( 4 )
memory 2 gb

molecule MOL {
0 1

H	 -0.190357	 -0.883413	 -2.513343
C	 -0.692451	 -0.001924	 -2.127959
O	 -0.775228	 0.000056	 -0.739966
H	 -1.707029	 -0.003154	 -2.500494
H	 -0.191562	 0.879160	 -2.515818
C	 0.406133	 -0.000384	 0.036994
C	 1.526415	 -0.003194	 -0.997339
C	 0.498772	 1.259027	 0.900673
C	 0.495883	 -1.257378	 0.904465
H	 1.452279	 0.872071	 -1.630204
H	 1.451276	 -0.881020	 -1.626529
H	 2.497919	 -0.002741	 -0.517601
H	 0.368981	 2.144239	 0.289753
H	 1.470064	 1.313479	 1.377660
H	 -0.248448	 1.271586	 1.684297
H	 0.363971	 -2.144195	 0.296316
H	 1.467114	 -1.312636	 1.381470
H	 -0.251246	 -1.265768	 1.688235

	symmetry c1
}
set optking {
	frozen_dihedral = ("
		2 3 6 7
	")
}

ee,wfn = optimize('scf', return_wfn=True)
oeprop( wfn, 'DIPOLE', 'QUADRUPOLE', 'MULLIKEN_CHARGES')
f=open( 'psi4out.xyz', 'w' )
f.write( "18  " )
f.write( str(ee) + "\n" )
f.write( MOL.save_string_xyz() )
f.close()
--------------------------------------------------------------------------

    Molecular point group: c1
  Charge       = 0
  Multiplicity = 1
  Basis Set: CC-PVTZ
  Basis Set:
  @DF-RHF Final Energy:  -271.25644986950624
    Total Energy =                       -271.2564498695063548
    Molecular point group: c1
  Basis Set: CC-PVTZ
  Basis Set:
  Basis Set: CC-PVTZ
  Basis Set:
  @DF-RHF Final Energy:  -271.25747957919918
    Total Energy =                       -271.2574795791994120
  Basis Set: CC-PVTZ
  Basis Set:
  Basis Set: CC-PVTZ
  Basis Set:
  @DF-RHF Final Energy:  -271.26636853010473
    Total Energy =                       -271.2663685301047281
  Basis Set: CC-PVTZ
  Basis Set:
  Basis Set: CC-PVTZ
  Basis Set:
  @DF-RHF Final Energy:  -271.27134200006935
    Total Energy =                       -271.2713420000693532
  Basis Set: CC-PVTZ
  Basis Set:
  @DF-RHF Final Energy:  -271.27218881617307
    Total Energy =                       -271.2721888161728430
  Basis Set: CC-PVTZ
  Basis Set:
  @DF-RHF Final Energy:  -271.27227446471358
    Total Energy =                       -271.2722744647136324
  Basis Set: CC-PVTZ
  Basis Set:
  Basis Set: CC-PVTZ
  Basis Set:
  @DF-RHF Final Energy:  -271.27226452403966
    Total Energy =                       -271.2722645240395423
  Basis Set: CC-PVTZ
  Basis Set:
  Basis Set: CC-PVTZ
  Basis Set:
  @DF-RHF Final Energy:  -271.27229475711636
    Total Energy =                       -271.2722947571161285
  Basis Set: CC-PVTZ
  Basis Set:
  Charge       = 0
  Multiplicity = 1
  Basis Set: CC-PVTZ
  Basis Set:

    Orbital Energies (a.u.)
    -----------------------

    Doubly Occupied:

       1A    -20.536985     2A    -11.280739     3A    -11.259518
       4A    -11.211716     5A    -11.202121     6A    -11.202107
       7A     -1.369230     8A     -1.075589     9A     -0.951523
      10A     -0.935489    11A     -0.912257    12A     -0.752168
      13A     -0.657594    14A     -0.648165    15A     -0.638422
      16A     -0.581868    17A     -0.578630    18A     -0.547472
      19A     -0.544549    20A     -0.526998    21A     -0.515311
      22A     -0.491470    23A     -0.483907    24A     -0.443315
      25A     -0.398520

  @DF-RHF Final Energy:  -271.27229524054133

   => Energetics <=

    Nuclear Repulsion Energy =            271.9939058578218010
    One-Electron Energy =                -907.0410746041484344
    Two-Electron Energy =                 363.7748735057853082
    DFT Exchange-Correlation Energy =       0.0000000000000000
    Empirical Dispersion Energy =           0.0000000000000000
    PCM Polarization Energy =               0.0000000000000000
    EFP Energy =                            0.0000000000000000
    Total Energy =                       -271.2722952405413253
    Molecular point group: c1
  Basis Set: CC-PVTZ
  Basis Set:

  -Total Gradient:
     Atom            X                  Y                   Z
    ------   -----------------  -----------------  -----------------
       1       -0.000003155310     0.000003552060    -0.000003478451
       2        0.000013598262    -0.000000890251     0.000060314359
       3        0.000042833182     0.000002060300     0.000002438988
       4        0.000034584814     0.000000370784     0.000010360364
       5       -0.000004415494    -0.000004535496    -0.000001859913
       6       -0.000032553074     0.000000053885    -0.000069259510
       7        0.000000608427     0.000001695886     0.000004081852
       8       -0.000010522976     0.000028230588     0.000013869038
       9       -0.000013516577    -0.000032861429     0.000015337985
      10       -0.000000392976     0.000000571429     0.000002735931
      11       -0.000002135519    -0.000002530669     0.000001101050
      12       -0.000016248167    -0.000000237718    -0.000008603101
      13       -0.000001616265    -0.000003034430     0.000020352191
      14       -0.000022674115     0.000000930558    -0.000021124105
      15        0.000021026681     0.000003574569    -0.000011812827
      16       -0.000000378860     0.000006421172     0.000020220353
      17       -0.000024638085     0.000002471302    -0.000022030897
      18        0.000019596050    -0.000005842541    -0.000012643308

  **** Optimization is complete! (in 9 steps) ****
    Final optimized geometry and variables:
    Molecular point group: c1

    Geometry (in Angstrom), charge = 0, multiplicity = 1:

    H           -0.679307994610    -0.872491590510    -2.169733885843
    C           -1.137448832337    -0.006820675376    -1.701524195437
    O           -1.019664663024    -0.020159332151    -0.317321915528
    H           -2.195896450689    -0.029119061657    -1.919586212531
    H           -0.720663605290     0.890040496217    -2.149215381828
    C            0.240880655334     0.001706460007     0.338021998146
    C            1.438805484383     0.040784129614    -0.611621759815
    C            0.240745560369     1.246464281845     1.222555587078
    C            0.299416841409    -1.261942327717     1.193351589287
    H            1.435744998236     0.927225640408    -1.232702566832
    H            1.476736165909    -0.830051237358    -1.253291051619
    H            2.349089576843     0.055152769365    -0.025565371699
    H            0.180630284771     2.142204001737     0.615382437650
    H            1.140456413452     1.301236580561     1.825150425044
    H           -0.616562304948     1.230919799793     1.883203893108
    H            0.281438187810    -2.145129389443     0.565439891889
    H            1.200792436764    -1.288330401831     1.795364923897
    H           -0.557587457863    -1.302135494302     1.853351694678

  Mulliken Charges: (a.u.)
   Center  Symbol    Alpha    Beta     Spin     Total
       1     H     0.46954  0.46954  0.00000  0.06092
       2     C     3.04059  3.04059  0.00000 -0.08118
       3     O     4.20016  4.20016  0.00000 -0.40032
       4     H     0.44257  0.44257  0.00000  0.11486
       5     H     0.46954  0.46954  0.00000  0.06093
       6     C     2.86999  2.86999  0.00000  0.26003
       7     C     3.17707  3.17707  0.00000 -0.35414
       8     C     3.14135  3.14135  0.00000 -0.28269
       9     C     3.14135  3.14135  0.00000 -0.28270
      10     H     0.44476  0.44476  0.00000  0.11048
      11     H     0.44476  0.44476  0.00000  0.11047
      12     H     0.44217  0.44217  0.00000  0.11566
      13     H     0.45222  0.45222  0.00000  0.09555
      14     H     0.45798  0.45798  0.00000  0.08404
      15     H     0.44788  0.44788  0.00000  0.10424
      16     H     0.45223  0.45223  0.00000  0.09554
      17     H     0.45798  0.45798  0.00000  0.08404
      18     H     0.44787  0.44787  0.00000  0.10426

   Total alpha = 25.00000, Total beta = 25.00000, Total charge =  0.00000

*** Psi4 exiting successfully. Buy a developer a beer!
