  ==> Input File <==

--------------------------------------------------------------------------
set {
	reference rhf
	basis 6-31G*
}

set_num_threads( 1 )
memory 2 gb

molecule MOL {
0 1

O	 -2.821601	 1.309235	 -0.001213
C	 -2.668563	 0.129746	 -0.000350
C	 -3.801572	 -0.864014	 -0.000442
O	 -1.481751	 -0.454642	 0.000584
H	 -4.417280	 -0.689587	 -0.874708
H	 -3.443784	 -1.883046	 -0.000565
H	 -4.417179	 -0.689832	 0.873954
C	 -0.334255	 0.388708	 0.000906
C	 0.891947	 -0.504646	 0.000751
H	 -0.365390	 1.025305	 -0.873475
H	 -0.365484	 1.024911	 0.875569
C	 2.191998	 0.301789	 0.000897
H	 0.855148	 -1.151283	 -0.871571
H	 0.855132	 -1.151660	 0.872805
C	 3.105129	 -0.039554	 -1.178087
H	 1.960433	 1.365242	 -0.022128
H	 2.728746	 0.126454	 0.931619
C	 4.403007	 0.766906	 -1.178635
H	 2.570445	 0.135426	 -2.108985
H	 3.339412	 -1.101468	 -1.155308
H	 4.202353	 1.833009	 -1.235003
H	 5.028557	 0.503052	 -2.025573
H	 4.977248	 0.586569	 -0.274347

	symmetry c1
}
set optking {
	frozen_dihedral = ("
		13 9 8 10,
		2 4 8 10,
		19 15 12 16,
		1 2 4 8
	")
}

ee = energy('scf')
oeprop('DIPOLE', 'QUADRUPOLE', 'MULLIKEN_CHARGES')
f=open( 'psi4out.xyz', 'w' )
f.write( "23  " )
f.write( str(ee) + "\n" )
f.write( MOL.save_string_xyz() )
f.close()
--------------------------------------------------------------------------

    Molecular point group: c1

    Geometry (in Angstrom), charge = 0, multiplicity = 1:

       Center              X                  Y                   Z               Mass
    ------------   -----------------  -----------------  -----------------  -----------------
           O         -2.746539954247     1.188181920808     0.261688855872    15.994914619560
           C         -2.593501954247     0.008692920808     0.262551855872    12.000000000000
           C         -3.726510954247    -0.985067079192     0.262459855872    12.000000000000
           O         -1.406689954247    -0.575695079192     0.263485855872    15.994914619560
           H         -4.342218954247    -0.810640079192    -0.611806144128     1.007825032070
           H         -3.368722954247    -2.004099079192     0.262336855872     1.007825032070
           H         -4.342117954247    -0.810885079192     1.136855855872     1.007825032070
           C         -0.259193954247     0.267654920808     0.263807855872    12.000000000000
           C          0.967008045753    -0.625699079192     0.263652855872    12.000000000000
           H         -0.290328954247     0.904251920808    -0.610573144128     1.007825032070
           H         -0.290422954247     0.903857920808     1.138470855872     1.007825032070
           C          2.267059045753     0.180735920808     0.263798855872    12.000000000000
           H          0.930209045753    -1.272336079192    -0.608669144128     1.007825032070
           H          0.930193045753    -1.272713079192     1.135706855872     1.007825032070
           C          3.180190045753    -0.160607079192    -0.915185144128    12.000000000000
           H          2.035494045753     1.244188920808     0.240773855872     1.007825032070
           H          2.803807045753     0.005400920808     1.194520855872     1.007825032070
           C          4.478068045753     0.645852920808    -0.915733144128    12.000000000000
           H          2.645506045753     0.014372920808    -1.846083144128     1.007825032070
           H          3.414473045753    -1.222521079192    -0.892406144128     1.007825032070
           H          4.277414045753     1.711955920808    -0.972101144128     1.007825032070
           H          5.103618045753     0.381998920808    -1.762671144128     1.007825032070
           H          5.052309045753     0.465515920808    -0.011445144128     1.007825032070

  Charge       = 0
  Multiplicity = 1
  Basis Set: 6-31G*
  Basis Set:

    Orbital Energies (a.u.)
    -----------------------

    Doubly Occupied:

       1A    -20.602791     2A    -20.540513     3A    -11.374061
       4A    -11.282071     5A    -11.232334     6A    -11.223017
       7A    -11.222429     8A    -11.221749     9A    -11.212414
      10A     -1.467929    11A     -1.360716    12A     -1.094644
      13A     -1.041658    14A     -1.003132    15A     -0.930714
      16A     -0.843076    17A     -0.801463    18A     -0.776431
      19A     -0.689253    20A     -0.684905    21A     -0.671516
      22A     -0.638332    23A     -0.612202    24A     -0.586420
      25A     -0.580743    26A     -0.571089    27A     -0.559774
      28A     -0.533478    29A     -0.525269    30A     -0.501759
      31A     -0.496003    32A     -0.478967    33A     -0.468033
      34A     -0.462495    35A     -0.450066    36A     -0.435321

  @DF-RHF Final Energy:  -422.97441118516770

   => Energetics <=

    Nuclear Repulsion Energy =            451.7410275630210208
    One-Electron Energy =               -1471.0774453843278025
    Two-Electron Energy =                 596.3620066361393128
    DFT Exchange-Correlation Energy =       0.0000000000000000
    Empirical Dispersion Energy =           0.0000000000000000
    PCM Polarization Energy =               0.0000000000000000
    EFP Energy =                            0.0000000000000000
    Total Energy =                       -422.9744111851674688

  Mulliken Charges: (a.u.)
   Center  Symbol    Alpha    Beta     Spin     Total
       1     O     4.28396  4.28396  0.00000 -0.56792
       2     C     2.61551  2.61551  0.00000  0.76897
       3     C     3.28778  3.28778  0.00000 -0.57556
       4     O     4.31238  4.31238  0.00000 -0.62476
       5     H     0.39753  0.39753  0.00000  0.20494
       6     H     0.39985  0.39985  0.00000  0.20031
       7     H     0.39752  0.39752  0.00000  0.20497
       8     C     3.00076  3.00076  0.00000 -0.00151
       9     C     3.16512  3.16512  0.00000 -0.33024
      10     H     0.41052  0.41052  0.00000  0.17896
      11     H     0.40993  0.40993  0.00000  0.18014
      12     C     3.16334  3.16334  0.00000 -0.32667
      13     H     0.41151  0.41151  0.00000  0.17697
      14     H     0.41194  0.41194  0.00000  0.17613
      15     C     3.15388  3.15388  0.00000 -0.30776
      16     H     0.41880  0.41880  0.00000  0.16241
      17     H     0.41707  0.41707  0.00000  0.16586
      18     C     3.24056  3.24056  0.00000 -0.48111
      19     H     0.42166  0.42166  0.00000  0.15669
      20     H     0.42063  0.42063  0.00000  0.15873
      21     H     0.42061  0.42061  0.00000  0.15877
      22     H     0.41812  0.41812  0.00000  0.16376
      23     H     0.42103  0.42103  0.00000  0.15794

   Total alpha = 36.00000, Total beta = 36.00000, Total charge = -0.00000
