  ==> Input File <==

--------------------------------------------------------------------------
set {
	reference rhf
	basis cc-pvtz
}

set_num_threads( 4 )
memory 2 gb

molecule MOL {
0 1

O	 -1.278239	 1.034789	 -0.784693
C	 -1.204115	 0.062668	 -0.112312
C	 -2.386398	 -0.667698	 0.460323
O	 -0.068058	 -0.518372	 0.226882
H	 -2.382952	 -1.693172	 0.114333
H	 -3.296656	 -0.175702	 0.158400
H	 -2.312537	 -0.685191	 1.540100
C	 1.169086	 0.037484	 -0.230612
C	 2.249623	 -0.542248	 0.660153
C	 1.104678	 1.553237	 -0.176289
H	 1.318747	 -0.281794	 -1.250784
H	 2.258591	 -1.622839	 0.596969
H	 3.220909	 -0.173157	 0.353417
H	 2.086909	 -0.261382	 1.693872
H	 2.045011	 1.975567	 -0.510821
H	 0.319199	 1.927456	 -0.817874
H	 0.920801	 1.889547	 0.837796

	symmetry c1
}
set optking {
	frozen_dihedral = ("
		11 8 4 2
	")
}

ee = optimize('scf')
oeprop('DIPOLE', 'QUADRUPOLE', 'MULLIKEN_CHARGES')
f=open( 'psi4out.xyz', 'w' )
f.write( "17  " )
f.write( str(ee) + "\n" )
f.write( MOL.save_string_xyz() )
f.close()
--------------------------------------------------------------------------

    Molecular point group: c1
  Charge       = 0
  Multiplicity = 1
  Basis Set: CC-PVTZ
  Basis Set:
  @DF-RHF Final Energy:  -345.02329429590407
    Total Energy =                       -345.0232942959039519
    Molecular point group: c1
  Basis Set: CC-PVTZ
  Basis Set:
  Basis Set: CC-PVTZ
  Basis Set:
  @DF-RHF Final Energy:  -345.03494911771219
    Total Energy =                       -345.0349491177122445
  Basis Set: CC-PVTZ
  Basis Set:
  Basis Set: CC-PVTZ
  Basis Set:
  @DF-RHF Final Energy:  -345.03655104986541
    Total Energy =                       -345.0365510498653521
  Basis Set: CC-PVTZ
  Basis Set:
  Basis Set: CC-PVTZ
  Basis Set:
  @DF-RHF Final Energy:  -345.03706284679305
    Total Energy =                       -345.0370628467934466
  Basis Set: CC-PVTZ
  Basis Set:
  @DF-RHF Final Energy:  -345.03720784536637
    Total Energy =                       -345.0372078453667086
  @DF-RHF Final Energy:  -345.03724499315132
    Total Energy =                       -345.0372449931515462
  @DF-RHF Final Energy:  -345.03725013266285
    Total Energy =                       -345.0372501326628480
  @DF-RHF Final Energy:  -345.03725190278431
    Total Energy =                       -345.0372519027842486
  @DF-RHF Final Energy:  -345.03725338243026
    Total Energy =                       -345.0372533824306061
  @DF-RHF Final Energy:  -345.01584524440023
    Total Energy =                       -345.0158452444001114
  @DF-RHF Final Energy:  -344.96614780310171
    Total Energy =                       -344.9661478031014212
  @DF-RHF Final Energy:  -344.95981816176123
    Total Energy =                       -344.9598181617616319
  @DF-RHF Final Energy:  -345.01508637457613
    Total Energy =                       -345.0150863745759580
  @DF-RHF Final Energy:  -345.01013331545840
    Total Energy =                       -345.0101333154586882
  @DF-RHF Final Energy:  -345.03266364917914
    Total Energy =                       -345.0326636491794829
  @DF-RHF Final Energy:  -345.03661030445954
    Total Energy =                       -345.0366103044597139
  @DF-RHF Final Energy:  -345.03707760308981
    Total Energy =                       -345.0370776030897559
  @DF-RHF Final Energy:  -345.03714772477196
    Total Energy =                       -345.0371477247714438
  @DF-RHF Final Energy:  -345.03719171426025
    Total Energy =                       -345.0371917142600751
  @DF-RHF Final Energy:  -345.03721836459357
    Total Energy =                       -345.0372183645936275
  @DF-RHF Final Energy:  -345.01634636112510
    Total Energy =                       -345.0163463611254429
  @DF-RHF Final Energy:  -345.03408818917956
    Total Energy =                       -345.0340881891793288
  @DF-RHF Final Energy:  -345.03715522982515
    Total Energy =                       -345.0371552298253732
  @DF-RHF Final Energy:  -345.03722571963795
    Total Energy =                       -345.0372257196377177
  @DF-RHF Final Energy:  -345.03722820330842
    Total Energy =                       -345.0372282033082456
  @DF-RHF Final Energy:  -345.03724657264507
    Total Energy =                       -345.0372465726454720
  @DF-RHF Final Energy:  -345.03724868499239
    Total Energy =                       -345.0372486849927327
  @DF-RHF Final Energy:  -345.03724967244420
    Total Energy =                       -345.0372496724444318
  @DF-RHF Final Energy:  -345.03724922388392
    Total Energy =                       -345.0372492238841460
  @DF-RHF Final Energy:  -345.03724887175861
    Total Energy =                       -345.0372488717586634
  @DF-RHF Final Energy:  -345.03518897184546
    Total Energy =                       -345.0351889718451730
  @DF-RHF Final Energy:  -345.03261544634233
    Total Energy =                       -345.0326154463426178
  @DF-RHF Final Energy:  -345.03714710532734
    Total Energy =                       -345.0371471053269943
  @DF-RHF Final Energy:  -345.03724453849281
    Total Energy =                       -345.0372445384932121
  @DF-RHF Final Energy:  -345.03723909653951
    Total Energy =                       -345.0372390965395653
  @DF-RHF Final Energy:  -345.03724869402186
    Total Energy =                       -345.0372486940218550
  Basis Set: CC-PVTZ
  Basis Set:
  @DF-RHF Final Energy:  -345.03724886482246
    Total Energy =                       -345.0372488648226295
  Basis Set: CC-PVTZ
  Basis Set:
  Basis Set: CC-PVTZ
  Basis Set:
  @DF-RHF Final Energy:  -345.03724867086987
    Total Energy =                       -345.0372486708700421
  Basis Set: CC-PVTZ
  Basis Set:
  Basis Set: CC-PVTZ
  Basis Set:
  @DF-RHF Final Energy:  -345.03724879319435
    Total Energy =                       -345.0372487931946353
  Basis Set: CC-PVTZ
  Basis Set:
  Charge       = 0
  Multiplicity = 1
  Basis Set: CC-PVTZ
  Basis Set:

    Orbital Energies (a.u.)
    -----------------------

    Doubly Occupied:

       1A    -20.590077     2A    -20.530322     3A    -11.366618
       4A    -11.293259     5A    -11.229483     6A    -11.217264
       7A    -11.211787     8A     -1.465364     9A     -1.364631
      10A     -1.080612    11A     -1.004740    12A     -0.947267
      13A     -0.856827    14A     -0.754457    15A     -0.693522
      16A     -0.680266    17A     -0.660508    18A     -0.616556
      19A     -0.586725    20A     -0.579435    21A     -0.551733
      22A     -0.550711    23A     -0.543292    24A     -0.519334
      25A     -0.502829    26A     -0.485763    27A     -0.450072
      28A     -0.433619

  @DF-RHF Final Energy:  -345.03724909464108

   => Energetics <=

    Nuclear Repulsion Energy =            324.2903980329629121
    One-Electron Energy =               -1113.1211507690852613
    Two-Electron Energy =                 443.7935036414806973
    DFT Exchange-Correlation Energy =       0.0000000000000000
    Empirical Dispersion Energy =           0.0000000000000000
    PCM Polarization Energy =               0.0000000000000000
    EFP Energy =                            0.0000000000000000
    Total Energy =                       -345.0372490946416519
    Molecular point group: c1
  Basis Set: CC-PVTZ
  Basis Set:

  -Total Gradient:
     Atom            X                  Y                   Z
    ------   -----------------  -----------------  -----------------
       1        0.000009828330     0.000050003229     0.000167415596
       2       -0.000377940425     0.003040125227     0.004878700904
       3       -0.000036608953     0.000076959953     0.000117974194
       4        0.001120244067    -0.006255289995    -0.006826169003
       5       -0.000033431197    -0.000084634948    -0.000022218728
       6        0.000029815465     0.000031661285    -0.000043469833
       7        0.000084829593     0.000022239081    -0.000095756639
       8       -0.004787298503     0.008874192290    -0.000536011948
       9       -0.000000285331    -0.000251959076     0.000121924707
      10        0.000388709215    -0.000212067107    -0.000087925160
      11        0.003577398464    -0.005385770613     0.002320179249
      12       -0.000057127111     0.000031403677    -0.000067271935
      13        0.000083803371     0.000065029877    -0.000016450740
      14        0.000015287300    -0.000006641153     0.000006253480
      15       -0.000109779640     0.000044923476     0.000032148719
      16        0.000102947250    -0.000022273356     0.000003433897
      17       -0.000010391894    -0.000017901847     0.000047243237

  **** Optimization is complete! (in 47 steps) ****
    Final optimized geometry and variables:
    Molecular point group: c1

    Geometry (in Angstrom), charge = 0, multiplicity = 1:

    O           -1.356434715970     0.725152980610    -0.970108452181
    C           -1.178104307359    -0.129131398889    -0.170693317912
    C           -2.279611377948    -0.833171259161     0.573045059837
    O            0.003878693375    -0.608862306267     0.168352901096
    H           -2.206871552478    -1.900585783899     0.410378866469
    H           -3.235143027942    -0.467807374659     0.233499157513
    H           -2.168847460344    -0.654462507159     1.634942369398
    C            1.243148790350    -0.002499022158    -0.223026192419
    C            2.281447568905    -0.678862805443     0.659030902895
    C            1.283276550205     1.507745210050    -0.071849355319
    H            1.441867759466    -0.307362609911    -1.243246228467
    H            2.216429068520    -1.754752131181     0.563375068081
    H            3.277162204552    -0.366872507584     0.367872441650
    H            2.129213078750    -0.418019367139     1.699733057725
    H            2.304605046264     1.838757721309    -0.217681579478
    H            0.650258243767     2.010876044026    -0.781492490539
    H            0.981281479707     1.792978653716     0.930393063230

  Mulliken Charges: (a.u.)
   Center  Symbol    Alpha    Beta     Spin     Total
       1     O     4.19928  4.19928  0.00000 -0.39857
       2     C     2.80698  2.80698  0.00000  0.38605
       3     C     3.13804  3.13804  0.00000 -0.27608
       4     O     4.16042  4.16042  0.00000 -0.32085
       5     H     0.44485  0.44485  0.00000  0.11030
       6     H     0.43848  0.43848  0.00000  0.12304
       7     H     0.44747  0.44747  0.00000  0.10505
       8     C     2.92924  2.92924  0.00000  0.14153
       9     C     3.13835  3.13835  0.00000 -0.27670
      10     C     3.16372  3.16372  0.00000 -0.32744
      11     H     0.44910  0.44910  0.00000  0.10179
      12     H     0.44609  0.44609  0.00000  0.10782
      13     H     0.45533  0.45533  0.00000  0.08933
      14     H     0.45346  0.45346  0.00000  0.09309
      15     H     0.44969  0.44969  0.00000  0.10061
      16     H     0.42624  0.42624  0.00000  0.14752
      17     H     0.45325  0.45325  0.00000  0.09350

   Total alpha = 28.00000, Total beta = 28.00000, Total charge =  0.00000
