                              Psi4 1.0.54 Driver

  ==> Input File <==

--------------------------------------------------------------------------
set {
	reference rhf
	basis cc-pvtz
}

set_num_threads( 4 )
memory 2 gb

molecule MOL {
0 1

O	 0.686635	 2.141736	 0.057260
C	 -0.417113	 2.557450	 0.157177
C	 -1.671174	 1.721529	 0.151810
O	 -0.697393	 3.843604	 0.289952
C	 -1.413045	 0.229353	 0.001137
H	 -2.204309	 1.937242	 1.071982
H	 -2.301617	 2.094175	 -0.648902
C	 -2.702562	 -0.586401	 0.000228
H	 -0.767302	 -0.105376	 0.805198
H	 -0.865323	 0.051566	 -0.917524
C	 -3.953810	 0.284959	 -0.000782
H	 -2.717793	 -1.238567	 -0.869075
H	 -2.719108	 -1.238472	 0.869576
H	 -3.983727	 0.924403	 -0.876454
H	 -4.852989	 -0.320147	 -0.001515
H	 -3.985140	 0.924399	 0.874841
C	 0.390111	 4.745946	 0.310773
H	 1.049325	 4.529633	 1.138343
H	 -0.039960	 5.727778	 0.424410
H	 0.950702	 4.688843	 -0.610476

	symmetry c1
}
set optking {
	frozen_dihedral = ("
		9 5 8 12
	")
}

ee,wfn = optimize('scf', return_wfn=True)
oeprop( wfn, 'DIPOLE', 'QUADRUPOLE', 'MULLIKEN_CHARGES')
f=open( 'psi4out.xyz', 'w' )
f.write( "20  " )
f.write( str(ee) + "\n" )
f.write( MOL.save_string_xyz() )
f.close()
--------------------------------------------------------------------------

    Molecular point group: c1
  Charge       = 0
  Multiplicity = 1
  Basis Set: CC-PVTZ
  Basis Set:
  @DF-RHF Final Energy:  -384.06834445237945
    Total Energy =                       -384.0683444523793924
    Molecular point group: c1
  Basis Set: CC-PVTZ
  Basis Set:
  Basis Set: CC-PVTZ
  Basis Set:
  @DF-RHF Final Energy:  -383.43650977858573
    Total Energy =                       -383.4365097785857870
  Basis Set: CC-PVTZ
  Basis Set:
  Basis Set: CC-PVTZ
  Basis Set:
  @DF-RHF Final Energy:  -383.64273278964555
    Total Energy =                       -383.6427327896451516
  Basis Set: CC-PVTZ
  Basis Set:
  Basis Set: CC-PVTZ
  Basis Set:
  @DF-RHF Final Energy:  -383.92392775138387
    Total Energy =                       -383.9239277513837578
  Basis Set: CC-PVTZ
  Basis Set:
  @DF-RHF Final Energy:  -384.05401038895707
    Total Energy =                       -384.0540103889568968
  @DF-RHF Final Energy:  -384.07179237926971
    Total Energy =                       -384.0717923792698230
  @DF-RHF Final Energy:  -384.07302304549222
    Total Energy =                       -384.0730230454923912
  Basis Set: CC-PVTZ
  Basis Set:
  @DF-RHF Final Energy:  -384.07313659884210
    Total Energy =                       -384.0731365988419839
  Basis Set: CC-PVTZ
  Basis Set:
  Basis Set: CC-PVTZ
  Basis Set:
  @DF-RHF Final Energy:  -384.07307431448766
    Total Energy =                       -384.0730743144877124
  Basis Set: CC-PVTZ
  Basis Set:
  Basis Set: CC-PVTZ
  Basis Set:
  @DF-RHF Final Energy:  -384.07314649944158
    Total Energy =                       -384.0731464994416910
  Basis Set: CC-PVTZ
  Basis Set:
  Charge       = 0
  Multiplicity = 1
  Basis Set: CC-PVTZ
  Basis Set:

    Orbital Energies (a.u.)
    -----------------------

    Doubly Occupied:

       1A    -20.595930     2A    -20.533909     3A    -11.364249
       4A    -11.278261     5A    -11.233254     6A    -11.218721
       7A    -11.217485     8A    -11.211659     9A     -1.471915
      10A     -1.365497    11A     -1.085951    12A     -1.022095
      13A     -0.968354    14A     -0.898591    15A     -0.799267
      16A     -0.762066    17A     -0.702871    18A     -0.686442
      19A     -0.674427    20A     -0.644431    21A     -0.606503
      22A     -0.591588    23A     -0.566689    24A     -0.547298
      25A     -0.542918    26A     -0.523417    27A     -0.517032
      28A     -0.473339    29A     -0.471897    30A     -0.462891
      31A     -0.452989    32A     -0.440933

  @DF-RHF Final Energy:  -384.07314726077777

   => Energetics <=

    Nuclear Repulsion Energy =            385.9677870567116997
    One-Electron Energy =               -1288.2161267875094381
    Two-Electron Energy =                 518.1751924700203062
    DFT Exchange-Correlation Energy =       0.0000000000000000
    Empirical Dispersion Energy =           0.0000000000000000
    PCM Polarization Energy =               0.0000000000000000
    EFP Energy =                            0.0000000000000000
    Total Energy =                       -384.0731472607774322
    Molecular point group: c1
  Basis Set: CC-PVTZ
  Basis Set:

  -Total Gradient:
     Atom            X                  Y                   Z
    ------   -----------------  -----------------  -----------------
       1       -0.000029107024     0.000042296471     0.000022032225
       2        0.000041339498     0.000059285928    -0.000074904459
       3       -0.000078618322    -0.000030617677     0.000039983688
       4       -0.000020750123    -0.000077718918     0.000025702581
       5        0.001876264526    -0.000716578189    -0.001434782441
       6        0.000003852318    -0.000001078598    -0.000035032133
       7        0.000047159109     0.000029032939    -0.000003993254
       8        0.000354600033    -0.001872723815     0.001523863234
       9       -0.001640028039     0.000842838232     0.000969285360
      10       -0.000009184584     0.000003540145     0.000000611734
      11        0.000004067730     0.000016251769    -0.000021970161
      12       -0.000597187650     0.001721514071    -0.001043263482
      13        0.000004697643    -0.000017158776     0.000017536624
      14       -0.000028175271    -0.000023472890    -0.000028253291
      15       -0.000000364183     0.000008036990     0.000015033817
      16        0.000026210522    -0.000000279000     0.000009225896
      17        0.000027264009    -0.000009578719    -0.000005688218
      18       -0.000000162376     0.000009939290     0.000020818419
      19        0.000003335146    -0.000002304812     0.000005216295
      20        0.000014787040     0.000018775563    -0.000001422431

  **** Optimization is complete! (in 11 steps) ****
    Final optimized geometry and variables:
    Molecular point group: c1

    Geometry (in Angstrom), charge = 0, multiplicity = 1:

    O            1.668879442780     0.291480826915     0.891660310572
    C            0.585719385627     0.657540624682     0.585548031921
    C           -0.412241843875    -0.127096557835    -0.228720760559
    O            0.098214197597     1.839201912220     0.928426248476
    C            0.100400102056    -1.508708725940    -0.623679613777
    H           -1.320565711842    -0.184727303466     0.359321451353
    H           -0.655743782614     0.480585926253    -1.092000029659
    C           -0.871566099455    -2.384618750794    -1.457822879506
    H            0.353910207726    -2.031552727943     0.289289515979
    H            1.030666084784    -1.382544653122    -1.160976230241
    C           -2.167572019465    -1.733231503321    -1.942863804416
    H           -0.342261996306    -2.739852535510    -2.334595635650
    H           -1.130911138793    -3.266605544963    -0.883798745573
    H           -1.978423573372    -0.882249017405    -2.587145822023
    H           -2.745022492548    -2.449503982060    -2.515726320921
    H           -2.791096205617    -1.397419696191    -1.122859096444
    C            0.930118129290     2.686817218463     1.694241197684
    H            1.186841806083     2.221559009363     2.634410875445
    H            0.360710829782     3.585570350490     1.867288972004
    H            1.837563073570     2.918353805463     1.156415757033

  Mulliken Charges: (a.u.)
   Center  Symbol    Alpha    Beta     Spin     Total
       1     O     4.19682  4.19682  0.00000 -0.39363
       2     C     2.81242  2.81242  0.00000  0.37516
       3     C     3.09606  3.09606  0.00000 -0.19211
       4     O     4.14627  4.14627  0.00000 -0.29254
       5     C     3.09376  3.09376  0.00000 -0.18752
       6     H     0.43884  0.43884  0.00000  0.12231
       7     H     0.43880  0.43880  0.00000  0.12240
       8     C     3.08939  3.08939  0.00000 -0.17877
       9     H     0.44379  0.44379  0.00000  0.11241
      10     H     0.44302  0.44302  0.00000  0.11395
      11     C     3.15848  3.15848  0.00000 -0.31697
      12     H     0.44966  0.44966  0.00000  0.10068
      13     H     0.44974  0.44974  0.00000  0.10052
      14     H     0.45375  0.45375  0.00000  0.09251
      15     H     0.44282  0.44282  0.00000  0.11436
      16     H     0.45408  0.45408  0.00000  0.09185
      17     C     3.03840  3.03840  0.00000 -0.07680
      18     H     0.45433  0.45433  0.00000  0.09134
      19     H     0.44521  0.44521  0.00000  0.10957
      20     H     0.45436  0.45436  0.00000  0.09128

   Total alpha = 32.00000, Total beta = 32.00000, Total charge =  0.00000

*** Psi4 exiting successfully. Buy a developer a beer!
