  ==> Input File <==

--------------------------------------------------------------------------
set {
	reference rhf
	basis cc-pvtz
}

set_num_threads( 4 )
memory 2 gb

molecule MOL {
0 1

H	 0.710892	 -2.823046	 -1.978231
O	 0.729046	 -2.305492	 -1.187317
C	 -0.277070	 -1.436825	 -1.229403
C	 -0.318151	 -0.570512	 0.000144
O	 -1.026241	 -1.385266	 -2.142667
C	 -1.454884	 0.441630	 -0.000560
H	 -0.381579	 -1.233641	 0.856956
H	 0.646572	 -0.079442	 0.077987
C	 -2.822577	 -0.232186	 0.000063
H	 -1.359760	 1.084704	 -0.867077
H	 -1.359641	 1.085996	 0.864983
H	 -2.954352	 -0.858985	 -0.875745
H	 -3.615886	 0.505352	 0.000019
H	 -2.953878	 -0.858359	 0.876394

	symmetry c1
}
set optking {
	frozen_dihedral = ("
		7 4 6 10
	")
}

ee = optimize('scf')
oeprop('DIPOLE', 'QUADRUPOLE', 'MULLIKEN_CHARGES')
f=open( 'psi4out.xyz', 'w' )
f.write( "14  " )
f.write( str(ee) + "\n" )
f.write( MOL.save_string_xyz() )
f.close()
--------------------------------------------------------------------------

    Molecular point group: c1
  Charge       = 0
  Multiplicity = 1
  Basis Set: CC-PVTZ
  Basis Set:
  @DF-RHF Final Energy:  -305.99870522576094
    Total Energy =                       -305.9987052257608866
    Molecular point group: c1
  Basis Set: CC-PVTZ
  Basis Set:
  Basis Set: CC-PVTZ
  Basis Set:
  @DF-RHF Final Energy:  -305.99985075079326
    Total Energy =                       -305.9998507507931436
  Basis Set: CC-PVTZ
  Basis Set:
  Basis Set: CC-PVTZ
  Basis Set:
  @DF-RHF Final Energy:  -305.99815982656082
    Total Energy =                       -305.9981598265610501
  Basis Set: CC-PVTZ
  Basis Set:
  Basis Set: CC-PVTZ
  Basis Set:
  @DF-RHF Final Energy:  -306.00014491278284
    Total Energy =                       -306.0001449127826731
  Basis Set: CC-PVTZ
  Basis Set:
  @DF-RHF Final Energy:  -306.00022686822820
    Total Energy =                       -306.0002268682278554
  Basis Set: CC-PVTZ
  Basis Set:
  @DF-RHF Final Energy:  -306.00026446516461
    Total Energy =                       -306.0002644651641504
  Basis Set: CC-PVTZ
  Basis Set:
  Basis Set: CC-PVTZ
  Basis Set:
  @DF-RHF Final Energy:  -306.00027001781314
    Total Energy =                       -306.0002700178130226
  Basis Set: CC-PVTZ
  Basis Set:
  Basis Set: CC-PVTZ
  Basis Set:
  @DF-RHF Final Energy:  -306.00027565154465
    Total Energy =                       -306.0002756515449960
  Basis Set: CC-PVTZ
  Basis Set:
  Charge       = 0
  Multiplicity = 1
  Basis Set: CC-PVTZ
  Basis Set:

    Orbital Energies (a.u.)
    -----------------------

    Doubly Occupied:

       1A    -20.605338     2A    -20.541132     3A    -11.374795
       4A    -11.240077     5A    -11.224973     6A    -11.208847
       7A     -1.478848     8A     -1.370061     9A     -1.082804
      10A     -0.977444    11A     -0.863567    12A     -0.788973
      13A     -0.706308    14A     -0.694392    15A     -0.662556
      16A     -0.614824    17A     -0.596649    18A     -0.568516
      19A     -0.558089    20A     -0.498411    21A     -0.491173
      22A     -0.486254    23A     -0.481538    24A     -0.445690

  @DF-RHF Final Energy:  -306.00027574338287

   => Energetics <=

    Nuclear Repulsion Energy =            245.0222958057314884
    One-Electron Energy =                -902.9226253289750730
    Two-Electron Energy =                 351.9000537798609685
    DFT Exchange-Correlation Energy =       0.0000000000000000
    Empirical Dispersion Energy =           0.0000000000000000
    PCM Polarization Energy =               0.0000000000000000
    EFP Energy =                            0.0000000000000000
    Total Energy =                       -306.0002757433826446
    Molecular point group: c1
  Basis Set: CC-PVTZ
  Basis Set:

  -Total Gradient:
     Atom            X                  Y                   Z
    ------   -----------------  -----------------  -----------------
       1        0.000002366099    -0.000002543847    -0.000000616352
       2        0.000007617108    -0.000020468513    -0.000006478546
       3       -0.000010029292     0.000026706987    -0.000020170094
       4       -0.000698204520    -0.000804154846    -0.000633932930
       5        0.000007406932    -0.000010687407     0.000021432740
       6       -0.000620752071    -0.000733002685    -0.000583500403
       7        0.000661577251     0.000780289512     0.000615361152
       8        0.000009843409    -0.000001167494    -0.000003053971
       9        0.000004055167    -0.000002093227    -0.000001215482
      10        0.000652163604     0.000759726371     0.000613200624
      11       -0.000007951239     0.000007346224     0.000001950272
      12       -0.000001339822     0.000000995809    -0.000002068135
      13       -0.000006876208    -0.000002693434    -0.000000870239
      14        0.000000123579     0.000001746548    -0.000000038633

  **** Optimization is complete! (in 9 steps) ****
    Final optimized geometry and variables:
    Molecular point group: c1

    Geometry (in Angstrom), charge = 0, multiplicity = 1:

    H            1.497768893091    -1.960061610790    -1.120655383749
    O            1.440695008057    -1.487675832857    -0.303605521242
    C            0.606785510624    -0.465357829680    -0.466731150421
    C            0.502133743856     0.376638943483     0.777230715046
    O            0.058031665709    -0.259769692322    -1.494106777401
    C           -0.662218585161     1.360757542627     0.781168451395
    H            0.471918864404    -0.280964055269     1.637777268898
    H            1.446448684075     0.909153074532     0.847740545612
    C           -2.034832258020     0.698137319296     0.842551885783
    H           -0.594143051901     1.996733483007    -0.092589462080
    H           -0.539912703897     2.007358351033     1.643963626903
    H           -2.212718164584     0.078544157416    -0.026308461369
    H           -2.817485860778     1.446399295844     0.882311436229
    H           -2.128145818400     0.077518059096     1.728334169336

  Mulliken Charges: (a.u.)
   Center  Symbol    Alpha    Beta     Spin     Total
       1     H     0.38189  0.38189  0.00000  0.23621
       2     O     4.15950  4.15950  0.00000 -0.31901
       3     C     2.80467  2.80467  0.00000  0.39065
       4     C     3.11168  3.11168  0.00000 -0.22336
       5     O     4.19345  4.19345  0.00000 -0.38689
       6     C     3.08347  3.08347  0.00000 -0.16694
       7     H     0.43631  0.43631  0.00000  0.12739
       8     H     0.43397  0.43397  0.00000  0.13205
       9     C     3.15323  3.15323  0.00000 -0.30647
      10     H     0.44608  0.44608  0.00000  0.10783
      11     H     0.44756  0.44756  0.00000  0.10489
      12     H     0.44329  0.44329  0.00000  0.11342
      13     H     0.44756  0.44756  0.00000  0.10488
      14     H     0.45733  0.45733  0.00000  0.08535

   Total alpha = 24.00000, Total beta = 24.00000, Total charge =  0.00000
