  ==> Input File <==

--------------------------------------------------------------------------
set {
	reference rhf
	basis cc-pvtz
}

set_num_threads( 4 )
memory 2 gb

molecule MOL {
0 1

O	 -2.440701	 -0.934798	 -0.415053
C	 -1.922978	 0.063265	 -0.045005
C	 -2.632749	 1.372204	 0.158357
O	 -0.637375	 0.157174	 0.243149
H	 -2.187724	 2.129143	 -0.474664
H	 -3.677681	 1.257276	 -0.079438
H	 -2.516788	 1.693160	 1.185542
C	 0.162530	 -1.009518	 0.097799
C	 1.587210	 -0.664190	 0.477086
H	 0.096803	 -1.356267	 -0.924704
H	 -0.233803	 -1.785900	 0.736810
C	 2.256770	 0.342732	 -0.454344
H	 2.154716	 -1.590834	 0.479041
H	 1.598751	 -0.289614	 1.496104
C	 3.385985	 -0.273930	 -1.273011
H	 1.509885	 0.758745	 -1.125311
H	 2.642466	 1.170902	 0.128937
H	 3.840483	 0.460500	 -1.927557
H	 3.024148	 -1.088850	 -1.891374
H	 4.164620	 -0.669455	 -0.629346

	symmetry c1
}
set optking {
	frozen_dihedral = ("
		16 12 9 8
	")
}

ee = optimize('scf')
oeprop('DIPOLE', 'QUADRUPOLE', 'MULLIKEN_CHARGES')
f=open( 'psi4out.xyz', 'w' )
f.write( "20  " )
f.write( str(ee) + "\n" )
f.write( MOL.save_string_xyz() )
f.close()
--------------------------------------------------------------------------

    Molecular point group: c1
  Charge       = 0
  Multiplicity = 1
  Basis Set: CC-PVTZ
  Basis Set:
  @DF-RHF Final Energy:  -384.08220138894313
    Total Energy =                       -384.0822013889431901
    Molecular point group: c1
  Basis Set: CC-PVTZ
  Basis Set:
  Basis Set: CC-PVTZ
  Basis Set:
  @DF-RHF Final Energy:  -384.08241716913318
    Total Energy =                       -384.0824171691330093
  Basis Set: CC-PVTZ
  Basis Set:
  Basis Set: CC-PVTZ
  Basis Set:
  @DF-RHF Final Energy:  -384.08231706910033
    Total Energy =                       -384.0823170690996449
  Basis Set: CC-PVTZ
  Basis Set:
  Basis Set: CC-PVTZ
  Basis Set:
  @DF-RHF Final Energy:  -384.08248495889467
    Total Energy =                       -384.0824849588954066
  Basis Set: CC-PVTZ
  Basis Set:
  Basis Set: CC-PVTZ
  Basis Set:
  @DF-RHF Final Energy:  -384.08248601657380
    Total Energy =                       -384.0824860165732844
  Basis Set: CC-PVTZ
  Basis Set:
  Charge       = 0
  Multiplicity = 1
  Basis Set: CC-PVTZ
  Basis Set:

    Orbital Energies (a.u.)
    -----------------------

    Doubly Occupied:

       1A    -20.594395     2A    -20.532749     3A    -11.366728
       4A    -11.280438     5A    -11.231648     6A    -11.223176
       7A    -11.219186     8A    -11.212088     9A     -1.471152
      10A     -1.365321    11A     -1.085294    12A     -1.028582
      13A     -0.981657    14A     -0.882822    15A     -0.813105
      16A     -0.774407    17A     -0.692694    18A     -0.690507
      19A     -0.669366    20A     -0.626292    21A     -0.606561
      22A     -0.588229    23A     -0.574231    24A     -0.560382
      25A     -0.543111    26A     -0.530147    27A     -0.514262
      28A     -0.485006    29A     -0.476098    30A     -0.468919
      31A     -0.451338    32A     -0.441890

  @DF-RHF Final Energy:  -384.08248641103273

   => Energetics <=

    Nuclear Repulsion Energy =            386.6867281283258535
    One-Electron Energy =               -1289.5748639203470702
    Two-Electron Energy =                 518.8056493809890526
    DFT Exchange-Correlation Energy =       0.0000000000000000
    Empirical Dispersion Energy =           0.0000000000000000
    PCM Polarization Energy =               0.0000000000000000
    EFP Energy =                            0.0000000000000000
    Total Energy =                       -384.0824864110321641
    Molecular point group: c1
  Basis Set: CC-PVTZ
  Basis Set:

  -Total Gradient:
     Atom            X                  Y                   Z
    ------   -----------------  -----------------  -----------------
       1       -0.000007783017    -0.000000879719     0.000001172233
       2       -0.000007398625     0.000004329161     0.000016724900
       3        0.000003311776    -0.000002168231    -0.000007684821
       4        0.000006282891    -0.000020727174     0.000031435279
       5       -0.000000009082     0.000000416064    -0.000000076197
       6        0.000000911017    -0.000000787665    -0.000001484763
       7        0.000002428459    -0.000002016255    -0.000002105042
       8       -0.000337957234     0.000823596030     0.000433997726
       9        0.000533949961    -0.001363672642    -0.000896253743
      10       -0.000013044601    -0.000011440296     0.000013762140
      11       -0.000001382818     0.000000299812     0.000023008782
      12       -0.000478599767     0.001635157945     0.001248215798
      13        0.000012717414     0.000027058924     0.000002234612
      14        0.000005711569    -0.000007075871    -0.000025758335
      15        0.000020864926    -0.000030125399     0.000013310352
      16        0.000278799519    -0.001041758649    -0.000860510654
      17       -0.000005738030    -0.000006329506     0.000012494515
      18       -0.000022818770     0.000014806732     0.000009132915
      19        0.000003272371    -0.000008270321    -0.000004608585
      20        0.000006482039    -0.000010412937    -0.000007007112

  **** Optimization is complete! (in 6 steps) ****
    Final optimized geometry and variables:
    Molecular point group: c1

    Geometry (in Angstrom), charge = 0, multiplicity = 1:

    O           -2.396593132168    -0.806392110181    -0.285278421560
    C           -1.881191084455     0.183828764765     0.108226811207
    C           -2.589013253762     1.492017623136     0.320719658761
    O           -0.599471760174     0.268305549172     0.416303430962
    H           -2.131120813316     2.256667819516    -0.293498237230
    H           -3.630626221009     1.385031251700     0.065263126362
    H           -2.487361612739     1.796389513737     1.354379592913
    C            0.198491003669    -0.898728523134     0.265406784345
    C            1.621831783677    -0.549352021009     0.646583810654
    H            0.131315810164    -1.241309510028    -0.758619632235
    H           -0.197585054727    -1.677440809688     0.901961456396
    C            2.298614610921     0.461803924706    -0.300255352305
    H            2.187489852146    -1.475135505438     0.668327334005
    H            1.614540419666    -0.171519706572     1.662387559316
    C            3.430028797545    -0.150330321395    -1.122413499815
    H            1.559380446406     0.874363611148    -0.976997715518
    H            2.685740732581     1.297440760877     0.270268679884
    H            3.868863077487     0.581492083351    -1.790857831878
    H            3.071843274427    -0.977187494648    -1.727400158469
    H            4.218954124828    -0.529599526690    -0.481509767609

  Mulliken Charges: (a.u.)
   Center  Symbol    Alpha    Beta     Spin     Total
       1     O     4.19717  4.19717  0.00000 -0.39434
       2     C     2.80888  2.80888  0.00000  0.38225
       3     C     3.13804  3.13804  0.00000 -0.27608
       4     O     4.15344  4.15344  0.00000 -0.30688
       5     H     0.44609  0.44609  0.00000  0.10782
       6     H     0.43804  0.43804  0.00000  0.12393
       7     H     0.44568  0.44568  0.00000  0.10863
       8     C     2.99370  2.99370  0.00000  0.01259
       9     C     3.09072  3.09072  0.00000 -0.18144
      10     H     0.45092  0.45092  0.00000  0.09815
      11     H     0.44450  0.44450  0.00000  0.11101
      12     C     3.08937  3.08937  0.00000 -0.17875
      13     H     0.45132  0.45132  0.00000  0.09735
      14     H     0.44703  0.44703  0.00000  0.10594
      15     C     3.14762  3.14762  0.00000 -0.29524
      16     H     0.45092  0.45092  0.00000  0.09817
      17     H     0.44824  0.44824  0.00000  0.10353
      18     H     0.44848  0.44848  0.00000  0.10304
      19     H     0.45512  0.45512  0.00000  0.08976
      20     H     0.45472  0.45472  0.00000  0.09055

   Total alpha = 32.00000, Total beta = 32.00000, Total charge = -0.00000
