  ==> Input File <==

--------------------------------------------------------------------------
set {
	reference rhf
	basis 6-31G*
}

set_num_threads( 4 )
memory 2 gb

molecule MOL {
0 1

H	 -1.836216	 1.387520	 -0.000064
C	 -1.301823	 0.443321	 -0.000031
O	 -0.003969	 0.658512	 0.000451
O	 -1.829879	 -0.616434	 -0.000857
C	 0.850537	 -0.484732	 0.000380
C	 0.044652	 -1.653828	 -0.523151
H	 1.201273	 -0.657818	 1.008519
H	 1.710090	 -0.278003	 -0.622297
H	 -0.816363	 -1.841197	 0.108179
H	 0.660047	 -2.547287	 -0.539071
H	 -0.305165	 -1.459695	 -1.530538

	symmetry c1
}
set optking {
	frozen_dihedral = ("
		7 5 3 2
	")
}

ee = optimize('scf')
oeprop('DIPOLE', 'QUADRUPOLE', 'MULLIKEN_CHARGES')
f=open( 'psi4out.xyz', 'w' )
f.write( "11  " )
f.write( str(ee) + "\n" )
f.write( MOL.save_string_xyz() )
f.close()
--------------------------------------------------------------------------

    Molecular point group: c1
  Charge       = 0
  Multiplicity = 1
  Basis Set: 6-31G*
  Basis Set:
  @DF-RHF Final Energy:  -266.76612546784952
    Total Energy =                       -266.7661254678493492
    Molecular point group: c1
  Basis Set: 6-31G*
  Basis Set:
  Basis Set: 6-31G*
  Basis Set:
  @DF-RHF Final Energy:  -266.80509910356716
    Total Energy =                       -266.8050991035672155
  Basis Set: 6-31G*
  Basis Set:
  Basis Set: 6-31G*
  Basis Set:
  @DF-RHF Final Energy:  -266.80783286569317
    Total Energy =                       -266.8078328656933422
  Basis Set: 6-31G*
  Basis Set:
  Basis Set: 6-31G*
  Basis Set:
  @DF-RHF Final Energy:  -266.81304842151951
    Total Energy =                       -266.8130484215193974
  Basis Set: 6-31G*
  Basis Set:
  @DF-RHF Final Energy:  -266.81796127261146
    Total Energy =                       -266.8179612726116829
  @DF-RHF Final Energy:  -266.81923003646637
    Total Energy =                       -266.8192300364663652
  @DF-RHF Final Energy:  -266.81951262272725
    Total Energy =                       -266.8195126227270180
  Basis Set: 6-31G*
  Basis Set:
  @DF-RHF Final Energy:  -266.81956796251660
    Total Energy =                       -266.8195679625166576
  Basis Set: 6-31G*
  Basis Set:
  Basis Set: 6-31G*
  Basis Set:
  @DF-RHF Final Energy:  -266.81957534972292
    Total Energy =                       -266.8195753497228679
  Basis Set: 6-31G*
  Basis Set:
  Basis Set: 6-31G*
  Basis Set:
  @DF-RHF Final Energy:  -266.81957697343887
    Total Energy =                       -266.8195769734389842
  Basis Set: 6-31G*
  Basis Set:
  Charge       = 0
  Multiplicity = 1
  Basis Set: 6-31G*
  Basis Set:

    Orbital Energies (a.u.)
    -----------------------

    Doubly Occupied:

       1A    -20.610437     2A    -20.553484     3A    -11.378880
       4A    -11.297019     5A    -11.221567     6A     -1.469509
       7A     -1.373253     8A     -1.049663     9A     -0.918978
      10A     -0.795901    11A     -0.723031    12A     -0.683285
      13A     -0.667886    14A     -0.615054    15A     -0.578703
      16A     -0.546335    17A     -0.528066    18A     -0.504131
      19A     -0.452620    20A     -0.444717

  @DF-RHF Final Energy:  -266.81957707600941

   => Energetics <=

    Nuclear Repulsion Energy =            182.3722598278821749
    One-Electron Energy =                -725.5586391309232113
    Two-Electron Energy =                 276.3668022270318261
    DFT Exchange-Correlation Energy =       0.0000000000000000
    Empirical Dispersion Energy =           0.0000000000000000
    PCM Polarization Energy =               0.0000000000000000
    EFP Energy =                            0.0000000000000000
    Total Energy =                       -266.8195770760091818
    Molecular point group: c1
  Basis Set: 6-31G*
  Basis Set:

  -Total Gradient:
     Atom            X                  Y                   Z
    ------   -----------------  -----------------  -----------------
       1        0.000014294883     0.000003012444    -0.000001095535
       2       -0.000164742960    -0.000132492210    -0.004637887022
       3        0.001078606483     0.000760672029     0.006830757077
       4        0.000003650346     0.000011014338    -0.000002105710
       5       -0.004840769816    -0.003329129586    -0.001175844926
       6       -0.000001979053     0.000000935854    -0.000000527244
       7        0.003912914156     0.002680983086    -0.001015179293
       8       -0.000000569260     0.000005752548    -0.000001587760
       9       -0.000005632040    -0.000003576705     0.000007562180
      10        0.000000719156    -0.000002132264    -0.000002429791
      11        0.000003508107     0.000004960465    -0.000001661978

  **** Optimization is complete! (in 11 steps) ****
    Final optimized geometry and variables:
    Molecular point group: c1

    Geometry (in Angstrom), charge = 0, multiplicity = 1:

    H           -1.199662077480     1.936962967146    -0.034408466869
    C           -0.847534393317     0.919374709472     0.103046755012
    O            0.466300772286     0.915493583273     0.066791752657
    O           -1.571890799171    -0.000804708510     0.275180443367
    C            1.279101932838    -0.264708779854     0.071985663489
    C            0.685031002992    -1.537098118490    -0.508483863306
    H            1.635541379419    -0.400889602825     1.085025924628
    H            2.134880489598     0.030970171943    -0.518858668712
    H           -0.091012641857    -1.957434375504     0.110434598407
    H            1.492656892064    -2.257563131190    -0.601204061528
    H            0.278964437673    -1.361853347551    -1.497987012316

  Mulliken Charges: (a.u.)
   Center  Symbol    Alpha    Beta     Spin     Total
       1     H     0.41353  0.41353  0.00000  0.17294
       2     C     2.72544  2.72544  0.00000  0.54912
       3     O     4.29988  4.29988  0.00000 -0.59976
       4     O     4.26310  4.26310  0.00000 -0.52621
       5     C     2.99551  2.99551  0.00000  0.00897
       6     C     3.25891  3.25891  0.00000 -0.51783
       7     H     0.41122  0.41122  0.00000  0.17757
       8     H     0.40910  0.40910  0.00000  0.18179
       9     H     0.39266  0.39266  0.00000  0.21468
      10     H     0.41862  0.41862  0.00000  0.16276
      11     H     0.41201  0.41201  0.00000  0.17597

   Total alpha = 20.00000, Total beta = 20.00000, Total charge = -0.00000
