  ==> Input File <==

--------------------------------------------------------------------------
set {
	reference rhf
	basis 6-31G*
}

set_num_threads( 4 )
memory 2 gb

molecule MOL {
0 1

H	 -0.048566	 3.059717	 -0.076883
C	 0.604089	 2.199704	 0.118371
C	 0.065331	 0.871482	 -0.349150
O	 1.651381	 2.355278	 0.657532
C	 -1.339775	 0.583656	 0.198860
H	 0.768463	 0.097568	 -0.063533
H	 0.026370	 0.904523	 -1.437061
C	 -1.808407	 -0.848507	 -0.061364
H	 -2.036183	 1.280685	 -0.256307
H	 -1.360094	 0.788874	 1.267089
H	 -1.828843	 -1.063152	 -1.125336
H	 -2.808409	 -1.004529	 0.329750
H	 -1.153967	 -1.577789	 0.406873

	symmetry c1
}
set optking {
	frozen_dihedral = ("
		6 3 5 9
	")
}

ee = optimize('scf')
oeprop('DIPOLE', 'QUADRUPOLE', 'MULLIKEN_CHARGES')
f=open( 'psi4out.xyz', 'w' )
f.write( "13  " )
f.write( str(ee) + "\n" )
f.write( MOL.save_string_xyz() )
f.close()
--------------------------------------------------------------------------

    Molecular point group: c1
  Charge       = 0
  Multiplicity = 1
  Basis Set: 6-31G*
  Basis Set:
  @DF-RHF Final Energy:  -230.98442446164958
    Total Energy =                       -230.9844244616494962
    Molecular point group: c1
  Basis Set: 6-31G*
  Basis Set:
  Basis Set: 6-31G*
  Basis Set:
  @DF-RHF Final Energy:  -230.98448774525963
    Total Energy =                       -230.9844877452595711
  Basis Set: 6-31G*
  Basis Set:
  Basis Set: 6-31G*
  Basis Set:
  @DF-RHF Final Energy:  -230.98442048949551
    Total Energy =                       -230.9844204894955055
  Basis Set: 6-31G*
  Basis Set:
  Basis Set: 6-31G*
  Basis Set:
  @DF-RHF Final Energy:  -230.98461136956601
    Total Energy =                       -230.9846113695660677
  Basis Set: 6-31G*
  Basis Set:
  Basis Set: 6-31G*
  Basis Set:
  @DF-RHF Final Energy:  -230.98461654297745
    Total Energy =                       -230.9846165429773350
  Basis Set: 6-31G*
  Basis Set:
  Charge       = 0
  Multiplicity = 1
  Basis Set: 6-31G*
  Basis Set:

    Orbital Energies (a.u.)
    -----------------------

    Doubly Occupied:

       1A    -20.562750     2A    -11.327056     3A    -11.239418
       4A    -11.235822     5A    -11.223853     6A     -1.402554
       7A     -1.087130     8A     -0.976306     9A     -0.839529
      10A     -0.794819    11A     -0.676902    12A     -0.640329
      13A     -0.634372    14A     -0.587117    15A     -0.555765
      16A     -0.533699    17A     -0.512361    18A     -0.492962
      19A     -0.483151    20A     -0.410598

  @DF-RHF Final Energy:  -230.98461704008955

   => Energetics <=

    Nuclear Repulsion Energy =            170.4153370709024387
    One-Electron Energy =                -650.3669243623469356
    Two-Electron Energy =                 248.9669702513548941
    DFT Exchange-Correlation Energy =       0.0000000000000000
    Empirical Dispersion Energy =           0.0000000000000000
    PCM Polarization Energy =               0.0000000000000000
    EFP Energy =                            0.0000000000000000
    Total Energy =                       -230.9846170400896312
    Molecular point group: c1
  Basis Set: 6-31G*
  Basis Set:

  -Total Gradient:
     Atom            X                  Y                   Z
    ------   -----------------  -----------------  -----------------
       1        0.000004914703    -0.000006508689    -0.000026638692
       2       -0.000006641890    -0.000036315731     0.000066925115
       3        0.000529994921     0.001173977056     0.001875847445
       4        0.000008609518     0.000013078430    -0.000012751113
       5        0.000357673957     0.001466724473     0.001584706906
       6       -0.000522402827    -0.001136045610    -0.001830990846
       7        0.000000161100     0.000006240151    -0.000024939746
       8       -0.000023714677    -0.000041855981    -0.000012852464
       9       -0.000325394112    -0.001431156142    -0.001604341282
      10       -0.000001858838     0.000023552815    -0.000015278645
      11        0.000016240216    -0.000009046086     0.000005485172
      12       -0.000017358242    -0.000011972373    -0.000017379083
      13       -0.000020223834    -0.000010672319     0.000012207232

  **** Optimization is complete! (in 6 steps) ****
    Final optimized geometry and variables:
    Molecular point group: c1

    Geometry (in Angstrom), charge = 0, multiplicity = 1:

    H            0.111365624189     2.029211264176    -0.200631749969
    C            0.766787155972     1.171753329576    -0.006473528680
    C            0.226516613159    -0.161947380191    -0.450398761189
    O            1.819669252768     1.332759253496     0.520540151158
    C           -1.179802154842    -0.436560171874     0.101723831702
    H            0.925639938397    -0.937964847690    -0.160953285161
    H            0.184310431971    -0.155782079773    -1.539326795025
    C           -1.639739879218    -1.866016694474    -0.183614413291
    H           -1.886165663305     0.255924484234    -0.348955603889
    H           -1.197243021378    -0.257938288867     1.173540057905
    H           -1.644011249381    -2.070040911928    -1.250401901062
    H           -2.644611390818    -2.032569413828     0.190222882776
    H           -0.984050056419    -2.589894883327     0.290113660445

  Mulliken Charges: (a.u.)
   Center  Symbol    Alpha    Beta     Spin     Total
       1     H     0.43193  0.43193  0.00000  0.13614
       2     C     2.82944  2.82944  0.00000  0.34113
       3     C     3.20820  3.20820  0.00000 -0.41640
       4     O     4.23745  4.23745  0.00000 -0.47490
       5     C     3.16443  3.16443  0.00000 -0.32886
       6     H     0.39946  0.39946  0.00000  0.20108
       7     H     0.40885  0.40885  0.00000  0.18231
       8     C     3.23961  3.23961  0.00000 -0.47922
       9     H     0.41757  0.41757  0.00000  0.16486
      10     H     0.41263  0.41263  0.00000  0.17475
      11     H     0.41918  0.41918  0.00000  0.16163
      12     H     0.41481  0.41481  0.00000  0.17038
      13     H     0.41645  0.41645  0.00000  0.16711

   Total alpha = 20.00000, Total beta = 20.00000, Total charge = -0.00000
