                              Psi4 1.0.54 Driver

  ==> Input File <==

--------------------------------------------------------------------------
set {
	reference rhf
	basis cc-pvtz
}

set_num_threads( 4 )
memory 2 gb

molecule MOL {
0 1

H	 3.188016	 0.416151	 -1.448320
O	 2.265809	 0.257246	 -1.314235
C	 2.076458	 -0.067370	 -0.038225
C	 0.626018	 -0.337582	 0.258241
O	 2.969457	 -0.124446	 0.734522
C	 -0.267326	 0.883135	 0.076490
H	 0.325620	 -1.161483	 -0.378003
H	 0.574537	 -0.713685	 1.275261
C	 -1.726822	 0.642622	 0.463839
H	 -0.210803	 1.217591	 -0.953497
H	 0.129920	 1.693110	 0.675679
C	 -2.480891	 -0.340606	 -0.429852
H	 -2.243098	 1.597649	 0.438609
H	 -1.776542	 0.301208	 1.495542
C	 -3.955933	 -0.460128	 -0.060472
H	 -2.393755	 -0.020485	 -1.464726
H	 -2.024244	 -1.323637	 -0.374360
H	 -4.467673	 -1.160944	 -0.709827
H	 -4.458917	 0.497287	 -0.144505
H	 -4.076458	 -0.806900	 0.960497

	symmetry c1
}
set optking {
	frozen_dihedral = ("
		5 3 4 7
	")
}

ee,wfn = optimize('scf', return_wfn=True)
oeprop( wfn, 'DIPOLE', 'QUADRUPOLE', 'MULLIKEN_CHARGES')
f=open( 'psi4out.xyz', 'w' )
f.write( "20  " )
f.write( str(ee) + "\n" )
f.write( MOL.save_string_xyz() )
f.close()
--------------------------------------------------------------------------

    Molecular point group: c1
  Charge       = 0
  Multiplicity = 1
  Basis Set: CC-PVTZ
  Basis Set:
  @DF-RHF Final Energy:  -384.09338003769579
    Total Energy =                       -384.0933800376953968
    Molecular point group: c1
  Basis Set: CC-PVTZ
  Basis Set:
  Basis Set: CC-PVTZ
  Basis Set:
  @DF-RHF Final Energy:  -384.09361499254231
    Total Energy =                       -384.0936149925424274
  Basis Set: CC-PVTZ
  Basis Set:
  Basis Set: CC-PVTZ
  Basis Set:
  @DF-RHF Final Energy:  -384.09285760391225
    Total Energy =                       -384.0928576039118525
  Basis Set: CC-PVTZ
  Basis Set:
  Basis Set: CC-PVTZ
  Basis Set:
  @DF-RHF Final Energy:  -384.09368728436186
    Total Energy =                       -384.0936872843622609
  Basis Set: CC-PVTZ
  Basis Set:
  Basis Set: CC-PVTZ
  Basis Set:
  @DF-RHF Final Energy:  -384.09372404868253
    Total Energy =                       -384.0937240486826454
  Basis Set: CC-PVTZ
  Basis Set:
  Basis Set: CC-PVTZ
  Basis Set:
  @DF-RHF Final Energy:  -384.09372580931438
    Total Energy =                       -384.0937258093146056
  Basis Set: CC-PVTZ
  Basis Set:
  Charge       = 0
  Multiplicity = 1
  Basis Set: CC-PVTZ
  Basis Set:

    Orbital Energies (a.u.)
    -----------------------

    Doubly Occupied:

       1A    -20.604143     2A    -20.538722     3A    -11.372049
       4A    -11.237201     5A    -11.230129     6A    -11.222126
       7A    -11.220528     8A    -11.212171     9A     -1.476805
      10A     -1.367434    11A     -1.100811    12A     -1.043674
      13A     -0.962126    14A     -0.865406    15A     -0.824917
      16A     -0.792042    17A     -0.704062    18A     -0.688022
      19A     -0.655737    20A     -0.632384    21A     -0.617534
      22A     -0.594810    23A     -0.577175    24A     -0.553760
      25A     -0.551361    26A     -0.516870    27A     -0.503563
      28A     -0.483524    29A     -0.479300    30A     -0.470128
      31A     -0.461760    32A     -0.437477

  @DF-RHF Final Energy:  -384.09372564377696

   => Energetics <=

    Nuclear Repulsion Energy =            377.4056053035417904
    One-Electron Energy =               -1271.0031560635597998
    Two-Electron Energy =                 509.5038251162405913
    DFT Exchange-Correlation Energy =       0.0000000000000000
    Empirical Dispersion Energy =           0.0000000000000000
    PCM Polarization Energy =               0.0000000000000000
    EFP Energy =                            0.0000000000000000
    Total Energy =                       -384.0937256437774749
    Molecular point group: c1
  Basis Set: CC-PVTZ
  Basis Set:

  -Total Gradient:
     Atom            X                  Y                   Z
    ------   -----------------  -----------------  -----------------
       1        0.000025363257     0.000027432959    -0.000057845101
       2        0.000002854707    -0.000039342201     0.000133973302
       3       -0.000099411014     0.000560230847     0.000013520774
       4       -0.000058165171     0.000137159724    -0.000274640949
       5        0.000067066167    -0.000408225107    -0.000051528257
       6       -0.000021831046    -0.000005920542    -0.000063660629
       7        0.000141003114    -0.000229306671     0.000264253160
       8       -0.000039137141    -0.000017286855     0.000019242828
       9        0.000007431804    -0.000020630403     0.000018744414
      10        0.000000107577    -0.000004682988    -0.000013180089
      11       -0.000003188040    -0.000010677236     0.000001292249
      12        0.000000531289    -0.000008907328     0.000010624703
      13        0.000000458976     0.000004231182     0.000014293089
      14        0.000007916085    -0.000015274226    -0.000006787743
      15       -0.000003997228     0.000017623016    -0.000007698763
      16        0.000006142350    -0.000004550719    -0.000005107870
      17       -0.000031137253     0.000012897459     0.000007231686
      18        0.000000465264     0.000005731759    -0.000002615192
      19       -0.000006976605     0.000001500832     0.000003528572
      20        0.000004502916    -0.000002003499    -0.000003640183

  **** Optimization is complete! (in 7 steps) ****
    Final optimized geometry and variables:
    Molecular point group: c1

    Geometry (in Angstrom), charge = 0, multiplicity = 1:

    H            3.228937377788     0.545350442770    -1.319528568858
    O            2.309464399913     0.349384252383    -1.219962134948
    C            2.099828979902    -0.061062333355     0.027866178580
    C            0.657916542857    -0.399003429585     0.289815780496
    O            2.977574606589    -0.144511166299     0.816432758187
    C           -0.270983377790     0.809895100609     0.126018667615
    H            0.380368592911    -1.188503479836    -0.398097945759
    H            0.603091377161    -0.790461716861     1.295444475170
    C           -1.722186661748     0.525007485658     0.514175998923
    H           -0.227547300712     1.161395091797    -0.898163203703
    H            0.101265877304     1.617528143082     0.748404025236
    C           -2.450032712062    -0.465422391633    -0.392792145909
    H           -2.263283545078     1.466632732980     0.503784475126
    H           -1.757569694043     0.167847504432     1.540465299170
    C           -3.919991380761    -0.631630237525    -0.020809701544
    H           -2.374742614022    -0.128299297623    -1.423173560083
    H           -1.965448082328    -1.435471117276    -0.352092123806
    H           -4.412683401841    -1.339529417569    -0.677046551849
    H           -4.451029181402     0.311543453428    -0.092538250535
    H           -4.027388858815    -0.993631357387     0.996259432712

  Mulliken Charges: (a.u.)
   Center  Symbol    Alpha    Beta     Spin     Total
       1     H     0.38070  0.38070  0.00000  0.23861
       2     O     4.16356  4.16356  0.00000 -0.32711
       3     C     2.80887  2.80887  0.00000  0.38227
       4     C     3.08780  3.08780  0.00000 -0.17559
       5     O     4.19400  4.19400  0.00000 -0.38800
       6     C     3.10893  3.10893  0.00000 -0.21786
       7     H     0.44404  0.44404  0.00000  0.11193
       8     H     0.43619  0.43619  0.00000  0.12762
       9     C     3.09709  3.09709  0.00000 -0.19417
      10     H     0.44170  0.44170  0.00000  0.11661
      11     H     0.44164  0.44164  0.00000  0.11672
      12     C     3.08750  3.08750  0.00000 -0.17501
      13     H     0.44610  0.44610  0.00000  0.10780
      14     H     0.45126  0.45126  0.00000  0.09748
      15     C     3.14961  3.14961  0.00000 -0.29922
      16     H     0.45214  0.45214  0.00000  0.09571
      17     H     0.45347  0.45347  0.00000  0.09306
      18     H     0.44740  0.44740  0.00000  0.10521
      19     H     0.45379  0.45379  0.00000  0.09242
      20     H     0.45423  0.45423  0.00000  0.09154

   Total alpha = 32.00000, Total beta = 32.00000, Total charge = -0.00000

*** Psi4 exiting successfully. Buy a developer a beer!
