  ==> Input File <==

--------------------------------------------------------------------------
set {
	reference rhf
	basis cc-pvtz
}

set_num_threads( 4 )
memory 2 gb

molecule MOL {
0 1

H	 2.005000	 1.251000	 -0.256000
C	 1.163000	 0.736000	 0.188000
H	 1.224000	 0.838000	 1.270000
O	 -0.000000	 1.356000	 -0.290000
C	 1.163000	 -0.735000	 -0.188000
C	 -1.163000	 0.735000	 0.188000
H	 2.005000	 -1.251000	 0.256000
H	 1.224000	 -0.838000	 -1.270000
O	 0.000000	 -1.356000	 0.290000
H	 -1.224000	 0.838000	 1.270000
H	 -2.005000	 1.251000	 -0.256000
C	 -1.163000	 -0.736000	 -0.188000
H	 -2.005000	 -1.251000	 0.256000
H	 -1.224000	 -0.838000	 -1.270000

	symmetry c1
}
ee = optimize('scf')
oeprop('DIPOLE', 'QUADRUPOLE', 'MULLIKEN_CHARGES')
f=open( 'psi4out.xyz', 'w' )
f.write( "14  " )
f.write( str(ee) + "\n" )
f.write( MOL.save_string_xyz() )
f.close()
--------------------------------------------------------------------------

    Molecular point group: c1
  Charge       = 0
  Multiplicity = 1
  Basis Set: CC-PVTZ
  Basis Set:
  @DF-RHF Final Energy:  -305.93940971075932
    Total Energy =                       -305.9394097107590369
    Molecular point group: c1
  Basis Set: CC-PVTZ
  Basis Set:
  Basis Set: CC-PVTZ
  Basis Set:
  @DF-RHF Final Energy:  -305.93948277557422
    Total Energy =                       -305.9394827755741630
  Basis Set: CC-PVTZ
  Basis Set:
  Basis Set: CC-PVTZ
  Basis Set:
  @DF-RHF Final Energy:  -305.93948761683623
    Total Energy =                       -305.9394876168360611
  Basis Set: CC-PVTZ
  Basis Set:
  Charge       = 0
  Multiplicity = 1
  Basis Set: CC-PVTZ
  Basis Set:

    Orbital Energies (a.u.)
    -----------------------

    Doubly Occupied:

       1A    -20.555006     2A    -20.555003     3A    -11.270663
       4A    -11.270640     5A    -11.270000     6A    -11.269985
       7A     -1.411248     8A     -1.367331     9A     -1.052626
      10A     -0.948888    11A     -0.900761    12A     -0.796786
      13A     -0.704605    14A     -0.658959    15A     -0.652466
      16A     -0.651447    17A     -0.639673    18A     -0.556342
      19A     -0.553387    20A     -0.522118    21A     -0.512652
      22A     -0.456858    23A     -0.451798    24A     -0.390465

  @DF-RHF Final Energy:  -305.93948826134414

   => Energetics <=

    Nuclear Repulsion Energy =            267.1130783078493209
    One-Electron Energy =                -947.2657088227402937
    Two-Electron Energy =                 374.2131422535470620
    DFT Exchange-Correlation Energy =       0.0000000000000000
    Empirical Dispersion Energy =           0.0000000000000000
    PCM Polarization Energy =               0.0000000000000000
    EFP Energy =                            0.0000000000000000
    Total Energy =                       -305.9394882613438540
    Molecular point group: c1
  Basis Set: CC-PVTZ
  Basis Set:

  -Total Gradient:
     Atom            X                  Y                   Z
    ------   -----------------  -----------------  -----------------
       1        0.000007884123     0.000002788597     0.000005341621
       2       -0.000003578830    -0.000020942719    -0.000013084134
       3        0.000013633345     0.000001523512     0.000011003595
       4       -0.000000049717     0.000023636288    -0.000015044594
       5        0.000004983723     0.000024421468     0.000010693060
       6       -0.000004985264    -0.000024421449    -0.000010691915
       7        0.000003444885    -0.000002087077    -0.000003647430
       8        0.000008669514    -0.000003256728    -0.000008614508
       9        0.000000050597    -0.000023636734     0.000015044262
      10       -0.000008669278     0.000003256603     0.000008613299
      11       -0.000003443760     0.000002086696     0.000003647768
      12        0.000003577340     0.000020943452     0.000013084704
      13       -0.000007883545    -0.000002788223    -0.000005341807
      14       -0.000013633134    -0.000001523683    -0.000011003922

  **** Optimization is complete! (in 4 steps) ****
    Final optimized geometry and variables:
    Molecular point group: c1

    Geometry (in Angstrom), charge = 0, multiplicity = 1:

    H            2.004429883590     1.244127241408    -0.259267052972
    C            1.161519258602     0.734288107368     0.186920411761
    H            1.228560956441     0.837060732394     1.268595736554
    O           -0.000078245597     1.357902129788    -0.281072578326
    C            1.161603307861    -0.734147719802    -0.186933611071
    C           -1.161603307914     0.734147722215     0.186933609064
    H            2.004558033361    -1.243893540893     0.259264765206
    H            1.228615479433    -0.836934782880    -1.268604440314
    O            0.000078247519    -1.357902130755     0.281072576423
    H           -1.228615483150     0.836934789601     1.268604438973
    H           -2.004558033330     1.243893544463    -0.259264771294
    C           -1.161519259876    -0.734288108776    -0.186920407733
    H           -2.004429885195    -1.244127242723     0.259267064228
    H           -1.228560965861    -0.837060737993    -1.268595734228

  Mulliken Charges: (a.u.)
   Center  Symbol    Alpha    Beta     Spin     Total
       1     H     0.45089  0.45089  0.00000  0.09822
       2     C     2.98727  2.98727  0.00000  0.02545
       3     H     0.46857  0.46857  0.00000  0.06285
       4     O     4.18652  4.18652  0.00000 -0.37305
       5     C     2.98728  2.98728  0.00000  0.02544
       6     C     2.98728  2.98728  0.00000  0.02544
       7     H     0.45089  0.45089  0.00000  0.09822
       8     H     0.46857  0.46857  0.00000  0.06286
       9     O     4.18652  4.18652  0.00000 -0.37305
      10     H     0.46857  0.46857  0.00000  0.06286
      11     H     0.45089  0.45089  0.00000  0.09822
      12     C     2.98727  2.98727  0.00000  0.02545
      13     H     0.45089  0.45089  0.00000  0.09822
      14     H     0.46857  0.46857  0.00000  0.06285

   Total alpha = 24.00000, Total beta = 24.00000, Total charge = -0.00000
