                              Psi4 1.0.54 Driver

  ==> Input File <==

--------------------------------------------------------------------------
set {
	reference rhf
	basis cc-pvtz
}

set_num_threads( 4 )
memory 2 gb

molecule MOL {
0 1

O	 -0.668008	 -0.091203	 0.056469
C	 0.485107	 0.171416	 -0.000134
C	 1.606966	 -0.836201	 0.000174
O	 0.947793	 1.407238	 -0.072600
C	 2.988788	 -0.202529	 -0.000115
H	 1.465110	 -1.474645	 -0.864821
H	 1.465209	 -1.474077	 0.865596
H	 3.131767	 0.419673	 -0.873407
H	 3.750876	 -0.972315	 0.000098
H	 3.131883	 0.420264	 0.872742
C	 0.003906	 2.468966	 -0.082561
C	 0.770895	 3.767804	 -0.167625
H	 -0.593236	 2.418873	 0.817027
H	 -0.659490	 2.343746	 -0.926687
H	 1.432308	 3.881682	 0.682044
H	 0.078471	 4.601285	 -0.177182
H	 1.365625	 3.806176	 -1.071614

	symmetry c1
}
set optking {
	frozen_dihedral = ("
		4 2 3 6
	")
}

ee,wfn = optimize('scf', return_wfn=True)
oeprop( wfn, 'DIPOLE', 'QUADRUPOLE', 'MULLIKEN_CHARGES')
f=open( 'psi4out.xyz', 'w' )
f.write( "17  " )
f.write( str(ee) + "\n" )
f.write( MOL.save_string_xyz() )
f.close()
--------------------------------------------------------------------------

    Molecular point group: c1
  Charge       = 0
  Multiplicity = 1
  Basis Set: CC-PVTZ
  Basis Set:
  @DF-RHF Final Energy:  -345.03660230032597
    Total Energy =                       -345.0366023003262512
    Molecular point group: c1
  Basis Set: CC-PVTZ
  Basis Set:
  Basis Set: CC-PVTZ
  Basis Set:
  @DF-RHF Final Energy:  -345.03737914696154
    Total Energy =                       -345.0373791469615981
  Basis Set: CC-PVTZ
  Basis Set:
  Basis Set: CC-PVTZ
  Basis Set:
  @DF-RHF Final Energy:  -345.03782584022252
    Total Energy =                       -345.0378258402225811
  Basis Set: CC-PVTZ
  Basis Set:
  Basis Set: CC-PVTZ
  Basis Set:
  @DF-RHF Final Energy:  -345.03789336236707
    Total Energy =                       -345.0378933623672992
  Basis Set: CC-PVTZ
  Basis Set:
  Basis Set: CC-PVTZ
  Basis Set:
  @DF-RHF Final Energy:  -345.03799884773105
    Total Energy =                       -345.0379988477306483
  Basis Set: CC-PVTZ
  Basis Set:
  Charge       = 0
  Multiplicity = 1
  Basis Set: CC-PVTZ
  Basis Set:

    Orbital Energies (a.u.)
    -----------------------

    Doubly Occupied:

       1A    -20.596564     2A    -20.527796     3A    -11.363899
       4A    -11.283535     5A    -11.236144     6A    -11.221293
       7A    -11.218481     8A     -1.471597     9A     -1.362954
      10A     -1.072777    11A     -1.031281    12A     -0.906137
      13A     -0.862105    14A     -0.780489    15A     -0.693171
      16A     -0.680562    17A     -0.674615    18A     -0.630766
      19A     -0.575557    20A     -0.573645    21A     -0.554752
      22A     -0.550997    23A     -0.523119    24A     -0.515417
      25A     -0.508134    26A     -0.491366    27A     -0.453421
      28A     -0.433884

  @DF-RHF Final Energy:  -345.03800687779290

   => Energetics <=

    Nuclear Repulsion Energy =            318.0716227099338766
    One-Electron Energy =               -1100.6303361098653113
    Two-Electron Energy =                 437.5207065221387666
    DFT Exchange-Correlation Energy =       0.0000000000000000
    Empirical Dispersion Energy =           0.0000000000000000
    PCM Polarization Energy =               0.0000000000000000
    EFP Energy =                            0.0000000000000000
    Total Energy =                       -345.0380068777926681
    Molecular point group: c1
  Basis Set: CC-PVTZ
  Basis Set:

  -Total Gradient:
     Atom            X                  Y                   Z
    ------   -----------------  -----------------  -----------------
       1       -0.000013876657    -0.000034948116    -0.000009528933
       2       -0.000082990690    -0.000114336507    -0.000117861664
       3        0.000069176032     0.000166377685    -0.000055651305
       4        0.000032183132     0.000122346367     0.000097217297
       5       -0.000002969159     0.000041404306     0.000012620467
       6       -0.000079131864    -0.000106145444     0.000080860998
       7       -0.000003522506    -0.000030847360     0.000006989951
       8        0.000008306337     0.000001221636     0.000004117209
       9        0.000048954868    -0.000028777172    -0.000005472672
      10       -0.000005906935    -0.000014974284    -0.000017019526
      11        0.000004261328    -0.000009701589     0.000017069878
      12        0.000017942649     0.000003216778    -0.000005842839
      13        0.000004057828     0.000000950865    -0.000010986608
      14       -0.000003068557    -0.000000031283     0.000002085201
      15        0.000003888096     0.000005854255     0.000001509179
      16       -0.000002001625    -0.000007969602     0.000000805666
      17        0.000004697722     0.000006359468    -0.000000912297

  **** Optimization is complete! (in 6 steps) ****
    Final optimized geometry and variables:
    Molecular point group: c1

    Geometry (in Angstrom), charge = 0, multiplicity = 1:

    O           -1.515788952482    -1.060958893104     0.101048712154
    C           -0.367697625833    -0.773792143206     0.038896199490
    C            0.735562950121    -1.808231711104     0.030210234054
    O            0.065003308580     0.469441101277    -0.034083735897
    C            2.167680362547    -1.291640448077     0.034271584196
    H            0.551111869931    -2.427297629571    -0.840494822998
    H            0.549848814697    -2.444461100288     0.887127385639
    H            2.373114024854    -0.684283136810    -0.836955026686
    H            2.856844467900    -2.127515509845     0.033081431116
    H            2.369552088744    -0.690936595368     0.911417405475
    C           -0.905437621057     1.508157908567    -0.038501867967
    C           -0.171525080965     2.825609627563    -0.128006381404
    H           -1.495479217724     1.441729197292     0.864376224890
    H           -1.570014173919     1.364828032869    -0.878499582858
    H            0.491625570373     2.956831265836     0.717809900773
    H           -0.885189771939     3.640971999397    -0.133376247319
    H            0.416509583894     2.879579705670    -1.035588583738

  Mulliken Charges: (a.u.)
   Center  Symbol    Alpha    Beta     Spin     Total
       1     O     4.20533  4.20533  0.00000 -0.41067
       2     C     2.81067  2.81067  0.00000  0.37866
       3     C     3.09106  3.09106  0.00000 -0.18212
       4     O     4.14597  4.14597  0.00000 -0.29195
       5     C     3.14035  3.14035  0.00000 -0.28071
       6     H     0.44015  0.44015  0.00000  0.11970
       7     H     0.43851  0.43851  0.00000  0.12298
       8     H     0.45006  0.45006  0.00000  0.09989
       9     H     0.44928  0.44928  0.00000  0.10145
      10     H     0.45070  0.45070  0.00000  0.09859
      11     C     2.98127  2.98127  0.00000  0.03747
      12     C     3.13342  3.13342  0.00000 -0.26684
      13     H     0.45331  0.45331  0.00000  0.09337
      14     H     0.45329  0.45329  0.00000  0.09341
      15     H     0.45138  0.45138  0.00000  0.09724
      16     H     0.45378  0.45378  0.00000  0.09244
      17     H     0.45146  0.45146  0.00000  0.09709

   Total alpha = 28.00000, Total beta = 28.00000, Total charge =  0.00000

*** Psi4 exiting successfully. Buy a developer a beer!
