  ==> Input File <==

--------------------------------------------------------------------------
set {
	reference rhf
	basis cc-pvtz
}

set_num_threads( 4 )
memory 2 gb

molecule MOL {
0 1

H	 3.019418	 -0.268345	 0.722490
N	 2.433987	 -0.362316	 -0.080024
C	 1.263552	 0.494993	 0.021953
H	 2.167917	 -1.323036	 -0.139685
C	 -0.016533	 -0.325589	 -0.026925
H	 1.280915	 1.180773	 -0.818522
H	 1.263064	 1.106893	 0.925038
C	 -1.280353	 0.525521	 0.047747
H	 -0.016686	 -0.912532	 -0.939714
H	 -0.014099	 -1.037598	 0.796369
C	 -2.560681	 -0.301323	 -0.007747
H	 -1.279957	 1.241025	 -0.770189
H	 -1.270445	 1.110526	 0.963468
H	 -2.617064	 -0.872870	 -0.928010
H	 -3.439525	 0.331102	 0.043462
H	 -2.609427	 -1.002736	 0.818585

	symmetry c1
}
set optking {
	frozen_dihedral = ("
		1 2 3 6
	")
}

ee = optimize('scf')
oeprop('DIPOLE', 'QUADRUPOLE', 'MULLIKEN_CHARGES')
f=open( 'psi4out.xyz', 'w' )
f.write( "16  " )
f.write( str(ee) + "\n" )
f.write( MOL.save_string_xyz() )
f.close()
--------------------------------------------------------------------------

    Molecular point group: c1
  Charge       = 0
  Multiplicity = 1
  Basis Set: CC-PVTZ
  Basis Set:
  @DF-RHF Final Energy:  -212.39575628712680
    Total Energy =                       -212.3957562871267442
    Molecular point group: c1
  Basis Set: CC-PVTZ
  Basis Set:
  Basis Set: CC-PVTZ
  Basis Set:
  @DF-RHF Final Energy:  -212.39642645517247
    Total Energy =                       -212.3964264551724455
  Basis Set: CC-PVTZ
  Basis Set:
  Basis Set: CC-PVTZ
  Basis Set:
  @DF-RHF Final Energy:  -212.39653723213462
    Total Energy =                       -212.3965372321347900
  Basis Set: CC-PVTZ
  Basis Set:
  Basis Set: CC-PVTZ
  Basis Set:
  @DF-RHF Final Energy:  -212.39654574018650
    Total Energy =                       -212.3965457401865251
  Basis Set: CC-PVTZ
  Basis Set:
  Basis Set: CC-PVTZ
  Basis Set:
  @DF-RHF Final Energy:  -212.39654753607749
    Total Energy =                       -212.3965475360776054
  Basis Set: CC-PVTZ
  Basis Set:
  Charge       = 0
  Multiplicity = 1
  Basis Set: CC-PVTZ
  Basis Set:

    Orbital Energies (a.u.)
    -----------------------

    Doubly Occupied:

       1A    -15.522875     2A    -11.237806     3A    -11.215902
       4A    -11.213657     5A    -11.208600     6A     -1.175021
       7A     -1.063475     8A     -0.961179     9A     -0.847568
      10A     -0.798121    11A     -0.667459    12A     -0.637250
      13A     -0.597442    14A     -0.585371    15A     -0.566849
      16A     -0.520707    17A     -0.511488    18A     -0.474529
      19A     -0.472682    20A     -0.465155    21A     -0.376371

  @DF-RHF Final Energy:  -212.39654776430271

   => Energetics <=

    Nuclear Repulsion Energy =            186.5044359507716933
    One-Electron Energy =                -655.5629491193666354
    Two-Electron Energy =                 256.6619654042922889
    DFT Exchange-Correlation Energy =       0.0000000000000000
    Empirical Dispersion Energy =           0.0000000000000000
    PCM Polarization Energy =               0.0000000000000000
    EFP Energy =                            0.0000000000000000
    Total Energy =                       -212.3965477643026247
    Molecular point group: c1
  Basis Set: CC-PVTZ
  Basis Set:

  -Total Gradient:
     Atom            X                  Y                   Z
    ------   -----------------  -----------------  -----------------
       1        0.000292137885     0.000477187757    -0.000263095228
       2       -0.000279509283    -0.000527439779     0.000404822513
       3       -0.000324252531    -0.000334109765    -0.000456952561
       4       -0.000015651283     0.000025689295    -0.000005825118
       5        0.000052911084    -0.000005003142     0.000000006600
       6        0.000287934194     0.000349880036     0.000317746199
       7        0.000008919351     0.000012130318     0.000012604876
       8       -0.000016680192     0.000008894523    -0.000021748837
       9       -0.000015606731     0.000002390531     0.000013681194
      10        0.000000000755    -0.000002487795    -0.000004425983
      11       -0.000001552089    -0.000000400113     0.000010044845
      12        0.000005306489     0.000002765442    -0.000005284849
      13        0.000004141227    -0.000008816306    -0.000001690938
      14       -0.000001110631     0.000003075637    -0.000003928656
      15        0.000002871462     0.000000451734     0.000004256778
      16        0.000000140292    -0.000004208373    -0.000000210835

  **** Optimization is complete! (in 6 steps) ****
    Final optimized geometry and variables:
    Molecular point group: c1

    Geometry (in Angstrom), charge = 0, multiplicity = 1:

    H            3.050556204769    -0.257798559337     0.722963719040
    N            2.470622637620    -0.330698364951    -0.082401117679
    C            1.267383812380     0.488365260324     0.029334821817
    H            2.254635757185    -1.293688367165    -0.218196304812
    C           -0.019867191864    -0.324996005815    -0.009280265880
    H            1.252441341068     1.213656392885    -0.778966703171
    H            1.297350841234     1.062281481926     0.950703240424
    C           -1.278978468533     0.535112464668     0.032930532030
    H           -0.027167744931    -0.927485535286    -0.915375492854
    H           -0.025626176861    -1.021623075186     0.825943575117
    C           -2.564586972047    -0.284105803993    -0.011534884358
    H           -1.266563576922     1.230623333316    -0.801301061006
    H           -1.270016719192     1.140943849312     0.934953524679
    H           -2.620908033459    -0.874317784421    -0.920083749698
    H           -3.438852283319     0.355674778971     0.021494843141
    H           -2.622837362538    -0.967330631956     0.829233927386

  Mulliken Charges: (a.u.)
   Center  Symbol    Alpha    Beta     Spin     Total
       1     H     0.42697  0.42697  0.00000  0.14605
       2     N     3.69808  3.69808  0.00000 -0.39617
       3     C     3.01600  3.01600  0.00000 -0.03200
       4     H     0.42783  0.42783  0.00000  0.14433
       5     C     3.08844  3.08844  0.00000 -0.17688
       6     H     0.46258  0.46258  0.00000  0.07484
       7     H     0.46303  0.46303  0.00000  0.07393
       8     C     3.08950  3.08950  0.00000 -0.17900
       9     H     0.45480  0.45480  0.00000  0.09039
      10     H     0.45731  0.45731  0.00000  0.08538
      11     C     3.14908  3.14908  0.00000 -0.29817
      12     H     0.45336  0.45336  0.00000  0.09327
      13     H     0.45489  0.45489  0.00000  0.09021
      14     H     0.45468  0.45468  0.00000  0.09065
      15     H     0.44819  0.44819  0.00000  0.10361
      16     H     0.45523  0.45523  0.00000  0.08954

   Total alpha = 21.00000, Total beta = 21.00000, Total charge = -0.00000
