  ==> Input File <==

--------------------------------------------------------------------------
set {
	reference rhf
	basis 6-31G*
}

set_num_threads( 4 )
memory 2 gb

molecule MOL {
0 1

O	 -2.439739	 -0.935931	 -0.423848
C	 -1.921153	 0.064240	 -0.045697
C	 -2.624470	 1.379923	 0.150949
O	 -0.632575	 0.154573	 0.251549
H	 -2.168117	 2.136577	 -0.476876
H	 -3.669540	 1.273223	 -0.098610
H	 -2.519365	 1.700893	 1.180846
C	 0.160891	 -1.019931	 0.106212
C	 1.589627	 -0.672828	 0.480843
H	 0.089836	 -1.367806	 -0.916050
H	 -0.238459	 -1.792301	 0.749618
C	 2.246377	 0.346236	 -0.452210
H	 2.163194	 -1.597435	 0.473358
H	 1.604769	 -0.303424	 1.502885
C	 1.737171	 0.238876	 -1.888937
H	 2.058417	 1.349827	 -0.075945
H	 3.322256	 0.206281	 -0.436260
H	 2.218161	 0.970486	 -2.530364
H	 0.665205	 0.407655	 -1.940694
H	 1.936746	 -0.745441	 -2.302904

	symmetry c1
}
set optking {
	frozen_dihedral = ("
		16 12 9 8
	")
}

ee = optimize('scf')
oeprop('DIPOLE', 'QUADRUPOLE', 'MULLIKEN_CHARGES')
f=open( 'psi4out.xyz', 'w' )
f.write( "20  " )
f.write( str(ee) + "\n" )
f.write( MOL.save_string_xyz() )
f.close()
--------------------------------------------------------------------------

    Molecular point group: c1
  Charge       = 0
  Multiplicity = 1
  Basis Set: 6-31G*
  Basis Set:
  @DF-RHF Final Energy:  -383.93896911055822
    Total Energy =                       -383.9389691105585598
    Molecular point group: c1
  Basis Set: 6-31G*
  Basis Set:
  Basis Set: 6-31G*
  Basis Set:
  @DF-RHF Final Energy:  -383.94050679594392
    Total Energy =                       -383.9405067959435200
  Basis Set: 6-31G*
  Basis Set:
  Basis Set: 6-31G*
  Basis Set:
  @DF-RHF Final Energy:  -383.94125319653176
    Total Energy =                       -383.9412531965319886
  Basis Set: 6-31G*
  Basis Set:
  Basis Set: 6-31G*
  Basis Set:
  @DF-RHF Final Energy:  -383.94038854125432
    Total Energy =                       -383.9403885412539239
  Basis Set: 6-31G*
  Basis Set:
  Basis Set: 6-31G*
  Basis Set:
  @DF-RHF Final Energy:  -383.94141262310120
    Total Energy =                       -383.9414126231014279
  Basis Set: 6-31G*
  Basis Set:
  Basis Set: 6-31G*
  Basis Set:
  @DF-RHF Final Energy:  -383.94144039749568
    Total Energy =                       -383.9414403974956258
  Basis Set: 6-31G*
  Basis Set:
  Charge       = 0
  Multiplicity = 1
  Basis Set: 6-31G*
  Basis Set:

    Orbital Energies (a.u.)
    -----------------------

    Doubly Occupied:

       1A    -20.601527     2A    -20.544000     3A    -11.374339
       4A    -11.281390     5A    -11.233338     6A    -11.226021
       7A    -11.221653     8A    -11.213142     9A     -1.467533
      10A     -1.361855    11A     -1.084599    12A     -1.026147
      13A     -0.979134    14A     -0.893255    15A     -0.804450
      16A     -0.768799    17A     -0.690380    18A     -0.687989
      19A     -0.663206    20A     -0.625835    21A     -0.615742
      22A     -0.578854    23A     -0.571599    24A     -0.561908
      25A     -0.537596    26A     -0.528693    27A     -0.521710
      28A     -0.478539    29A     -0.472389    30A     -0.469454
      31A     -0.450008    32A     -0.438016

  @DF-RHF Final Energy:  -383.94144084000953

   => Energetics <=

    Nuclear Repulsion Energy =            393.7500768811733565
    One-Electron Energy =               -1303.4368296766583626
    Two-Electron Energy =                 525.7453119554755858
    DFT Exchange-Correlation Energy =       0.0000000000000000
    Empirical Dispersion Energy =           0.0000000000000000
    PCM Polarization Energy =               0.0000000000000000
    EFP Energy =                            0.0000000000000000
    Total Energy =                       -383.9414408400094771
    Molecular point group: c1
  Basis Set: 6-31G*
  Basis Set:

  -Total Gradient:
     Atom            X                  Y                   Z
    ------   -----------------  -----------------  -----------------
       1        0.000016294188     0.000018717905     0.000032620587
       2       -0.000022233988    -0.000003779491     0.000074993508
       3        0.000010123949    -0.000008655047    -0.000036462848
       4       -0.000108244677    -0.000086942096     0.000135378335
       5        0.000002705242     0.000008558541    -0.000004020246
       6       -0.000001295021     0.000002161001    -0.000006091159
       7        0.000004581673    -0.000010515577    -0.000006216179
       8        0.001313459764    -0.002745060218    -0.002814978161
       9       -0.000725141355     0.004083452074     0.003905074488
      10        0.000134181121    -0.000054234430     0.000078590813
      11       -0.000115042497     0.000033508870     0.000039133104
      12       -0.005014322332    -0.001033878482    -0.004471430870
      13        0.000171663180    -0.000059758040     0.000125127593
      14       -0.000009288762     0.000111162048    -0.000097631759
      15       -0.000126181677     0.000036520948     0.000163434407
      16        0.004478835404    -0.000267759743     0.002923215005
      17        0.000034741311    -0.000028350061    -0.000027906713
      18       -0.000036870076    -0.000019397119    -0.000005716581
      19        0.000037720165     0.000066799140    -0.000077971780
      20       -0.000045685611    -0.000042550218     0.000070858457

  **** Optimization is complete! (in 7 steps) ****
    Final optimized geometry and variables:
    Molecular point group: c1

    Geometry (in Angstrom), charge = 0, multiplicity = 1:

    O           -2.234490741591    -0.919256464760    -0.048492964905
    C           -1.698318240658     0.102921431928     0.234623060437
    C           -2.394244749124     1.428264649065     0.388810674822
    O           -0.395794415813     0.210510045615     0.455232787688
    H           -1.977046846138     2.144365475037    -0.309828997964
    H           -3.451395102919     1.306049694985     0.206136686638
    H           -2.231869494393     1.812816936259     1.389075068815
    C            0.392576658734    -0.972271806034     0.341474453288
    C            1.830131098917    -0.617607181095     0.672555388004
    H            0.290715381738    -1.369365488747    -0.657745948860
    H            0.010957117670    -1.712725122178     1.031439396719
    C            2.505932741208     0.412220886294    -0.252004379970
    H            2.386717406513    -1.552215292282     0.632833452861
    H            1.883377962538    -0.271270534110     1.699631281561
    C            2.120842201872     0.338932819319    -1.728412480151
    H            2.338590711089     1.412439787048     0.135871265903
    H            3.579982895087     0.261953079213    -0.169387195606
    H            2.720114443631     1.033192239060    -2.308583369986
    H            1.079125368628     0.593489775424    -1.887782171255
    H            2.289093662464    -0.655422662818    -2.133429626225

  Mulliken Charges: (a.u.)
   Center  Symbol    Alpha    Beta     Spin     Total
       1     O     4.28326  4.28326  0.00000 -0.56651
       2     C     2.61964  2.61964  0.00000  0.76073
       3     C     3.28169  3.28169  0.00000 -0.56338
       4     O     4.30904  4.30904  0.00000 -0.61808
       5     H     0.40082  0.40082  0.00000  0.19836
       6     H     0.39691  0.39691  0.00000  0.20619
       7     H     0.40057  0.40057  0.00000  0.19885
       8     C     3.00571  3.00571  0.00000 -0.01141
       9     C     3.16699  3.16699  0.00000 -0.33398
      10     H     0.40834  0.40834  0.00000  0.18332
      11     H     0.40741  0.40741  0.00000  0.18519
      12     C     3.15174  3.15174  0.00000 -0.30348
      13     H     0.41849  0.41849  0.00000  0.16301
      14     H     0.41236  0.41236  0.00000  0.17528
      15     C     3.24682  3.24682  0.00000 -0.49364
      16     H     0.41549  0.41549  0.00000  0.16902
      17     H     0.42030  0.42030  0.00000  0.15940
      18     H     0.41695  0.41695  0.00000  0.16611
      19     H     0.41583  0.41583  0.00000  0.16833
      20     H     0.42165  0.42165  0.00000  0.15669

   Total alpha = 32.00000, Total beta = 32.00000, Total charge =  0.00000
