                              Psi4 1.0.54 Driver

  ==> Input File <==

--------------------------------------------------------------------------
set {
	reference rhf
	basis cc-pvtz
}

set_num_threads( 4 )
memory 2 gb

molecule MOL {
0 1

O	 3.219313	 0.959291	 -0.614106
C	 2.698710	 0.058177	 -0.050237
C	 1.246364	 -0.005813	 0.348416
O	 3.344101	 -1.038700	 0.312317
C	 0.453207	 1.232821	 -0.049003
H	 0.839270	 -0.907818	 -0.092281
H	 1.216683	 -0.160521	 1.422434
C	 -0.998367	 1.217982	 0.432195
H	 0.481498	 1.345443	 -1.127236
H	 0.951413	 2.105557	 0.354893
C	 -1.882951	 0.151251	 -0.211235
H	 -1.429490	 2.193659	 0.228843
H	 -1.019755	 1.099323	 1.513279
C	 -3.342450	 0.243269	 0.226009
H	 -1.826223	 0.246578	 -1.293162
H	 -1.508033	 -0.839650	 0.027695
C	 -3.543853	 1.050060	 1.505578
H	 -3.737973	 -0.759385	 0.369489
H	 -3.929506	 0.689061	 -0.573679
C	 -5.004118	 1.135912	 1.936890
H	 -2.958020	 0.605695	 2.305616
H	 -3.151568	 2.053362	 1.362906
H	 -5.111850	 1.714771	 2.847000
H	 -5.416096	 0.149430	 2.121924
H	 -5.611265	 1.607610	 1.171330
C	 4.720529	 -1.114346	 0.001449
H	 4.874321	 -1.055557	 -1.065852
H	 5.057824	 -2.067950	 0.373977
H	 5.264321	 -0.313596	 0.480350

	symmetry c1
}
set optking {
	frozen_dihedral = ("
		17 14 11 15
	")
}

ee,wfn = optimize('scf', return_wfn=True)
oeprop( wfn, 'DIPOLE', 'QUADRUPOLE', 'MULLIKEN_CHARGES')
f=open( 'psi4out.xyz', 'w' )
f.write( "29  " )
f.write( str(ee) + "\n" )
f.write( MOL.save_string_xyz() )
f.close()
--------------------------------------------------------------------------

    Molecular point group: c1
  Charge       = 0
  Multiplicity = 1
  Basis Set: CC-PVTZ
  Basis Set:
  @DF-RHF Final Energy:  -501.21244018126026
    Total Energy =                       -501.2124401812609449
    Molecular point group: c1
  Basis Set: CC-PVTZ
  Basis Set:
  Basis Set: CC-PVTZ
  Basis Set:
  @DF-RHF Final Energy:  -500.95010132274251
    Total Energy =                       -500.9501013227430803
  Basis Set: CC-PVTZ
  Basis Set:
  Basis Set: CC-PVTZ
  Basis Set:
  @DF-RHF Final Energy:  -501.10381870953586
    Total Energy =                       -501.1038187095366538
  Basis Set: CC-PVTZ
  Basis Set:
  Basis Set: CC-PVTZ
  Basis Set:
  @DF-RHF Final Energy:  -501.20066582197376
    Total Energy =                       -501.2006658219744395
  Basis Set: CC-PVTZ
  Basis Set:
  @DF-RHF Final Energy:  -501.21461344619331
    Total Energy =                       -501.2146134461933116
  @DF-RHF Final Energy:  -501.21608627715852
    Total Energy =                       -501.2160862771579559
  @DF-RHF Final Energy:  -501.21617303345295
    Total Energy =                       -501.2161730334523781
  @DF-RHF Final Energy:  -501.21557033965826
    Total Energy =                       -501.2155703396583704
  @DF-RHF Final Energy:  -501.21624388329258
    Total Energy =                       -501.2162438832929183
  Basis Set: CC-PVTZ
  Basis Set:
  @DF-RHF Final Energy:  -501.21626015533377
    Total Energy =                       -501.2162601553336572
  Basis Set: CC-PVTZ
  Basis Set:
  Basis Set: CC-PVTZ
  Basis Set:
  @DF-RHF Final Energy:  -501.21626161746576
    Total Energy =                       -501.2162616174655341
  Basis Set: CC-PVTZ
  Basis Set:
  Basis Set: CC-PVTZ
  Basis Set:
  @DF-RHF Final Energy:  -501.21626420897553
    Total Energy =                       -501.2162642089768951
  Basis Set: CC-PVTZ
  Basis Set:
  Charge       = 0
  Multiplicity = 1
  Basis Set: CC-PVTZ
  Basis Set:

    Orbital Energies (a.u.)
    -----------------------

    Doubly Occupied:

       1A    -20.595911     2A    -20.533759     3A    -11.364202
       4A    -11.278229     5A    -11.232798     6A    -11.216736
       7A    -11.214991     8A    -11.214329     9A    -11.213618
      10A    -11.212920    11A    -11.206862    12A     -1.471696
      13A     -1.365308    14A     -1.097850    15A     -1.065789
      16A     -1.018376    17A     -0.976799    18A     -0.929291
      19A     -0.863223    20A     -0.820615    21A     -0.774760
      22A     -0.757825    23A     -0.703152    24A     -0.685181
      25A     -0.675786    26A     -0.649849    27A     -0.627906
      28A     -0.604431    29A     -0.597866    30A     -0.582538
      31A     -0.565101    32A     -0.553612    33A     -0.548709
      34A     -0.525291    35A     -0.517586    36A     -0.503824
      37A     -0.492912    38A     -0.485118    39A     -0.481519
      40A     -0.460511    41A     -0.451210    42A     -0.446189
      43A     -0.443095    44A     -0.439788

  @DF-RHF Final Energy:  -501.21626475257972

   => Energetics <=

    Nuclear Repulsion Energy =            616.1508213930519560
    One-Electron Energy =               -1903.8000439917477706
    Two-Electron Energy =                 786.4329578461158690
    DFT Exchange-Correlation Energy =       0.0000000000000000
    Empirical Dispersion Energy =           0.0000000000000000
    PCM Polarization Energy =               0.0000000000000000
    EFP Energy =                            0.0000000000000000
    Total Energy =                       -501.2162647525799457
    Molecular point group: c1
  Basis Set: CC-PVTZ
  Basis Set:

  -Total Gradient:
     Atom            X                  Y                   Z
    ------   -----------------  -----------------  -----------------
       1        0.000007348894     0.000189450168    -0.000165413309
       2       -0.000066858859    -0.000098767206     0.000069696706
       3       -0.000015518654     0.000013835422     0.000083137245
       4       -0.000001493650    -0.000013260346     0.000105393219
       5       -0.000006140955    -0.000030618506    -0.000043328256
       6       -0.000006281340    -0.000000879091    -0.000015049258
       7       -0.000012612401    -0.000023306194     0.000018657920
       8        0.000009535800    -0.000006864986     0.000067349236
       9        0.000000508283     0.000002416056    -0.000024994235
      10       -0.000014889161     0.000002767837     0.000012257380
      11       -0.000651551245    -0.005322594196    -0.001179085294
      12       -0.000017381751     0.000001786626     0.000020361774
      13        0.000014085018     0.000006956781     0.000019243219
      14        0.002728824822    -0.003608092337     0.002841693291
      15       -0.000172438699     0.005596526422     0.000234768935
      16       -0.000022571922     0.000009199699     0.000010650669
      17       -0.001859608505     0.003330263221    -0.001924995130
      18        0.000017209614    -0.000016908859    -0.000014740392
      19       -0.000030839204     0.000013679685    -0.000019312703
      20       -0.000020883631    -0.000013630031    -0.000010734842
      21        0.000033696877    -0.000011175186     0.000009677269
      22        0.000007866901     0.000021410453    -0.000005603405
      23        0.000005217988     0.000020096885     0.000002209309
      24        0.000005818411    -0.000012459011     0.000000311076
      25       -0.000033580568     0.000006419780    -0.000005195672
      26       -0.000016919889    -0.000101796756     0.000010813323
      27        0.000019119666    -0.000002235636    -0.000067044304
      28        0.000053905021    -0.000021114678    -0.000023444918
      29        0.000046433141     0.000068893983    -0.000007278862

  **** Optimization is complete! (in 13 steps) ****
    Final optimized geometry and variables:
    Molecular point group: c1

    Geometry (in Angstrom), charge = 0, multiplicity = 1:

    O            2.224247704495     0.840437630187    -2.346734497116
    C            2.170779213856    -0.016846931043    -1.532193741129
    C            1.089177102009    -0.175090717627    -0.493937022865
    O            3.079152467516    -0.973616961131    -1.427686336820
    C            0.023882649115     0.912546682746    -0.558065609789
    H            0.669556103083    -1.164691986224    -0.628681678926
    H            1.576009220860    -0.188542950979     0.476087332067
    C           -1.024085228548     0.822033738087     0.553482628491
    H           -0.462007388972     0.881294978165    -1.527105608024
    H            0.514150704309     1.876742707692    -0.501850905783
    C           -1.940486631047    -0.401625315399     0.448941382251
    H           -1.629141518291     1.721740847846     0.509243960550
    H           -0.523218062994     0.840430587300     1.516472933997
    C           -3.097783169837    -0.478139476926     1.473959293521
    H           -2.372314008420    -0.369522084402    -0.546430780444
    H           -1.345075441810    -1.304570173942     0.513069716284
    C           -2.958228972525     0.342757772371     2.756480086008
    H           -3.262400942498    -1.517544345840     1.739092866224
    H           -4.012162362921    -0.154009308423     0.984429802563
    C           -4.154971932816     0.160551675487     3.685144991036
    H           -2.053225312088     0.058938983197     3.286590838221
    H           -2.854802788107     1.394088688475     2.515277398533
    H           -4.046570578771     0.754980308395     4.585153628687
    H           -4.265302449237    -0.876343867900     3.984719712709
    H           -5.077034142209     0.462098560578     3.199000004614
    C            4.154512462083    -0.950617842840    -2.344362483732
    H            3.793406370703    -1.037024615199    -3.358556218430
    H            4.774980163148    -1.796764812308    -2.097180896299
    H            4.718254318344    -0.034399004791    -2.248226464301

  Mulliken Charges: (a.u.)
   Center  Symbol    Alpha    Beta     Spin     Total
       1     O     4.19719  4.19719  0.00000 -0.39437
       2     C     2.80501  2.80501  0.00000  0.38997
       3     C     3.10133  3.10133  0.00000 -0.20267
       4     O     4.14725  4.14725  0.00000 -0.29450
       5     C     3.09253  3.09253  0.00000 -0.18505
       6     H     0.43927  0.43927  0.00000  0.12146
       7     H     0.44010  0.44010  0.00000  0.11980
       8     C     3.10935  3.10935  0.00000 -0.21870
       9     H     0.44661  0.44661  0.00000  0.10678
      10     H     0.43935  0.43935  0.00000  0.12131
      11     C     3.09972  3.09972  0.00000 -0.19943
      12     H     0.44372  0.44372  0.00000  0.11255
      13     H     0.44938  0.44938  0.00000  0.10124
      14     C     3.09139  3.09139  0.00000 -0.18278
      15     H     0.44993  0.44993  0.00000  0.10014
      16     H     0.45090  0.45090  0.00000  0.09819
      17     C     3.08891  3.08891  0.00000 -0.17782
      18     H     0.45019  0.45019  0.00000  0.09962
      19     H     0.45280  0.45280  0.00000  0.09440
      20     C     3.15123  3.15123  0.00000 -0.30245
      21     H     0.45376  0.45376  0.00000  0.09248
      22     H     0.45016  0.45016  0.00000  0.09968
      23     H     0.44813  0.44813  0.00000  0.10375
      24     H     0.45469  0.45469  0.00000  0.09062
      25     H     0.45510  0.45510  0.00000  0.08980
      26     C     3.03810  3.03810  0.00000 -0.07620
      27     H     0.45439  0.45439  0.00000  0.09123
      28     H     0.44529  0.44529  0.00000  0.10942
      29     H     0.45422  0.45422  0.00000  0.09155

   Total alpha = 44.00000, Total beta = 44.00000, Total charge = -0.00000

*** Psi4 exiting successfully. Buy a developer a beer!
