  ==> Input File <==

--------------------------------------------------------------------------
set {
	reference rhf
	basis 6-31G*
}

set_num_threads( 1 )
memory 2 gb

molecule MOL {
0 1

H	 1.136379	 0.211822	 1.465562
C	 1.135357	 0.094285	 0.374742
C	 0.065331	 0.871482	 -0.349150
O	 1.941633	 -0.601957	 -0.151457
C	 -1.345719	 0.531572	 0.151729
H	 0.165055	 0.682400	 -1.411796
H	 0.262419	 1.928605	 -0.176502
C	 -1.772723	 -0.901005	 -0.170473
H	 -2.047174	 1.227861	 -0.296774
H	 -1.397905	 0.698158	 1.225585
H	 -1.761146	 -1.078114	 -1.241466
H	 -2.778169	 -1.094177	 0.188802
H	 -1.112756	 -1.630963	 0.288868

	symmetry c1
}
set optking {
	frozen_dihedral = ("
		6 3 5 9
	")
}

ee = energy('scf')
oeprop('DIPOLE', 'QUADRUPOLE', 'MULLIKEN_CHARGES')
f=open( 'psi4out.xyz', 'w' )
f.write( "13  " )
f.write( str(ee) + "\n" )
f.write( MOL.save_string_xyz() )
f.close()
--------------------------------------------------------------------------

    Molecular point group: c1

    Geometry (in Angstrom), charge = 0, multiplicity = 1:

       Center              X                  Y                   Z               Mass
    ------------   -----------------  -----------------  -----------------  -----------------
           H          1.130120655292     0.232905873549     1.497449804526     1.007825032070
           C          1.129098655292     0.115368873549     0.406629804526    12.000000000000
           C          0.059072655292     0.892565873549    -0.317262195474    12.000000000000
           O          1.935374655292    -0.580873126451    -0.119569195474    15.994914619560
           C         -1.351977344708     0.552655873549     0.183616804526    12.000000000000
           H          0.158796655292     0.703483873549    -1.379908195474     1.007825032070
           H          0.256160655292     1.949688873549    -0.144614195474     1.007825032070
           C         -1.778981344708    -0.879921126451    -0.138585195474    12.000000000000
           H         -2.053432344708     1.248944873549    -0.264886195474     1.007825032070
           H         -1.404163344708     0.719241873549     1.257472804526     1.007825032070
           H         -1.767404344708    -1.057030126451    -1.209578195474     1.007825032070
           H         -2.784427344708    -1.073093126451     0.220689804526     1.007825032070
           H         -1.119014344708    -1.609879126451     0.320755804526     1.007825032070

  Charge       = 0
  Multiplicity = 1
  Basis Set: 6-31G*
  Basis Set:

    Orbital Energies (a.u.)
    -----------------------

    Doubly Occupied:

       1A    -20.563298     2A    -11.327121     3A    -11.238975
       4A    -11.235838     5A    -11.220963     6A     -1.403138
       7A     -1.086660     8A     -0.972914     9A     -0.847716
      10A     -0.788716    11A     -0.665773    12A     -0.649603
      13A     -0.626533    14A     -0.594431    15A     -0.558409
      16A     -0.532770    17A     -0.507190    18A     -0.493203
      19A     -0.481422    20A     -0.410634

  @DF-RHF Final Energy:  -230.98468817432510

   => Energetics <=

    Nuclear Repulsion Energy =            173.9093215155236010
    One-Electron Energy =                -657.3774515292566321
    Two-Electron Energy =                 252.4834418394079307
    DFT Exchange-Correlation Energy =       0.0000000000000000
    Empirical Dispersion Energy =           0.0000000000000000
    PCM Polarization Energy =               0.0000000000000000
    EFP Energy =                            0.0000000000000000
    Total Energy =                       -230.9846881743250719

  Mulliken Charges: (a.u.)
   Center  Symbol    Alpha    Beta     Spin     Total
       1     H     0.43236  0.43236  0.00000  0.13528
       2     C     2.83168  2.83168  0.00000  0.33663
       3     C     3.20724  3.20724  0.00000 -0.41449
       4     O     4.23678  4.23678  0.00000 -0.47356
       5     C     3.16561  3.16561  0.00000 -0.33122
       6     H     0.39990  0.39990  0.00000  0.20019
       7     H     0.40777  0.40777  0.00000  0.18446
       8     C     3.24221  3.24221  0.00000 -0.48441
       9     H     0.41149  0.41149  0.00000  0.17703
      10     H     0.41853  0.41853  0.00000  0.16294
      11     H     0.41553  0.41553  0.00000  0.16894
      12     H     0.41544  0.41544  0.00000  0.16912
      13     H     0.41545  0.41545  0.00000  0.16909

   Total alpha = 20.00000, Total beta = 20.00000, Total charge = -0.00000
