  ==> Input File <==

--------------------------------------------------------------------------
set {
	reference rhf
	basis 6-31G*
}

set_num_threads( 4 )
memory 2 gb

molecule MOL {
0 1

H	 -3.205869	 0.706700	 1.838701
O	 -2.348784	 0.984310	 1.548677
C	 -2.026376	 0.340750	 0.341611
C	 -0.673256	 0.843270	 -0.132153
H	 -1.987613	 -0.737564	 0.485390
H	 -2.784026	 0.544187	 -0.414188
C	 0.486613	 -0.083066	 0.235839
H	 -0.715586	 0.970948	 -1.210718
H	 -0.508072	 1.829858	 0.297090
C	 1.840406	 0.433480	 -0.254303
H	 0.300215	 -1.068318	 -0.178947
H	 0.519509	 -0.203625	 1.318070
C	 3.000220	 -0.489290	 0.118523
H	 1.809207	 0.553576	 -1.335192
H	 2.021860	 1.424500	 0.157276
H	 2.864959	 -1.479103	 -0.307933
H	 3.946603	 -0.099227	 -0.243630
H	 3.080049	 -0.602997	 1.196117

	symmetry c1
}
set optking {
	frozen_dihedral = ("
		2 3 4 8
	")
}

ee = optimize('scf')
oeprop('DIPOLE', 'QUADRUPOLE', 'MULLIKEN_CHARGES')
f=open( 'psi4out.xyz', 'w' )
f.write( "18  " )
f.write( str(ee) + "\n" )
f.write( MOL.save_string_xyz() )
f.close()
--------------------------------------------------------------------------

    Molecular point group: c1
  Charge       = 0
  Multiplicity = 1
  Basis Set: 6-31G*
  Basis Set:
  @DF-RHF Final Energy:  -271.17551704050902
    Total Energy =                       -271.1755170405090780
    Molecular point group: c1
  Basis Set: 6-31G*
  Basis Set:
  Basis Set: 6-31G*
  Basis Set:
  @DF-RHF Final Energy:  -271.17598634131116
    Total Energy =                       -271.1759863413111589
  Basis Set: 6-31G*
  Basis Set:
  Basis Set: 6-31G*
  Basis Set:
  @DF-RHF Final Energy:  -271.17606762209914
    Total Energy =                       -271.1760676220989126
  Basis Set: 6-31G*
  Basis Set:
  Basis Set: 6-31G*
  Basis Set:
  @DF-RHF Final Energy:  -271.17606743907675
    Total Energy =                       -271.1760674390767463
  Basis Set: 6-31G*
  Basis Set:
  Basis Set: 6-31G*
  Basis Set:
  @DF-RHF Final Energy:  -271.17607671096789
    Total Energy =                       -271.1760767109679477
  Basis Set: 6-31G*
  Basis Set:
  Charge       = 0
  Multiplicity = 1
  Basis Set: 6-31G*
  Basis Set:

    Orbital Energies (a.u.)
    -----------------------

    Doubly Occupied:

       1A    -20.551823     2A    -11.267566     3A    -11.212845
       4A    -11.211582     5A    -11.210713     6A    -11.206551
       7A     -1.357923     8A     -1.076658     9A     -1.008362
      10A     -0.913097    11A     -0.819589    12A     -0.788622
      13A     -0.703030    14A     -0.636951    15A     -0.630686
      16A     -0.577809    17A     -0.571540    18A     -0.559696
      19A     -0.525430    20A     -0.497509    21A     -0.488516
      22A     -0.469470    23A     -0.461279    24A     -0.452817
      25A     -0.425616

  @DF-RHF Final Energy:  -271.17607688578181

   => Energetics <=

    Nuclear Repulsion Energy =            247.1220681463180995
    One-Electron Energy =                -857.3449268470048992
    Two-Electron Energy =                 339.0467818149050458
    DFT Exchange-Correlation Energy =       0.0000000000000000
    Empirical Dispersion Energy =           0.0000000000000000
    PCM Polarization Energy =               0.0000000000000000
    EFP Energy =                            0.0000000000000000
    Total Energy =                       -271.1760768857818107
    Molecular point group: c1
  Basis Set: 6-31G*
  Basis Set:

  -Total Gradient:
     Atom            X                  Y                   Z
    ------   -----------------  -----------------  -----------------
       1        0.000004200274     0.000000405345    -0.000004990047
       2       -0.001671924634     0.002736152908    -0.001866134369
       3        0.001823902862    -0.002441728037     0.002547206137
       4        0.001172314947    -0.004899256335    -0.001305837273
       5       -0.000008586937    -0.000001520972    -0.000005176271
       6       -0.000009156609     0.000006920260     0.000019789107
       7        0.000000092945     0.000019094112     0.000010096603
       8       -0.001325788391     0.004593942427     0.000613105243
       9        0.000007509225     0.000001277209     0.000002311597
      10        0.000001778035    -0.000024132986    -0.000026717339
      11        0.000005300599     0.000019085898    -0.000000229485
      12        0.000004044699    -0.000006710809     0.000008624399
      13        0.000005926432     0.000006365457     0.000011822750
      14       -0.000003517935    -0.000002485956    -0.000004219737
      15       -0.000008375756    -0.000006205889    -0.000002001303
      16        0.000002479475     0.000003230418    -0.000005885217
      17        0.000001289795     0.000003380539     0.000006962919
      18       -0.000001489021    -0.000007813589     0.000001272287

  **** Optimization is complete! (in 6 steps) ****
    Final optimized geometry and variables:
    Molecular point group: c1

    Geometry (in Angstrom), charge = 0, multiplicity = 1:

    H           -3.094155108574     0.340538892638     1.599285314754
    O           -2.291783390942     0.669433122864     1.219368035732
    C           -2.038154728166     0.005194247758     0.004960491320
    C           -0.681328196937     0.469172408715    -0.523617479666
    H           -2.046150574778    -1.073913891758     0.147265755068
    H           -2.821026104673     0.242989395783    -0.712269682471
    C            0.481756982110    -0.442045254798    -0.133518740141
    H           -0.731006345847     0.599945082733    -1.601908521832
    H           -0.514979473676     1.463751190847    -0.119981974495
    C            1.842690983757     0.093104366329    -0.580158185323
    H            0.327325301795    -1.431434729941    -0.561862937809
    H            0.479367325858    -0.570132550699     0.946898398513
    C            3.001713443129    -0.824544514390    -0.192658518537
    H            1.838603778161     0.233205820790    -1.659342990961
    H            2.000706073164     1.077514335415    -0.145419421189
    H            2.891595822084    -1.807287067157    -0.642716173695
    H            3.953269043982    -0.416433218856    -0.519244186199
    H            3.051441641793    -0.958845572537     0.884181587184

  Mulliken Charges: (a.u.)
   Center  Symbol    Alpha    Beta     Spin     Total
       1     H     0.28164  0.28164  0.00000  0.43672
       2     O     4.37080  4.37080  0.00000 -0.74161
       3     C     2.99708  2.99708  0.00000  0.00584
       4     C     3.16380  3.16380  0.00000 -0.32760
       5     H     0.43092  0.43092  0.00000  0.13816
       6     H     0.42973  0.42973  0.00000  0.14054
       7     C     3.15520  3.15520  0.00000 -0.31041
       8     H     0.42209  0.42209  0.00000  0.15583
       9     H     0.40671  0.40671  0.00000  0.18657
      10     C     3.15223  3.15223  0.00000 -0.30446
      11     H     0.42623  0.42623  0.00000  0.14753
      12     H     0.41599  0.41599  0.00000  0.16801
      13     C     3.23928  3.23928  0.00000 -0.47855
      14     H     0.42401  0.42401  0.00000  0.15199
      15     H     0.42101  0.42101  0.00000  0.15799
      16     H     0.42259  0.42259  0.00000  0.15483
      17     H     0.41957  0.41957  0.00000  0.16085
      18     H     0.42111  0.42111  0.00000  0.15779

   Total alpha = 25.00000, Total beta = 25.00000, Total charge =  0.00000
