                              Psi4 1.0.54 Driver

  ==> Input File <==

--------------------------------------------------------------------------
set {
	reference rhf
	basis cc-pvtz
}

set_num_threads( 4 )
memory 2 gb

molecule MOL {
0 1

H	 2.240742	 1.760169	 0.064650
O	 1.320481	 1.769731	 0.250856
C	 0.700177	 0.619554	 -0.266242
C	 -0.713111	 0.588314	 0.266177
H	 1.227076	 -0.275254	 0.050965
H	 0.680261	 0.644347	 -1.352688
O	 -1.421673	 -0.521378	 -0.196983
H	 -1.244794	 1.469161	 -0.069059
H	 -0.685100	 0.604721	 1.352683
H	 -0.933408	 -1.297830	 0.014544

	symmetry c1
}
set optking {
	frozen_dihedral = ("
		5 3 4 7
	")
}

ee,wfn = optimize('scf', return_wfn=True)
oeprop( wfn, 'DIPOLE', 'QUADRUPOLE', 'MULLIKEN_CHARGES')
f=open( 'psi4out.xyz', 'w' )
f.write( "10  " )
f.write( str(ee) + "\n" )
f.write( MOL.save_string_xyz() )
f.close()
--------------------------------------------------------------------------

    Molecular point group: c1
  Charge       = 0
  Multiplicity = 1
  Basis Set: CC-PVTZ
  Basis Set:
  @DF-RHF Final Energy:  -229.02475919869457
    Total Energy =                       -229.0247591986945395
    Molecular point group: c1
  Basis Set: CC-PVTZ
  Basis Set:
  Basis Set: CC-PVTZ
  Basis Set:
  @DF-RHF Final Energy:  -229.02525569207765
    Total Energy =                       -229.0252556920777067
  Basis Set: CC-PVTZ
  Basis Set:
  Basis Set: CC-PVTZ
  Basis Set:
  @DF-RHF Final Energy:  -229.02549938837817
    Total Energy =                       -229.0254993883781935
  Basis Set: CC-PVTZ
  Basis Set:
  Basis Set: CC-PVTZ
  Basis Set:
  @DF-RHF Final Energy:  -229.02558614923277
    Total Energy =                       -229.0255861492326517
  Basis Set: CC-PVTZ
  Basis Set:
  Basis Set: CC-PVTZ
  Basis Set:
  @DF-RHF Final Energy:  -229.02558854139048
    Total Energy =                       -229.0255885413904480
  Basis Set: CC-PVTZ
  Basis Set:
  Charge       = 0
  Multiplicity = 1
  Basis Set: CC-PVTZ
  Basis Set:

    Orbital Energies (a.u.)
    -----------------------

    Doubly Occupied:

       1A    -20.555552     2A    -20.552898     3A    -11.271036
       4A    -11.267249     5A     -1.379150     6A     -1.365865
       7A     -0.999890     8A     -0.847494     9A     -0.724302
      10A     -0.691974    11A     -0.641450    12A     -0.616883
      13A     -0.579241    14A     -0.528375    15A     -0.494462
      16A     -0.447490    17A     -0.442882

  @DF-RHF Final Energy:  -229.02558868265541

   => Energetics <=

    Nuclear Repulsion Energy =            131.5326753216433247
    One-Electron Energy =                -574.3041425756177887
    Two-Electron Energy =                 213.7458785713189684
    DFT Exchange-Correlation Energy =       0.0000000000000000
    Empirical Dispersion Energy =           0.0000000000000000
    PCM Polarization Energy =               0.0000000000000000
    EFP Energy =                            0.0000000000000000
    Total Energy =                       -229.0255886826555241
    Molecular point group: c1
  Basis Set: CC-PVTZ
  Basis Set:

  -Total Gradient:
     Atom            X                  Y                   Z
    ------   -----------------  -----------------  -----------------
       1        0.000000282669     0.000011350415     0.000006241355
       2       -0.000002726340    -0.000036520465    -0.000012872289
       3       -0.000044176881     0.000004977922    -0.000142531168
       4        0.000054150318    -0.000059947591     0.000117897294
       5        0.000039650957     0.000046159073     0.000112463748
       6       -0.000013687899    -0.000015529898    -0.000004344940
       7       -0.000034402459     0.000073356587    -0.000074622260
       8       -0.000002005361    -0.000002342916    -0.000000937795
       9       -0.000000022113    -0.000006505842    -0.000004308792
      10        0.000002937111    -0.000014997286     0.000003014847

  **** Optimization is complete! (in 6 steps) ****
    Final optimized geometry and variables:
    Molecular point group: c1

    Geometry (in Angstrom), charge = 0, multiplicity = 1:

    H            2.200045237932     1.255406076643    -0.054302961350
    O            1.331032079891     1.154688813771     0.286688126930
    C            0.715857848362     0.027246828947    -0.269717898216
    C           -0.706847892937    -0.023357751448     0.249643904265
    H            1.242000064502    -0.882925267709     0.014654462094
    H            0.698447446586     0.076419145718    -1.354218511792
    O           -1.406594409993    -1.117685085683    -0.272567210457
    H           -1.233974426747     0.866994591607    -0.062293621941
    H           -0.696859610844    -0.036485577414     1.335058703568
    H           -1.117709694163    -1.912991566075     0.136010344675

  Mulliken Charges: (a.u.)
   Center  Symbol    Alpha    Beta     Spin     Total
       1     H     0.39303  0.39303  0.00000  0.21394
       2     O     4.19909  4.19909  0.00000 -0.39818
       3     C     2.96464  2.96464  0.00000  0.07071
       4     C     2.97685  2.97685  0.00000  0.04631
       5     H     0.48169  0.48169  0.00000  0.03661
       6     H     0.46970  0.46970  0.00000  0.06061
       7     O     4.20263  4.20263  0.00000 -0.40527
       8     H     0.45221  0.45221  0.00000  0.09559
       9     H     0.46625  0.46625  0.00000  0.06750
      10     H     0.39391  0.39391  0.00000  0.21218

   Total alpha = 17.00000, Total beta = 17.00000, Total charge = -0.00000

*** Psi4 exiting successfully. Buy a developer a beer!
