                              Psi4 1.0.54 Driver

  ==> Input File <==

--------------------------------------------------------------------------
set {
	reference rhf
	basis cc-pvtz
}

set_num_threads( 4 )
memory 2 gb

molecule MOL {
0 1

H	 1.875826	 1.673053	 -1.849381
C	 1.152328	 1.499923	 -1.063343
C	 1.322304	 0.099773	 -0.484271
H	 1.298229	 2.260589	 -0.304746
H	 0.163514	 1.633867	 -1.487191
C	 0.308557	 -0.162619	 0.622645
H	 2.320514	 -0.018521	 -0.081384
H	 1.193521	 -0.643347	 -1.261526
N	 -1.069352	 -0.004081	 0.085342
H	 0.371632	 -1.172932	 0.991288
H	 0.400391	 0.548875	 1.426218
O	 -1.584901	 -0.965470	 -0.377818
O	 -1.548033	 1.079343	 0.130056

	symmetry c1
}
set optking {
	frozen_dihedral = ("
		7 3 6 9
	")
}

ee,wfn = optimize('scf', return_wfn=True)
oeprop( wfn, 'DIPOLE', 'QUADRUPOLE', 'MULLIKEN_CHARGES')
f=open( 'psi4out.xyz', 'w' )
f.write( "13  " )
f.write( str(ee) + "\n" )
f.write( MOL.save_string_xyz() )
f.close()
--------------------------------------------------------------------------

    Molecular point group: c1
  Charge       = 0
  Multiplicity = 1
  Basis Set: CC-PVTZ
  Basis Set:
  @DF-RHF Final Energy:  -321.85841047133817
    Total Energy =                       -321.8584104713383454
    Molecular point group: c1
  Basis Set: CC-PVTZ
  Basis Set:
  Basis Set: CC-PVTZ
  Basis Set:
  @DF-RHF Final Energy:  -321.85888709895744
    Total Energy =                       -321.8588870989572683
  Basis Set: CC-PVTZ
  Basis Set:
  Basis Set: CC-PVTZ
  Basis Set:
  @DF-RHF Final Energy:  -321.86028950623995
    Total Energy =                       -321.8602895062399512
  Basis Set: CC-PVTZ
  Basis Set:
  Basis Set: CC-PVTZ
  Basis Set:
  @DF-RHF Final Energy:  -321.86002020850657
    Total Energy =                       -321.8600202085066257
  Basis Set: CC-PVTZ
  Basis Set:
  @DF-RHF Final Energy:  -321.86052489202910
    Total Energy =                       -321.8605248920290478
  @DF-RHF Final Energy:  -321.86067676807420
    Total Energy =                       -321.8606767680741427
  @DF-RHF Final Energy:  -321.86107157585587
    Total Energy =                       -321.8610715758559309
  @DF-RHF Final Energy:  -321.86114165857464
    Total Energy =                       -321.8611416585746383
  @DF-RHF Final Energy:  -321.86117925348015
    Total Energy =                       -321.8611792534803158
  Basis Set: CC-PVTZ
  Basis Set:
  @DF-RHF Final Energy:  -321.86120810069150
    Total Energy =                       -321.8612081006916696
  Basis Set: CC-PVTZ
  Basis Set:
  Basis Set: CC-PVTZ
  Basis Set:
  @DF-RHF Final Energy:  -321.86122730071878
    Total Energy =                       -321.8612273007186104
  Basis Set: CC-PVTZ
  Basis Set:
  Basis Set: CC-PVTZ
  Basis Set:
  @DF-RHF Final Energy:  -321.86124347354030
    Total Energy =                       -321.8612434735401848
  Basis Set: CC-PVTZ
  Basis Set:
  Charge       = 0
  Multiplicity = 1
  Basis Set: CC-PVTZ
  Basis Set:

    Orbital Energies (a.u.)
    -----------------------

    Doubly Occupied:

       1A    -20.593222     2A    -20.589093     3A    -15.837185
       4A    -11.297630     5A    -11.252180     6A    -11.229232
       7A     -1.636716     8A     -1.420928     9A     -1.132694
      10A     -1.021348    11A     -0.894840    12A     -0.823214
      13A     -0.760171    14A     -0.741972    15A     -0.729487
      16A     -0.653467    17A     -0.618014    18A     -0.594490
      19A     -0.532546    20A     -0.518572    21A     -0.512567
      22A     -0.487399    23A     -0.475098    24A     -0.454518

  @DF-RHF Final Energy:  -321.86124423248447

   => Energetics <=

    Nuclear Repulsion Energy =            253.6572164431253782
    One-Electron Energy =                -941.4237660454084562
    Two-Electron Energy =                 365.9053053697984410
    DFT Exchange-Correlation Energy =       0.0000000000000000
    Empirical Dispersion Energy =           0.0000000000000000
    PCM Polarization Energy =               0.0000000000000000
    EFP Energy =                            0.0000000000000000
    Total Energy =                       -321.8612442324845802
    Molecular point group: c1
  Basis Set: CC-PVTZ
  Basis Set:

  -Total Gradient:
     Atom            X                  Y                   Z
    ------   -----------------  -----------------  -----------------
       1        0.000003320788    -0.000005564598    -0.000002088389
       2       -0.000005835933     0.000002812320     0.000028551295
       3        0.000026154843    -0.000844100323    -0.000301833065
       4        0.000001923017    -0.000001862185     0.000002320725
       5       -0.000006368337    -0.000003993638    -0.000006567284
       6        0.000016103504    -0.000714986608    -0.000237995059
       7       -0.000011600862     0.000892544561     0.000292923541
       8       -0.000000556682     0.000005188272    -0.000003296099
       9       -0.000045980306     0.000702968782     0.000243079422
      10       -0.000007724420     0.000005098658     0.000000414594
      11       -0.000001294874     0.000008444843     0.000015953596
      12       -0.000005617410    -0.000019292915    -0.000013023729
      13        0.000037476668    -0.000027257169    -0.000018439547

  **** Optimization is complete! (in 13 steps) ****
    Final optimized geometry and variables:
    Molecular point group: c1

    Geometry (in Angstrom), charge = 0, multiplicity = 1:

    H            2.013879340775     1.639590190806    -1.761534433057
    C            1.322644014460     1.397329944107    -0.964452668854
    C            1.559548082772    -0.029212208892    -0.478626766210
    H            1.467752062397     2.115508272578    -0.165434178935
    H            0.318795510446     1.524898370276    -1.350841294149
    C            0.675375194979    -0.434685533404     0.692313312886
    H            2.582889218223    -0.130252214096    -0.134183103658
    H            1.420317540520    -0.732449291723    -1.288077911961
    N           -0.769185279527    -0.335835848711     0.336512104343
    H            0.831537420810    -1.467708622159     0.962711055926
    H            0.808424357705     0.202214968404     1.549791281749
    O           -1.152005600165    -1.022381812303    -0.551629367590
    O           -1.438651617310     0.417507261101     0.958113309429

  Mulliken Charges: (a.u.)
   Center  Symbol    Alpha    Beta     Spin     Total
       1     H     0.44515  0.44515  0.00000  0.10969
       2     C     3.14535  3.14535  0.00000 -0.29069
       3     C     3.09863  3.09863  0.00000 -0.19726
       4     H     0.45187  0.45187  0.00000  0.09625
       5     H     0.44486  0.44486  0.00000  0.11029
       6     C     3.04894  3.04894  0.00000 -0.09788
       7     H     0.44520  0.44520  0.00000  0.10960
       8     H     0.43747  0.43747  0.00000  0.12506
       9     N     3.28021  3.28021  0.00000  0.43958
      10     H     0.42822  0.42822  0.00000  0.14356
      11     H     0.43155  0.43155  0.00000  0.13691
      12     O     4.17429  4.17429  0.00000 -0.34858
      13     O     4.16825  4.16825  0.00000 -0.33651

   Total alpha = 24.00000, Total beta = 24.00000, Total charge =  0.00000

*** Psi4 exiting successfully. Buy a developer a beer!
