                              Psi4 1.0.54 Driver

  ==> Input File <==

--------------------------------------------------------------------------
set {
	reference rhf
	basis cc-pvtz
}

set_num_threads( 4 )
memory 2 gb

molecule MOL {
0 1

O	 -0.466383	 0.133050	 -0.703727
C	 0.485107	 0.171416	 -0.000134
C	 1.606966	 -0.836201	 0.000174
O	 0.691433	 1.122109	 0.894404
C	 2.988788	 -0.202529	 -0.000115
H	 1.465110	 -1.474645	 -0.864821
H	 1.465209	 -1.474077	 0.865596
H	 3.131767	 0.419673	 -0.873407
H	 3.750876	 -0.972315	 0.000098
H	 3.131883	 0.420264	 0.872742
C	 -0.285516	 2.147064	 1.009837
C	 0.171826	 3.101503	 2.087971
H	 -1.238944	 1.700089	 1.253837
H	 -0.388802	 2.645426	 0.056270
H	 0.272623	 2.591233	 3.037622
H	 -0.553408	 3.898492	 2.202326
H	 1.127561	 3.542010	 1.833227

	symmetry c1
}
set optking {
	frozen_dihedral = ("
		4 2 3 6
	")
}

ee,wfn = optimize('scf', return_wfn=True)
oeprop( wfn, 'DIPOLE', 'QUADRUPOLE', 'MULLIKEN_CHARGES')
f=open( 'psi4out.xyz', 'w' )
f.write( "17  " )
f.write( str(ee) + "\n" )
f.write( MOL.save_string_xyz() )
f.close()
--------------------------------------------------------------------------

    Molecular point group: c1
  Charge       = 0
  Multiplicity = 1
  Basis Set: CC-PVTZ
  Basis Set:
  @DF-RHF Final Energy:  -345.03845267665241
    Total Energy =                       -345.0384526766523550
    Molecular point group: c1
  Basis Set: CC-PVTZ
  Basis Set:
  Basis Set: CC-PVTZ
  Basis Set:
  @DF-RHF Final Energy:  -345.03724391007319
    Total Energy =                       -345.0372439100731867
  Basis Set: CC-PVTZ
  Basis Set:
  Basis Set: CC-PVTZ
  Basis Set:
  @DF-RHF Final Energy:  -345.03882152920721
    Total Energy =                       -345.0388215292071550
  Basis Set: CC-PVTZ
  Basis Set:
  Basis Set: CC-PVTZ
  Basis Set:
  @DF-RHF Final Energy:  -345.03883844952048
    Total Energy =                       -345.0388384495203127
  Basis Set: CC-PVTZ
  Basis Set:
  Basis Set: CC-PVTZ
  Basis Set:
  @DF-RHF Final Energy:  -345.03884019474015
    Total Energy =                       -345.0388401947402599
  Basis Set: CC-PVTZ
  Basis Set:
  Basis Set: CC-PVTZ
  Basis Set:
  @DF-RHF Final Energy:  -345.03883916120986
    Total Energy =                       -345.0388391612098076
  Basis Set: CC-PVTZ
  Basis Set:
  Basis Set: CC-PVTZ
  Basis Set:
  @DF-RHF Final Energy:  -345.03884062433491
    Total Energy =                       -345.0388406243350232
  Basis Set: CC-PVTZ
  Basis Set:
  Charge       = 0
  Multiplicity = 1
  Basis Set: CC-PVTZ
  Basis Set:

    Orbital Energies (a.u.)
    -----------------------

    Doubly Occupied:

       1A    -20.594634     2A    -20.531042     3A    -11.363026
       4A    -11.283032     5A    -11.235513     6A    -11.221594
       7A    -11.220926     8A     -1.470696     9A     -1.363661
      10A     -1.073671    11A     -1.031109    12A     -0.907464
      13A     -0.859291    14A     -0.779837    15A     -0.694398
      16A     -0.680771    17A     -0.675200    18A     -0.625457
      19A     -0.587933    20A     -0.574794    21A     -0.553538
      22A     -0.546499    23A     -0.525213    24A     -0.512026
      25A     -0.505659    26A     -0.494881    27A     -0.455815
      28A     -0.434323

  @DF-RHF Final Energy:  -345.03884064066420

   => Energetics <=

    Nuclear Repulsion Energy =            317.8186500913461146
    One-Electron Energy =               -1100.1109815212826106
    Two-Electron Energy =                 437.2534907892718934
    DFT Exchange-Correlation Energy =       0.0000000000000000
    Empirical Dispersion Energy =           0.0000000000000000
    PCM Polarization Energy =               0.0000000000000000
    EFP Energy =                            0.0000000000000000
    Total Energy =                       -345.0388406406645458
    Molecular point group: c1
  Basis Set: CC-PVTZ
  Basis Set:

  -Total Gradient:
     Atom            X                  Y                   Z
    ------   -----------------  -----------------  -----------------
       1        0.000020457885    -0.000022385178     0.000008321936
       2       -0.000223196407    -0.000301540633     0.000430216078
       3       -0.000286609007    -0.000393933246     0.000356050442
       4        0.000205185364     0.000320515753    -0.000393984984
       5       -0.000004362155     0.000000659814     0.000007113044
       6        0.000286117022     0.000408280259    -0.000409917660
       7       -0.000001284659     0.000003247652    -0.000002546462
       8       -0.000002960023    -0.000003576426     0.000001361735
       9       -0.000003858639     0.000002178009    -0.000001049671
      10        0.000004147955    -0.000000368832    -0.000000225275
      11       -0.000010516442    -0.000010218438     0.000013805104
      12        0.000007358926    -0.000001420862    -0.000002758522
      13        0.000005908712     0.000005867135    -0.000004215145
      14        0.000005012310    -0.000004671187     0.000001617589
      15       -0.000001016355     0.000001545714    -0.000004200223
      16        0.000001731067    -0.000003821665    -0.000002756259
      17       -0.000002115558    -0.000000357869     0.000003168274

  **** Optimization is complete! (in 8 steps) ****
    Final optimized geometry and variables:
    Molecular point group: c1

    Geometry (in Angstrom), charge = 0, multiplicity = 1:

    O           -1.257519018114    -0.833315193550    -1.005854768305
    C           -0.239963398530    -0.676730604778    -0.420033416004
    C            0.943290543105    -1.608314205725    -0.513443324348
    O           -0.027720091439     0.330485177895     0.407930644666
    C            2.287823072518    -0.907854628234    -0.695784653001
    H            0.742736150122    -2.281652430443    -1.333565272990
    H            0.954628196354    -2.195456194150     0.399487199744
    H            2.292562730464    -0.299365005655    -1.592695812375
    H            3.075998646512    -1.644255330718    -0.790723718640
    H            2.517822520269    -0.269593565545     0.145398137084
    C           -1.082613935815     1.262492537831     0.601623058442
    C           -0.601175755371     2.309078234462     1.579000654021
    H           -1.951033955488     0.739071380705     0.975821452607
    H           -1.345689977773     1.699690508346    -0.351067399269
    H           -0.338919757117     1.859212880309     2.528345879016
    H           -1.385254296408     3.037208355524     1.749947432254
    H            0.268309276920     2.826641948750     1.193565171284

  Mulliken Charges: (a.u.)
   Center  Symbol    Alpha    Beta     Spin     Total
       1     O     4.19941  4.19941  0.00000 -0.39883
       2     C     2.80990  2.80990  0.00000  0.38020
       3     C     3.08541  3.08541  0.00000 -0.17082
       4     O     4.15265  4.15265  0.00000 -0.30529
       5     C     3.14715  3.14715  0.00000 -0.29430
       6     H     0.43570  0.43570  0.00000  0.12861
       7     H     0.44785  0.44785  0.00000  0.10430
       8     H     0.45143  0.45143  0.00000  0.09714
       9     H     0.44840  0.44840  0.00000  0.10319
      10     H     0.44600  0.44600  0.00000  0.10800
      11     C     2.97789  2.97789  0.00000  0.04422
      12     C     3.13404  3.13404  0.00000 -0.26808
      13     H     0.45342  0.45342  0.00000  0.09316
      14     H     0.45415  0.45415  0.00000  0.09170
      15     H     0.45153  0.45153  0.00000  0.09693
      16     H     0.45373  0.45373  0.00000  0.09254
      17     H     0.45132  0.45132  0.00000  0.09736

   Total alpha = 28.00000, Total beta = 28.00000, Total charge =  0.00000

*** Psi4 exiting successfully. Buy a developer a beer!
