                              Psi4 1.0.54 Driver

  ==> Input File <==

--------------------------------------------------------------------------
set {
	reference rhf
	basis cc-pvtz
}

set_num_threads( 4 )
memory 2 gb

molecule MOL {
0 1

H	 -3.436473	 1.252944	 -1.023892
O	 -3.458596	 0.315260	 -0.960865
C	 -3.176635	 -0.080824	 0.355601
C	 -1.763371	 0.265266	 0.799691
H	 -3.321825	 -1.153438	 0.379502
H	 -3.895468	 0.357385	 1.043382
C	 -0.673390	 -0.426948	 -0.013392
H	 -1.631049	 1.344913	 0.747560
H	 -1.664587	 -0.001624	 1.849167
C	 0.737842	 -0.043159	 0.423759
H	 -0.806103	 -0.190518	 -1.063345
H	 -0.797221	 -1.503753	 0.074146
C	 1.824000	 -0.743224	 -0.390623
H	 0.850588	 1.033777	 0.343840
H	 0.868587	 -0.286314	 1.476203
C	 2.997341	 -1.281784	 0.429786
H	 2.201134	 -0.059409	 -1.147602
H	 1.372986	 -1.571498	 -0.930224
C	 3.855287	 -0.209407	 1.096929
H	 3.629444	 -1.874635	 -0.224240
H	 2.621543	 -1.964880	 1.187134
H	 4.240410	 0.492384	 0.363958
H	 4.703869	 -0.655756	 1.602817
H	 3.298068	 0.355536	 1.834460

	symmetry c1
}
set optking {
	frozen_dihedral = ("
		17 13 10 7
	")
}

ee,wfn = optimize('scf', return_wfn=True)
oeprop( wfn, 'DIPOLE', 'QUADRUPOLE', 'MULLIKEN_CHARGES')
f=open( 'psi4out.xyz', 'w' )
f.write( "24  " )
f.write( str(ee) + "\n" )
f.write( MOL.save_string_xyz() )
f.close()
--------------------------------------------------------------------------

    Molecular point group: c1
  Charge       = 0
  Multiplicity = 1
  Basis Set: CC-PVTZ
  Basis Set:
  @DF-RHF Final Energy:  -349.37641735305306
    Total Energy =                       -349.3764173530531139
    Molecular point group: c1
  Basis Set: CC-PVTZ
  Basis Set:
  Basis Set: CC-PVTZ
  Basis Set:
  @DF-RHF Final Energy:  -349.37673164329431
    Total Energy =                       -349.3767316432944199
  Basis Set: CC-PVTZ
  Basis Set:
  Basis Set: CC-PVTZ
  Basis Set:
  @DF-RHF Final Energy:  -349.37680252595783
    Total Energy =                       -349.3768025259575438
  Basis Set: CC-PVTZ
  Basis Set:
  Basis Set: CC-PVTZ
  Basis Set:
  @DF-RHF Final Energy:  -349.37680922929513
    Total Energy =                       -349.3768092292949632
  Basis Set: CC-PVTZ
  Basis Set:
  Basis Set: CC-PVTZ
  Basis Set:
  @DF-RHF Final Energy:  -349.37681049871429
    Total Energy =                       -349.3768104987145193
  Basis Set: CC-PVTZ
  Basis Set:
  Charge       = 0
  Multiplicity = 1
  Basis Set: CC-PVTZ
  Basis Set:

    Orbital Energies (a.u.)
    -----------------------

    Doubly Occupied:

       1A    -20.546270     2A    -11.265619     3A    -11.215114
       4A    -11.211929     5A    -11.210480     6A    -11.209506
       7A    -11.209202     8A    -11.205185     9A     -1.364161
      10A     -1.089005    11A     -1.049580    12A     -0.985419
      13A     -0.915457    14A     -0.851526    15A     -0.803119
      16A     -0.775711    17A     -0.682560    18A     -0.651949
      19A     -0.628113    20A     -0.619926    21A     -0.595946
      22A     -0.590545    23A     -0.552512    24A     -0.546538
      25A     -0.517016    26A     -0.504460    27A     -0.502955
      28A     -0.475249    29A     -0.468575    30A     -0.461215
      31A     -0.452402    32A     -0.450137    33A     -0.421302

  @DF-RHF Final Energy:  -349.37681062461019

   => Energetics <=

    Nuclear Repulsion Energy =            384.8548451752640744
    One-Electron Energy =               -1236.4059475527997165
    Two-Electron Energy =                 502.1742917529255692
    DFT Exchange-Correlation Energy =       0.0000000000000000
    Empirical Dispersion Energy =           0.0000000000000000
    PCM Polarization Energy =               0.0000000000000000
    EFP Energy =                            0.0000000000000000
    Total Energy =                       -349.3768106246101297
    Molecular point group: c1
  Basis Set: CC-PVTZ
  Basis Set:

  -Total Gradient:
     Atom            X                  Y                   Z
    ------   -----------------  -----------------  -----------------
       1       -0.000000416187    -0.000000613191     0.000000830172
       2       -0.000000137362    -0.000000227881    -0.000002690694
       3       -0.000001262237     0.000003641881     0.000003031336
       4       -0.000003712776     0.000003982917    -0.000003817226
       5        0.000000688701     0.000000647290    -0.000000411220
       6       -0.000001105856     0.000000009899    -0.000000657291
       7       -0.000031777674    -0.002050034167     0.001674213028
       8       -0.000001007708     0.000002451727     0.000001240610
       9        0.000001635872    -0.000001564402    -0.000004434181
      10        0.000646755874     0.003086348940    -0.001765987524
      11        0.000001705848     0.000001008771     0.000006202107
      12       -0.000001414811    -0.000001435960    -0.000000153051
      13       -0.003109654669    -0.002123642486    -0.002261707632
      14       -0.000006791601     0.000000292634    -0.000008285707
      15        0.000004856993    -0.000001169817     0.000002161819
      16        0.000006274028    -0.000002475742    -0.000020345415
      17        0.002505550646     0.001074056826     0.002380324409
      18       -0.000003028038     0.000000388463    -0.000004745915
      19       -0.000002579043     0.000005860863     0.000009578139
      20       -0.000000855227    -0.000008152927    -0.000001265671
      21       -0.000006382532     0.000010435610    -0.000007335999
      22       -0.000002054182    -0.000002224791    -0.000000961453
      23       -0.000000641153     0.000002289554    -0.000000616265
      24        0.000005353095     0.000000125991     0.000005833624

  **** Optimization is complete! (in 6 steps) ****
    Final optimized geometry and variables:
    Molecular point group: c1

    Geometry (in Angstrom), charge = 0, multiplicity = 1:

    H           -3.395716989204     1.550217824589    -1.242782429521
    O           -3.435263730353     0.613364725674    -1.176247148757
    C           -3.164233287486     0.217376588966     0.142398888099
    C           -1.746550736724     0.540739270525     0.589789296798
    H           -3.327846012808    -0.852525399880     0.169263786708
    H           -3.877699607831     0.669995080632     0.826434661815
    C           -0.665872791116    -0.169246134401    -0.219659698989
    H           -1.596284082127     1.618015257841     0.537683975757
    H           -1.654753879109     0.272829738809     1.639757995920
    C            0.750941271752     0.173955609616     0.235153254277
    H           -0.785278055719     0.076681695643    -1.269449718689
    H           -0.811283394861    -1.243891054805    -0.141005109221
    C            1.841860128232    -0.524832851711    -0.596582922091
    H            0.890869344006     1.249951118650     0.209836443149
    H            0.851833762219    -0.115495182877     1.278174649740
    C            3.016785484222    -1.056191786525     0.227590535966
    H            2.240460904992     0.169241252615    -1.331166992721
    H            1.404492352910    -1.350261006503    -1.147811739593
    C            3.839372062772     0.033903722039     0.909417997781
    H            3.668434465702    -1.631632691353    -0.423110753037
    H            2.644338590442    -1.750373550282     0.976533572067
    H            4.251182419894     0.722645560303     0.178596656593
    H            4.667596743567    -0.393040767066     1.463425054592
    H            3.242943654981     0.611571945623     1.606242214172

  Mulliken Charges: (a.u.)
   Center  Symbol    Alpha    Beta     Spin     Total
       1     H     0.39526  0.39526  0.00000  0.20947
       2     O     4.20379  4.20379  0.00000 -0.40758
       3     C     2.97760  2.97760  0.00000  0.04480
       4     C     3.10304  3.10304  0.00000 -0.20608
       5     H     0.45897  0.45897  0.00000  0.08207
       6     H     0.46042  0.46042  0.00000  0.07915
       7     C     3.08703  3.08703  0.00000 -0.17405
       8     H     0.45894  0.45894  0.00000  0.08211
       9     H     0.45328  0.45328  0.00000  0.09345
      10     C     3.09681  3.09681  0.00000 -0.19362
      11     H     0.44566  0.44566  0.00000  0.10868
      12     H     0.45518  0.45518  0.00000  0.08965
      13     C     3.09693  3.09693  0.00000 -0.19387
      14     H     0.44983  0.44983  0.00000  0.10033
      15     H     0.45540  0.45540  0.00000  0.08921
      16     C     3.08926  3.08926  0.00000 -0.17853
      17     H     0.45221  0.45221  0.00000  0.09557
      18     H     0.44786  0.44786  0.00000  0.10428
      19     C     3.15040  3.15040  0.00000 -0.30080
      20     H     0.44946  0.44946  0.00000  0.10109
      21     H     0.45601  0.45601  0.00000  0.08799
      22     H     0.45514  0.45514  0.00000  0.08972
      23     H     0.44749  0.44749  0.00000  0.10502
      24     H     0.45402  0.45402  0.00000  0.09196

   Total alpha = 33.00000, Total beta = 33.00000, Total charge = -0.00000

*** Psi4 exiting successfully. Buy a developer a beer!
