  ==> Input File <==

--------------------------------------------------------------------------
set {
	reference rhf
	basis cc-pvtz
}

set_num_threads( 4 )
memory 2 gb

molecule MOL {
0 1

H	 -0.366580	 2.045936	 -0.305741
C	 0.351829	 1.335402	 0.083179
N	 -0.000018	 0.000080	 -0.334836
H	 1.327156	 1.599860	 -0.305475
H	 0.380566	 1.445403	 1.171445
C	 1.044499	 -0.612617	 -1.119672
C	 -0.394590	 -0.828088	 0.779027
H	 0.719830	 -1.582689	 -1.474131
H	 1.266585	 0.001372	 -1.983317
H	 1.972081	 -0.751674	 -0.556355
H	 -1.224646	 -0.371790	 1.303414
H	 -0.717501	 -1.798037	 0.422581
H	 0.414500	 -0.984610	 1.498738

	symmetry c1
}
set optking {
	frozen_dihedral = ("
		6 3 2 1
	")
}

ee = optimize('scf')
oeprop('DIPOLE', 'QUADRUPOLE', 'MULLIKEN_CHARGES')
f=open( 'psi4out.xyz', 'w' )
f.write( "13  " )
f.write( str(ee) + "\n" )
f.write( MOL.save_string_xyz() )
f.close()
--------------------------------------------------------------------------

    Molecular point group: c1
  Charge       = 0
  Multiplicity = 1
  Basis Set: CC-PVTZ
  Basis Set:
  @DF-RHF Final Energy:  -173.32692633547532
    Total Energy =                       -173.3269263354751502
    Molecular point group: c1
  Basis Set: CC-PVTZ
  Basis Set:
  Basis Set: CC-PVTZ
  Basis Set:
  @DF-RHF Final Energy:  -173.32755901606896
    Total Energy =                       -173.3275590160689887
  Basis Set: CC-PVTZ
  Basis Set:
  Basis Set: CC-PVTZ
  Basis Set:
  @DF-RHF Final Energy:  -173.32770531605834
    Total Energy =                       -173.3277053160584273
  Basis Set: CC-PVTZ
  Basis Set:
  Basis Set: CC-PVTZ
  Basis Set:
  @DF-RHF Final Energy:  -173.32771555978556
    Total Energy =                       -173.3277155597855881
  Basis Set: CC-PVTZ
  Basis Set:
  Charge       = 0
  Multiplicity = 1
  Basis Set: CC-PVTZ
  Basis Set:

    Orbital Energies (a.u.)
    -----------------------

    Doubly Occupied:

       1A    -15.534677     2A    -11.233995     3A    -11.233920
       4A    -11.233745     5A     -1.220989     6A     -0.952014
       7A     -0.951954     8A     -0.806337     9A     -0.638428
      10A     -0.629445    11A     -0.628054    12A     -0.550026
      13A     -0.546874    14A     -0.514227    15A     -0.502059
      16A     -0.500951    17A     -0.340375

  @DF-RHF Final Energy:  -173.32771704796130

   => Energetics <=

    Nuclear Repulsion Energy =            138.9097204149466052
    One-Electron Energy =                -508.4387307235734852
    Two-Electron Energy =                 196.2012932606655511
    DFT Exchange-Correlation Energy =       0.0000000000000000
    Empirical Dispersion Energy =           0.0000000000000000
    PCM Polarization Energy =               0.0000000000000000
    EFP Energy =                            0.0000000000000000
    Total Energy =                       -173.3277170479613289
    Molecular point group: c1
  Basis Set: CC-PVTZ
  Basis Set:

  -Total Gradient:
     Atom            X                  Y                   Z
    ------   -----------------  -----------------  -----------------
       1        0.000876875778     0.000163334214    -0.001371403956
       2       -0.001303082115     0.000016724244     0.001369530989
       3        0.000989238645    -0.000604962532     0.001034780934
       4       -0.000010626267    -0.000007696609    -0.000009812024
       5        0.000008448688    -0.000014523470    -0.000000474941
       6       -0.000554612618     0.000467622513    -0.001029820694
       7       -0.000002073232     0.000034693215    -0.000001004245
       8        0.000008738256    -0.000009003082    -0.000006469961
       9        0.000016933932    -0.000014625421    -0.000011378648
      10       -0.000010104926    -0.000002413192     0.000002062138
      11       -0.000009665857    -0.000015258809     0.000020740418
      12       -0.000006750841    -0.000014713495     0.000014624067
      13       -0.000003319445     0.000000822423    -0.000011374076

  **** Optimization is complete! (in 5 steps) ****
    Final optimized geometry and variables:
    Molecular point group: c1

    Geometry (in Angstrom), charge = 0, multiplicity = 1:

    H           -0.674283884242     2.083262930445    -0.153800369162
    C            0.072214902610     1.386949804119     0.213742465878
    N           -0.238753767945     0.023302938439    -0.181652966970
    H            1.029141036964     1.700395331557    -0.187874230554
    H            0.132043725246     1.492287290208     1.292843725239
    C            0.780411017457    -0.597353265537    -0.989796314402
    C           -0.676213594841    -0.806446087038     0.911774198955
    H            0.435447114041    -1.562912834353    -1.338677825536
    H            0.986866933474     0.012005010895    -1.860345710836
    H            1.722713411151    -0.751736291938    -0.454441315224
    H           -1.512526810606    -0.341732003353     1.418984591392
    H           -1.010576565838    -1.766284583479     0.537795782081
    H            0.107992185373    -0.988439352080     1.653466341502

  Mulliken Charges: (a.u.)
   Center  Symbol    Alpha    Beta     Spin     Total
       1     H     0.45135  0.45135  0.00000  0.09730
       2     C     3.08493  3.08493  0.00000 -0.16987
       3     N     3.59896  3.59896  0.00000 -0.19792
       4     H     0.46112  0.46112  0.00000  0.07777
       5     H     0.46375  0.46375  0.00000  0.07250
       6     C     3.09005  3.09005  0.00000 -0.18011
       7     C     3.09043  3.09043  0.00000 -0.18086
       8     H     0.45375  0.45375  0.00000  0.09250
       9     H     0.45234  0.45234  0.00000  0.09532
      10     H     0.47365  0.47365  0.00000  0.05271
      11     H     0.45220  0.45220  0.00000  0.09561
      12     H     0.45383  0.45383  0.00000  0.09235
      13     H     0.47365  0.47365  0.00000  0.05270

   Total alpha = 17.00000, Total beta = 17.00000, Total charge = -0.00000
