                              Psi4 1.0.54 Driver

  ==> Input File <==

--------------------------------------------------------------------------
set {
	reference rhf
	basis cc-pvtz
}

set_num_threads( 4 )
memory 2 gb

molecule MOL {
0 1

H	 3.113576	 -1.057986	 2.085089
O	 2.458186	 -1.229504	 1.425740
C	 1.699787	 -0.144553	 1.294795
C	 0.626018	 -0.337582	 0.258241
O	 1.883537	 0.831380	 1.936380
C	 -0.267326	 0.883135	 0.076490
H	 1.126350	 -0.617637	 -0.661050
H	 0.047735	 -1.205994	 0.558044
C	 -1.726822	 0.642622	 0.463839
H	 -0.210803	 1.217591	 -0.953497
H	 0.129920	 1.693110	 0.675679
C	 -2.480891	 -0.340606	 -0.429852
H	 -2.243098	 1.597649	 0.438609
H	 -1.776542	 0.301208	 1.495542
C	 -3.955933	 -0.460128	 -0.060472
H	 -2.393755	 -0.020485	 -1.464726
H	 -2.024244	 -1.323637	 -0.374360
H	 -4.467673	 -1.160944	 -0.709827
H	 -4.458917	 0.497287	 -0.144505
H	 -4.076458	 -0.806900	 0.960497

	symmetry c1
}
set optking {
	frozen_dihedral = ("
		7 4 6 10
	")
}

ee,wfn = optimize('scf', return_wfn=True)
oeprop( wfn, 'DIPOLE', 'QUADRUPOLE', 'MULLIKEN_CHARGES')
f=open( 'psi4out.xyz', 'w' )
f.write( "20  " )
f.write( str(ee) + "\n" )
f.write( MOL.save_string_xyz() )
f.close()
--------------------------------------------------------------------------

    Molecular point group: c1
  Charge       = 0
  Multiplicity = 1
  Basis Set: CC-PVTZ
  Basis Set:
  @DF-RHF Final Energy:  -384.09039194558488
    Total Energy =                       -384.0903919455848836
    Molecular point group: c1
  Basis Set: CC-PVTZ
  Basis Set:
  Basis Set: CC-PVTZ
  Basis Set:
  @DF-RHF Final Energy:  -384.09070442342329
    Total Energy =                       -384.0907044234237446
  Basis Set: CC-PVTZ
  Basis Set:
  Basis Set: CC-PVTZ
  Basis Set:
  @DF-RHF Final Energy:  -384.09085824283380
    Total Energy =                       -384.0908582428335762
  Basis Set: CC-PVTZ
  Basis Set:
  Basis Set: CC-PVTZ
  Basis Set:
  @DF-RHF Final Energy:  -384.09082342406026
    Total Energy =                       -384.0908234240599768
  Basis Set: CC-PVTZ
  Basis Set:
  Basis Set: CC-PVTZ
  Basis Set:
  @DF-RHF Final Energy:  -384.09085635683419
    Total Energy =                       -384.0908563568337968
  Basis Set: CC-PVTZ
  Basis Set:
  Basis Set: CC-PVTZ
  Basis Set:
  @DF-RHF Final Energy:  -384.09086470158633
    Total Energy =                       -384.0908647015861561
  Basis Set: CC-PVTZ
  Basis Set:
  Basis Set: CC-PVTZ
  Basis Set:
  @DF-RHF Final Energy:  -384.09086604276808
    Total Energy =                       -384.0908660427680843
  Basis Set: CC-PVTZ
  Basis Set:
  Charge       = 0
  Multiplicity = 1
  Basis Set: CC-PVTZ
  Basis Set:

    Orbital Energies (a.u.)
    -----------------------

    Doubly Occupied:

       1A    -20.604265     2A    -20.541455     3A    -11.374381
       4A    -11.238960     5A    -11.219227     6A    -11.217779
       7A    -11.216752     8A    -11.209790     9A     -1.478282
      10A     -1.369672    11A     -1.095369    12A     -1.040717
      13A     -0.962127    14A     -0.870694    15A     -0.817245
      16A     -0.777487    17A     -0.705269    18A     -0.694372
      19A     -0.664571    20A     -0.637569    21A     -0.603263
      22A     -0.594657    23A     -0.574571    24A     -0.557430
      25A     -0.542195    26A     -0.508014    27A     -0.500094
      28A     -0.485295    29A     -0.467436    30A     -0.465797
      31A     -0.456702    32A     -0.449358

  @DF-RHF Final Energy:  -384.09086635190806

   => Energetics <=

    Nuclear Repulsion Energy =            378.0927153954380628
    One-Electron Energy =               -1272.4855695421006203
    Two-Electron Energy =                 510.3019877947547229
    DFT Exchange-Correlation Energy =       0.0000000000000000
    Empirical Dispersion Energy =           0.0000000000000000
    PCM Polarization Energy =               0.0000000000000000
    EFP Energy =                            0.0000000000000000
    Total Energy =                       -384.0908663519078345
    Molecular point group: c1
  Basis Set: CC-PVTZ
  Basis Set:

  -Total Gradient:
     Atom            X                  Y                   Z
    ------   -----------------  -----------------  -----------------
       1        0.000015296779    -0.000007807465     0.000002888014
       2        0.000002697646     0.000000633443     0.000017257488
       3       -0.000028920214     0.000024106911    -0.000007438182
       4        0.000477936924     0.000395264769     0.000173459371
       5        0.000016650505    -0.000013406515    -0.000015580858
       6       -0.000516797124    -0.000381605860    -0.000153080460
       7       -0.000333605363    -0.000256333707    -0.000099833332
       8        0.000010126312    -0.000001596387    -0.000012501572
       9        0.000003267093    -0.000013337575     0.000005289774
      10        0.000344034540     0.000258783593     0.000085532571
      11        0.000006669918    -0.000002303717    -0.000002935624
      12        0.000001813160    -0.000009221085     0.000020382103
      13        0.000005270279     0.000002115643     0.000006402381
      14       -0.000002395071    -0.000007355079     0.000002621012
      15       -0.000000054878     0.000010844283    -0.000015961315
      16       -0.000002951599    -0.000000251133     0.000001069068
      17        0.000004540143    -0.000001921130    -0.000005404206
      18       -0.000003661125    -0.000000082060    -0.000001029283
      19       -0.000007435702     0.000003068295     0.000001263563
      20        0.000007517770     0.000000404778    -0.000002400508

  **** Optimization is complete! (in 8 steps) ****
    Final optimized geometry and variables:
    Molecular point group: c1

    Geometry (in Angstrom), charge = 0, multiplicity = 1:

    H            3.292575025552    -1.065629191799     1.451053344823
    O            2.630194896768    -1.228497730321     0.796569713459
    C            1.890388950055    -0.130825812498     0.664849008859
    C            0.804201996146    -0.324170228748    -0.362538945155
    O            2.097899948650     0.843783845434     1.301102657707
    C           -0.079220662767     0.909553706424    -0.598384806854
    H            1.293965256255    -0.656456686969    -1.269946869439
    H            0.226127456728    -1.176882404050    -0.024949699065
    C           -1.544728551320     0.717062653548    -0.205204808482
    H           -0.025371607877     1.193366748885    -1.643796319093
    H            0.330436205931     1.735662279858    -0.035501732520
    C           -2.324203537700    -0.233678186566    -1.111441638609
    H           -2.034047876495     1.686461806321    -0.217447683599
    H           -1.596931990791     0.366389300114     0.823024204210
    C           -3.779774471267    -0.399233785049    -0.687008440194
    H           -2.286617843770     0.140336562979    -2.131137397471
    H           -1.847320004230    -1.209310379450    -1.129605822246
    H           -4.309709818076    -1.069701966231    -1.353674167274
    H           -4.299478605637     0.552980940510    -0.693419658069
    H           -3.850849732343    -0.805836476566     0.316305754407

  Mulliken Charges: (a.u.)
   Center  Symbol    Alpha    Beta     Spin     Total
       1     H     0.38260  0.38260  0.00000  0.23480
       2     O     4.15975  4.15975  0.00000 -0.31949
       3     C     2.80157  2.80157  0.00000  0.39686
       4     C     3.11970  3.11970  0.00000 -0.23940
       5     O     4.19071  4.19071  0.00000 -0.38142
       6     C     3.10670  3.10670  0.00000 -0.21340
       7     H     0.42909  0.42909  0.00000  0.14181
       8     H     0.43629  0.43629  0.00000  0.12743
       9     C     3.09782  3.09782  0.00000 -0.19564
      10     H     0.44734  0.44734  0.00000  0.10532
      11     H     0.43029  0.43029  0.00000  0.13942
      12     C     3.08614  3.08614  0.00000 -0.17228
      13     H     0.44650  0.44650  0.00000  0.10700
      14     H     0.45176  0.45176  0.00000  0.09649
      15     C     3.14973  3.14973  0.00000 -0.29947
      16     H     0.45335  0.45335  0.00000  0.09329
      17     H     0.45434  0.45434  0.00000  0.09132
      18     H     0.44793  0.44793  0.00000  0.10413
      19     H     0.45372  0.45372  0.00000  0.09257
      20     H     0.45467  0.45467  0.00000  0.09066

   Total alpha = 32.00000, Total beta = 32.00000, Total charge =  0.00000

*** Psi4 exiting successfully. Buy a developer a beer!
