  ==> Input File <==

--------------------------------------------------------------------------
set {
	reference rhf
	basis 6-31G*
}

set_num_threads( 1 )
memory 2 gb

molecule MOL {
0 1

H	 1.167217	 2.146376	 3.105815
O	 2.104130	 2.038289	 3.031093
C	 2.436390	 0.679845	 3.166324
C	 2.054126	 -0.156454	 1.950099
H	 3.509343	 0.651845	 3.306547
H	 1.982125	 0.264075	 4.064966
C	 0.547372	 -0.222665	 1.688993
H	 2.557992	 0.252544	 1.078200
H	 2.440432	 -1.163804	 2.096320
C	 0.192759	 -1.113011	 0.494692
H	 0.170229	 0.781675	 1.517442
H	 0.042035	 -0.599907	 2.578186
C	 -1.309753	 -1.282496	 0.241564
H	 0.666004	 -0.715349	 -0.401272
H	 0.627910	 -2.097138	 0.655431
C	 -2.037799	 -0.007733	 -0.193645
H	 -1.443230	 -2.038352	 -0.529592
H	 -1.782740	 -1.679763	 1.138391
C	 -3.489788	 0.042957	 0.286558
H	 -2.017067	 0.064384	 -1.280144
H	 -1.513726	 0.868678	 0.179924
C	 -4.216917	 1.317354	 -0.141063
H	 -4.025645	 -0.823308	 -0.095450
H	 -3.513059	 -0.038752	 1.371301
H	 -4.239342	 1.411634	 -1.223113
H	 -5.243387	 1.322503	 0.212445
H	 -3.726170	 2.201406	 0.256408

	symmetry c1
}
set optking {
	frozen_dihedral = ("
		14 10 7 4,
		14 10 13 16,
		10 7 4 8,
		8 4 3 2,
		20 16 19 22,
		4 3 2 1
	")
}

ee = energy('scf')
oeprop('DIPOLE', 'QUADRUPOLE', 'MULLIKEN_CHARGES')
f=open( 'psi4out.xyz', 'w' )
f.write( "27  " )
f.write( str(ee) + "\n" )
f.write( MOL.save_string_xyz() )
f.close()
--------------------------------------------------------------------------

    Molecular point group: c1

    Geometry (in Angstrom), charge = 0, multiplicity = 1:

       Center              X                  Y                   Z               Mass
    ------------   -----------------  -----------------  -----------------  -----------------
           H          1.556665962228     1.958027332290     1.902631217628     1.007825032070
           O          2.493578962228     1.849940332290     1.827909217628    15.994914619560
           C          2.825838962228     0.491496332290     1.963140217628    12.000000000000
           C          2.443574962228    -0.344802667710     0.746915217628    12.000000000000
           H          3.898791962228     0.463496332290     2.103363217628     1.007825032070
           H          2.371573962228     0.075726332290     2.861782217628     1.007825032070
           C          0.936820962228    -0.411013667710     0.485809217628    12.000000000000
           H          2.947440962228     0.064195332290    -0.124983782372     1.007825032070
           H          2.829880962228    -1.352152667710     0.893136217628     1.007825032070
           C          0.582207962228    -1.301359667710    -0.708491782372    12.000000000000
           H          0.559677962228     0.593326332290     0.314258217628     1.007825032070
           H          0.431483962228    -0.788255667710     1.375002217628     1.007825032070
           C         -0.920304037772    -1.470844667710    -0.961619782372    12.000000000000
           H          1.055452962228    -0.903697667710    -1.604455782372     1.007825032070
           H          1.017358962228    -2.285486667710    -0.547752782372     1.007825032070
           C         -1.648350037772    -0.196081667710    -1.396828782372    12.000000000000
           H         -1.053781037772    -2.226700667710    -1.732775782372     1.007825032070
           H         -1.393291037772    -1.868111667710    -0.064792782372     1.007825032070
           C         -3.100339037772    -0.145391667710    -0.916625782372    12.000000000000
           H         -1.627618037772    -0.123964667710    -2.483327782372     1.007825032070
           H         -1.124277037772     0.680329332290    -1.023259782372     1.007825032070
           C         -3.827468037772     1.129005332290    -1.344246782372    12.000000000000
           H         -3.636196037772    -1.011656667710    -1.298633782372     1.007825032070
           H         -3.123610037772    -0.227100667710     0.168117217628     1.007825032070
           H         -3.849893037772     1.223285332290    -2.426296782372     1.007825032070
           H         -4.853938037772     1.134154332290    -0.990738782372     1.007825032070
           H         -3.336721037772     2.013057332290    -0.946775782372     1.007825032070

  Charge       = 0
  Multiplicity = 1
  Basis Set: 6-31G*
  Basis Set:

    Orbital Energies (a.u.)
    -----------------------

    Doubly Occupied:

       1A    -20.552552     2A    -11.267270     3A    -11.220066
       4A    -11.217462     5A    -11.216502     6A    -11.215525
       7A    -11.214832     8A    -11.213267     9A    -11.209353
      10A     -1.359284    11A     -1.095594    12A     -1.061466
      13A     -1.011554    14A     -0.948632    15A     -0.888371
      16A     -0.820947    17A     -0.800770    18A     -0.778760
      19A     -0.693919    20A     -0.646339    21A     -0.645118
      22A     -0.613273    23A     -0.598714    24A     -0.584991
      25A     -0.580167    26A     -0.554292    27A     -0.545535
      28A     -0.526457    29A     -0.504627    30A     -0.493322
      31A     -0.487645    32A     -0.477622    33A     -0.467586
      34A     -0.459548    35A     -0.449974    36A     -0.441048
      37A     -0.423628

  @DF-RHF Final Energy:  -388.27826092392831

   => Energetics <=

    Nuclear Repulsion Energy =            462.6658840475531633
    One-Electron Energy =               -1443.3167390957116822
    Two-Electron Energy =                 592.3725941242294084
    DFT Exchange-Correlation Energy =       0.0000000000000000
    Empirical Dispersion Energy =           0.0000000000000000
    PCM Polarization Energy =               0.0000000000000000
    EFP Energy =                            0.0000000000000000
    Total Energy =                       -388.2782609239291105

  Mulliken Charges: (a.u.)
   Center  Symbol    Alpha    Beta     Spin     Total
       1     H     0.27983  0.27983  0.00000  0.44033
       2     O     4.37092  4.37092  0.00000 -0.74184
       3     C     2.99744  2.99744  0.00000  0.00512
       4     C     3.16073  3.16073  0.00000 -0.32145
       5     H     0.41436  0.41436  0.00000  0.17127
       6     H     0.43198  0.43198  0.00000  0.13604
       7     C     3.16293  3.16293  0.00000 -0.32585
       8     H     0.41492  0.41492  0.00000  0.17017
       9     H     0.42416  0.42416  0.00000  0.15168
      10     C     3.15293  3.15293  0.00000 -0.30585
      11     H     0.42371  0.42371  0.00000  0.15257
      12     H     0.42539  0.42539  0.00000  0.14923
      13     C     3.15543  3.15543  0.00000 -0.31085
      14     H     0.42162  0.42162  0.00000  0.15676
      15     H     0.42167  0.42167  0.00000  0.15665
      16     C     3.15373  3.15373  0.00000 -0.30746
      17     H     0.41963  0.41963  0.00000  0.16073
      18     H     0.42318  0.42318  0.00000  0.15363
      19     C     3.15264  3.15264  0.00000 -0.30529
      20     H     0.42141  0.42141  0.00000  0.15718
      21     H     0.42247  0.42247  0.00000  0.15506
      22     C     3.23945  3.23945  0.00000 -0.47890
      23     H     0.42249  0.42249  0.00000  0.15502
      24     H     0.42383  0.42383  0.00000  0.15234
      25     H     0.42136  0.42136  0.00000  0.15727
      26     H     0.41939  0.41939  0.00000  0.16122
      27     H     0.42238  0.42238  0.00000  0.15524

   Total alpha = 37.00000, Total beta = 37.00000, Total charge =  0.00000
