                              Psi4 1.0.54 Driver

  ==> Input File <==

--------------------------------------------------------------------------
set {
	reference rhf
	basis cc-pvtz
}

set_num_threads( 4 )
memory 2 gb

molecule MOL {
0 1

H	 2.090483	 0.067670	 -0.368889
C	 1.189450	 -0.484952	 -0.209887
C	 1.181968	 -1.865052	 -0.208593
C	 0.000000	 0.179985	 0.000046
H	 2.096539	 -2.400793	 -0.370013
C	 0.000001	 -2.552036	 -0.000007
N	 0.000000	 1.644631	 0.000076
C	 -1.189451	 -0.484961	 0.209950
H	 0.000000	 -3.625035	 -0.000032
C	 -1.181968	 -1.865061	 0.208603
O	 1.050559	 2.194174	 -0.000073
O	 -1.050559	 2.194174	 -0.000074
H	 -2.090481	 0.067655	 0.368983
H	 -2.096540	 -2.400808	 0.369997

	symmetry c1
}
set optking {
	frozen_dihedral = ("
		2 4 7 11
	")
}

ee,wfn = optimize('scf', return_wfn=True)
oeprop( wfn, 'DIPOLE', 'QUADRUPOLE', 'MULLIKEN_CHARGES')
f=open( 'psi4out.xyz', 'w' )
f.write( "14  " )
f.write( str(ee) + "\n" )
f.write( MOL.save_string_xyz() )
f.close()
--------------------------------------------------------------------------

    Molecular point group: c1
  Charge       = 0
  Multiplicity = 1
  Basis Set: CC-PVTZ
  Basis Set:
  @DF-RHF Final Energy:  -434.32992097830316
    Total Energy =                       -434.3299209783029937
    Molecular point group: c1
  Basis Set: CC-PVTZ
  Basis Set:
  Basis Set: CC-PVTZ
  Basis Set:
  @DF-RHF Final Energy:  -434.32817362779997
    Total Energy =                       -434.3281736277999698
  Basis Set: CC-PVTZ
  Basis Set:
  Basis Set: CC-PVTZ
  Basis Set:
  @DF-RHF Final Energy:  -434.32982680696489
    Total Energy =                       -434.3298268069644337
  Basis Set: CC-PVTZ
  Basis Set:
  Basis Set: CC-PVTZ
  Basis Set:
  @DF-RHF Final Energy:  -434.32993437060429
    Total Energy =                       -434.3299343706042919
  Basis Set: CC-PVTZ
  Basis Set:
  Basis Set: CC-PVTZ
  Basis Set:
  @DF-RHF Final Energy:  -434.32993553753823
    Total Energy =                       -434.3299355375385176
  Basis Set: CC-PVTZ
  Basis Set:
  Charge       = 0
  Multiplicity = 1
  Basis Set: CC-PVTZ
  Basis Set:

    Orbital Energies (a.u.)
    -----------------------

    Doubly Occupied:

       1A    -20.591848     2A    -20.591791     3A    -15.847742
       4A    -11.302498     5A    -11.267251     6A    -11.267205
       7A    -11.264737     8A    -11.258268     9A    -11.258131
      10A     -1.641231    11A     -1.423612    12A     -1.204599
      13A     -1.095744    14A     -1.055093    15A     -0.959468
      16A     -0.867259    17A     -0.829008    18A     -0.789380
      19A     -0.740758    20A     -0.735322    21A     -0.711714
      22A     -0.659644    23A     -0.651969    24A     -0.626430
      25A     -0.555413    26A     -0.541040    27A     -0.531378
      28A     -0.492395    29A     -0.491611    30A     -0.457596
      31A     -0.377582    32A     -0.369335

  @DF-RHF Final Energy:  -434.32993631167585

   => Energetics <=

    Nuclear Repulsion Energy =            418.2254402418926702
    One-Electron Energy =               -1420.1966512584413067
    Two-Electron Energy =                 567.6412747048727852
    DFT Exchange-Correlation Energy =       0.0000000000000000
    Empirical Dispersion Energy =           0.0000000000000000
    PCM Polarization Energy =               0.0000000000000000
    EFP Energy =                            0.0000000000000000
    Total Energy =                       -434.3299363116758514
    Molecular point group: c1
  Basis Set: CC-PVTZ
  Basis Set:

  -Total Gradient:
     Atom            X                  Y                   Z
    ------   -----------------  -----------------  -----------------
       1       -0.000004841449    -0.000005273128     0.000001358470
       2       -0.000134624422    -0.000003409019    -0.000769489188
       3        0.000001348604    -0.000001553925     0.000000422191
       4        0.000197455956    -0.000004817788     0.001439152160
       5       -0.000000134023     0.000000133723    -0.000000354074
       6        0.000000158453    -0.000000570514     0.000004909170
       7       -0.000056691539     0.000023621838    -0.001579642837
       8        0.000007979101    -0.000000177914     0.000005299387
       9       -0.000001534643     0.000000091674    -0.000000717747
      10       -0.000001635547     0.000000494705    -0.000003762817
      11        0.000001785931     0.000007102903     0.000901575316
      12       -0.000005113595    -0.000018698029    -0.000000809592
      13       -0.000003302686     0.000003393546     0.000002012185
      14       -0.000000850136    -0.000000338076     0.000000047376

  **** Optimization is complete! (in 6 steps) ****
    Final optimized geometry and variables:
    Molecular point group: c1

    Geometry (in Angstrom), charge = 0, multiplicity = 1:

    H            2.089346173323     0.068859068874    -0.375122453386
    C            1.187898459291    -0.484178735177    -0.219335171111
    C            1.177044780148    -1.864125580055    -0.237491768265
    C            0.001212384342     0.179904072204     0.006528283901
    H            2.088709182269    -2.399756379963    -0.414834037608
    C           -0.004581131922    -2.551121888353    -0.027354906863
    N            0.002848349591     1.643994744502     0.015605995975
    C           -1.189257086352    -0.484439285469     0.210673757520
    H           -0.006743830306    -3.624012182461    -0.039858860072
    C           -1.183689529988    -1.864462938837     0.197605737745
    O            1.054366502584     2.191848484898     0.008407433202
    O           -1.047337584452     2.194038852811     0.035880357358
    H           -2.089157585482     0.068405659092     0.375779868372
    H           -2.097878000251    -2.400431927584     0.360346065022

  Mulliken Charges: (a.u.)
   Center  Symbol    Alpha    Beta     Spin     Total
       1     H     0.39947  0.39947  0.00000  0.20106
       2     C     3.07745  3.07745  0.00000 -0.15489
       3     C     3.07219  3.07219  0.00000 -0.14439
       4     C     2.97886  2.97886  0.00000  0.04229
       5     H     0.41694  0.41694  0.00000  0.16612
       6     C     3.06468  3.06468  0.00000 -0.12936
       7     N     3.25406  3.25406  0.00000  0.49189
       8     C     3.07734  3.07734  0.00000 -0.15467
       9     H     0.41709  0.41709  0.00000  0.16582
      10     C     3.07213  3.07213  0.00000 -0.14427
      11     O     4.17665  4.17665  0.00000 -0.35331
      12     O     4.17672  4.17672  0.00000 -0.35343
      13     H     0.39948  0.39948  0.00000  0.20103
      14     H     0.41694  0.41694  0.00000  0.16611

   Total alpha = 32.00000, Total beta = 32.00000, Total charge =  0.00000

*** Psi4 exiting successfully. Buy a developer a beer!
