  ==> Input File <==

--------------------------------------------------------------------------
set {
	reference rhf
	basis 6-31G*
}

set_num_threads( 4 )
memory 2 gb

molecule MOL {
0 1

H	 0.498662	 1.743440	 0.808382
C	 0.216815	 0.732432	 1.083637
N	 -0.528168	 0.128977	 -0.000000
H	 -0.408956	 0.793054	 1.966683
H	 1.130363	 0.192589	 1.346824
C	 0.248044	 -0.037491	 -1.209632
H	 -0.893249	 -0.755599	 0.292008
H	 0.998722	 0.743888	 -1.266824
H	 -0.398417	 0.061950	 -2.074060
H	 0.763621	 -0.999315	 -1.275517

	symmetry c1
}
set optking {
	frozen_dihedral = ("
		2 3 6 8
	")
}

ee = optimize('scf')
oeprop('DIPOLE', 'QUADRUPOLE', 'MULLIKEN_CHARGES')
f=open( 'psi4out.xyz', 'w' )
f.write( "10  " )
f.write( str(ee) + "\n" )
f.write( MOL.save_string_xyz() )
f.close()
--------------------------------------------------------------------------

    Molecular point group: c1
  Charge       = 0
  Multiplicity = 1
  Basis Set: 6-31G*
  Basis Set:
  @DF-RHF Final Energy:  -134.23530141476425
    Total Energy =                       -134.2353014147643648
    Molecular point group: c1
  Basis Set: 6-31G*
  Basis Set:
  Basis Set: 6-31G*
  Basis Set:
  @DF-RHF Final Energy:  -134.23562586967623
    Total Energy =                       -134.2356258696763120
  Basis Set: 6-31G*
  Basis Set:
  Basis Set: 6-31G*
  Basis Set:
  @DF-RHF Final Energy:  -134.23568645345662
    Total Energy =                       -134.2356864534566228
  Basis Set: 6-31G*
  Basis Set:
  Basis Set: 6-31G*
  Basis Set:
  @DF-RHF Final Energy:  -134.23568974407934
    Total Energy =                       -134.2356897440792523
  Basis Set: 6-31G*
  Basis Set:
  Charge       = 0
  Multiplicity = 1
  Basis Set: 6-31G*
  Basis Set:

    Orbital Energies (a.u.)
    -----------------------

    Doubly Occupied:

       1A    -15.534954     2A    -11.236208     3A    -11.235749
       4A     -1.195738     5A     -0.947666     6A     -0.854824
       7A     -0.661027     8A     -0.608375     9A     -0.589938
      10A     -0.541382    11A     -0.512974    12A     -0.508201
      13A     -0.354908

  @DF-RHF Final Energy:  -134.23569005122602

   => Energetics <=

    Nuclear Repulsion Energy =             84.4865020489135219
    One-Electron Energy =                -347.8804982752260457
    Two-Electron Energy =                 129.1583061750865511
    DFT Exchange-Correlation Energy =       0.0000000000000000
    Empirical Dispersion Energy =           0.0000000000000000
    PCM Polarization Energy =               0.0000000000000000
    EFP Energy =                            0.0000000000000000
    Total Energy =                       -134.2356900512259870
    Molecular point group: c1
  Basis Set: 6-31G*
  Basis Set:

  -Total Gradient:
     Atom            X                  Y                   Z
    ------   -----------------  -----------------  -----------------
       1        0.000008415938     0.000009370611     0.000013570254
       2       -0.000908256585     0.002853393142    -0.000954151887
       3        0.001938368075    -0.004637003342     0.001830467078
       4        0.000009611828    -0.000001490137    -0.000005193018
       5       -0.000006138697    -0.000000272728     0.000004440245
       6       -0.003684539368     0.004153203002    -0.002851237275
       7       -0.000010883046    -0.000013348110    -0.000003589921
       8        0.002631499005    -0.002340232922     0.001929005701
       9        0.000010033400    -0.000003223395     0.000026776561
      10        0.000011889449    -0.000020396121     0.000009912262

  **** Optimization is complete! (in 5 steps) ****
    Final optimized geometry and variables:
    Molecular point group: c1

    Geometry (in Angstrom), charge = 0, multiplicity = 1:

    H            0.501730306459     1.477283968476     0.865524341390
    C            0.221129383106     0.464391091276     1.132941256379
    N           -0.513532812579    -0.135210149910     0.041565095102
    H           -0.416423208719     0.520443948022     2.007986391815
    H            1.132304503363    -0.071985949462     1.412165070824
    C            0.239733450476    -0.299983408773    -1.186580973830
    H           -0.925897469153    -1.000409677157     0.323398930538
    H            0.988730953990     0.480272148821    -1.260099169420
    H           -0.413100486746    -0.237439187826    -2.050139409967
    H            0.780445366911    -1.247082178031    -1.237677219134

  Mulliken Charges: (a.u.)
   Center  Symbol    Alpha    Beta     Spin     Total
       1     H     0.41786  0.41786  0.00000  0.16427
       2     C     3.14253  3.14253  0.00000 -0.28505
       3     N     3.84460  3.84460  0.00000 -0.68920
       4     H     0.41776  0.41776  0.00000  0.16447
       5     H     0.43535  0.43535  0.00000  0.12930
       6     C     3.14316  3.14316  0.00000 -0.28632
       7     H     0.33118  0.33118  0.00000  0.33763
       8     H     0.42002  0.42002  0.00000  0.15996
       9     H     0.41562  0.41562  0.00000  0.16877
      10     H     0.43192  0.43192  0.00000  0.13617

   Total alpha = 13.00000, Total beta = 13.00000, Total charge = -0.00000
