                              Psi4 1.0.54 Driver

  ==> Input File <==

--------------------------------------------------------------------------
set {
	reference rhf
	basis cc-pvtz
}

set_num_threads( 4 )
memory 2 gb

molecule MOL {
0 1

H	 2.663444	 0.174469	 1.055113
C	 1.948180	 -0.217873	 0.320185
C	 0.692262	 0.592428	 0.156232
O	 2.193037	 -1.212058	 -0.270809
C	 -0.554654	 -0.292621	 0.086567
H	 0.791858	 1.203694	 -0.731051
H	 0.617379	 1.254358	 1.016534
C	 -1.846385	 0.513195	 -0.016346
H	 -0.473986	 -0.956115	 -0.769708
H	 -0.597929	 -0.929215	 0.966651
C	 -3.089953	 -0.365049	 -0.098564
H	 -1.798267	 1.154820	 -0.891143
H	 -1.925398	 1.173265	 0.842889
H	 -3.055079	 -1.012299	 -0.968245
H	 -3.988403	 0.236438	 -0.170014
H	 -3.183055	 -0.995885	 0.779079

	symmetry c1
}
set optking {
	frozen_dihedral = ("
		4 2 3 6
	")
}

ee,wfn = optimize('scf', return_wfn=True)
oeprop( wfn, 'DIPOLE', 'QUADRUPOLE', 'MULLIKEN_CHARGES')
f=open( 'psi4out.xyz', 'w' )
f.write( "16  " )
f.write( str(ee) + "\n" )
f.write( MOL.save_string_xyz() )
f.close()
--------------------------------------------------------------------------

    Molecular point group: c1
  Charge       = 0
  Multiplicity = 1
  Basis Set: CC-PVTZ
  Basis Set:
  @DF-RHF Final Energy:  -270.11737317687414
    Total Energy =                       -270.1173731768743096
    Molecular point group: c1
  Basis Set: CC-PVTZ
  Basis Set:
  Basis Set: CC-PVTZ
  Basis Set:
  @DF-RHF Final Energy:  -270.11729441947080
    Total Energy =                       -270.1172944194704542
  Basis Set: CC-PVTZ
  Basis Set:
  Basis Set: CC-PVTZ
  Basis Set:
  @DF-RHF Final Energy:  -270.11770379547789
    Total Energy =                       -270.1177037954778939
  Basis Set: CC-PVTZ
  Basis Set:
  Basis Set: CC-PVTZ
  Basis Set:
  @DF-RHF Final Energy:  -270.11802498795464
    Total Energy =                       -270.1180249879546409
  Basis Set: CC-PVTZ
  Basis Set:
  Basis Set: CC-PVTZ
  Basis Set:
  @DF-RHF Final Energy:  -270.11810079872680
    Total Energy =                       -270.1181007987269709
  Basis Set: CC-PVTZ
  Basis Set:
  Basis Set: CC-PVTZ
  Basis Set:
  @DF-RHF Final Energy:  -270.11810402457377
    Total Energy =                       -270.1181040245734835
  Basis Set: CC-PVTZ
  Basis Set:
  Charge       = 0
  Multiplicity = 1
  Basis Set: CC-PVTZ
  Basis Set:

    Orbital Energies (a.u.)
    -----------------------

    Doubly Occupied:

       1A    -20.552377     2A    -11.322821     3A    -11.235030
       4A    -11.223696     5A    -11.221798     6A    -11.211636
       7A     -1.408050     8A     -1.090793     9A     -1.015703
      10A     -0.907830    11A     -0.814188    12A     -0.776780
      13A     -0.682617    14A     -0.651031    15A     -0.632360
      16A     -0.600900    17A     -0.583303    18A     -0.543755
      19A     -0.528959    20A     -0.502845    21A     -0.483059
      22A     -0.479836    23A     -0.473576    24A     -0.411447

  @DF-RHF Final Energy:  -270.11810444781014

   => Energetics <=

    Nuclear Repulsion Energy =            231.7889844857681965
    One-Electron Energy =                -825.1053972878869445
    Two-Electron Energy =                 323.1983083543085513
    DFT Exchange-Correlation Energy =       0.0000000000000000
    Empirical Dispersion Energy =           0.0000000000000000
    PCM Polarization Energy =               0.0000000000000000
    EFP Energy =                            0.0000000000000000
    Total Energy =                       -270.1181044478101967
    Molecular point group: c1
  Basis Set: CC-PVTZ
  Basis Set:

  -Total Gradient:
     Atom            X                  Y                   Z
    ------   -----------------  -----------------  -----------------
       1       -0.000022846495    -0.000018540073    -0.000005270426
       2       -0.001053047913    -0.001934474214     0.001720551838
       3        0.001034968441     0.002089271223     0.000723298606
       4        0.000667037211     0.001241639034    -0.001309563424
       5       -0.000047544077     0.000007175717    -0.000024411941
       6       -0.000555004020    -0.001335220315    -0.001091545187
       7        0.000036272210    -0.000024485114    -0.000046348136
       8        0.000001747827    -0.000051188730     0.000029072385
       9       -0.000018181415     0.000055641292     0.000027957343
      10       -0.000020909214    -0.000010880670    -0.000001224518
      11       -0.000040335581     0.000005018853    -0.000024790503
      12        0.000015272307    -0.000008429919     0.000007521251
      13        0.000013984446    -0.000011682943    -0.000006242016
      14       -0.000007789303     0.000008503577     0.000017731346
      15       -0.000008588991    -0.000019231866    -0.000008798755
      16        0.000004964566     0.000006884145    -0.000007937864

  **** Optimization is complete! (in 7 steps) ****
    Final optimized geometry and variables:
    Molecular point group: c1

    Geometry (in Angstrom), charge = 0, multiplicity = 1:

    H            2.765402258220     0.558476409669     1.118106990319
    C            2.065236297589     0.117353718260     0.398912992291
    C            0.726543816317     0.804431492275     0.271544643622
    O            2.395420951863    -0.816246378899    -0.247297099343
    C           -0.439165233529    -0.163756270036     0.075693879256
    H            0.804911427983     1.455776731298    -0.596753481557
    H            0.567413547939     1.442264003333     1.134022316401
    C           -1.770327312862     0.551741608397    -0.133027253485
    H           -0.225287802509    -0.802209518812    -0.772224426321
    H           -0.511021337587    -0.816863261614     0.940911741101
    C           -2.937490358837    -0.411587446785    -0.320012738328
    H           -1.696086414643     1.200591885283    -1.001502961260
    H           -1.971042526296     1.200261139816     0.715595234841
    H           -2.780765389358    -1.052190649114    -1.181016918631
    H           -3.867388540998     0.124300580411    -0.470395763704
    H           -3.060207891341    -1.050497275177     0.548013000659

  Mulliken Charges: (a.u.)
   Center  Symbol    Alpha    Beta     Spin     Total
       1     H     0.45336  0.45336  0.00000  0.09328
       2     C     2.92117  2.92117  0.00000  0.15767
       3     C     3.08891  3.08891  0.00000 -0.17782
       4     O     4.16638  4.16638  0.00000 -0.33277
       5     C     3.08769  3.08769  0.00000 -0.17538
       6     H     0.44499  0.44499  0.00000  0.11001
       7     H     0.44745  0.44745  0.00000  0.10510
       8     C     3.08451  3.08451  0.00000 -0.16902
       9     H     0.44001  0.44001  0.00000  0.11998
      10     H     0.45194  0.45194  0.00000  0.09613
      11     C     3.14904  3.14904  0.00000 -0.29808
      12     H     0.45382  0.45382  0.00000  0.09236
      13     H     0.45531  0.45531  0.00000  0.08938
      14     H     0.45296  0.45296  0.00000  0.09407
      15     H     0.44805  0.44805  0.00000  0.10389
      16     H     0.45440  0.45440  0.00000  0.09120

   Total alpha = 24.00000, Total beta = 24.00000, Total charge = -0.00000

*** Psi4 exiting successfully. Buy a developer a beer!
