  ==> Input File <==

--------------------------------------------------------------------------
set {
	reference rhf
	basis 6-31G*
}

set_num_threads( 4 )
memory 2 gb

molecule MOL {
0 1

H	 1.042178	 2.397346	 0.683787
O	 1.314260	 1.510482	 0.876908
C	 0.709265	 0.639550	 -0.033818
C	 -0.793441	 0.596080	 0.058728
H	 1.115422	 -0.344072	 0.172885
H	 0.997161	 0.886467	 -1.055176
C	 -1.530462	 -0.493172	 -0.025500
H	 -1.268471	 1.554324	 0.202247
H	 -1.092586	 -1.461565	 -0.186463
H	 -2.602122	 -0.450675	 0.050101

	symmetry c1
}
set optking {
	frozen_dihedral = ("
		5 3 4 7
	")
}

ee = optimize('scf')
oeprop('DIPOLE', 'QUADRUPOLE', 'MULLIKEN_CHARGES')
f=open( 'psi4out.xyz', 'w' )
f.write( "10  " )
f.write( str(ee) + "\n" )
f.write( MOL.save_string_xyz() )
f.close()
--------------------------------------------------------------------------

    Molecular point group: c1
  Charge       = 0
  Multiplicity = 1
  Basis Set: 6-31G*
  Basis Set:
  @DF-RHF Final Energy:  -191.91406102190203
    Total Energy =                       -191.9140610219020857
    Molecular point group: c1
  Basis Set: 6-31G*
  Basis Set:
  Basis Set: 6-31G*
  Basis Set:
  @DF-RHF Final Energy:  -191.91445842450415
    Total Energy =                       -191.9144584245040619
  Basis Set: 6-31G*
  Basis Set:
  Basis Set: 6-31G*
  Basis Set:
  @DF-RHF Final Energy:  -191.91452492965169
    Total Energy =                       -191.9145249296516624
  Basis Set: 6-31G*
  Basis Set:
  Basis Set: 6-31G*
  Basis Set:
  @DF-RHF Final Energy:  -191.91453039514914
    Total Energy =                       -191.9145303951490575
  Basis Set: 6-31G*
  Basis Set:
  Basis Set: 6-31G*
  Basis Set:
  @DF-RHF Final Energy:  -191.91453145163285
    Total Energy =                       -191.9145314516327687
  Basis Set: 6-31G*
  Basis Set:
  Charge       = 0
  Multiplicity = 1
  Basis Set: 6-31G*
  Basis Set:

    Orbital Energies (a.u.)
    -----------------------

    Doubly Occupied:

       1A    -20.557992     2A    -11.277253     3A    -11.231805
       4A    -11.223225     5A     -1.365088     6A     -1.062478
       7A     -0.920030     8A     -0.778842     9A     -0.690519
      10A     -0.651406    11A     -0.620388    12A     -0.568597
      13A     -0.534645    14A     -0.498422    15A     -0.442261
      16A     -0.368305

  @DF-RHF Final Energy:  -191.91453153799145

   => Energetics <=

    Nuclear Repulsion Energy =            117.1002355026606381
    One-Electron Energy =                -492.4470238486551352
    Two-Electron Energy =                 183.4322568080030749
    DFT Exchange-Correlation Energy =       0.0000000000000000
    Empirical Dispersion Energy =           0.0000000000000000
    PCM Polarization Energy =               0.0000000000000000
    EFP Energy =                            0.0000000000000000
    Total Energy =                       -191.9145315379913939
    Molecular point group: c1
  Basis Set: 6-31G*
  Basis Set:

  -Total Gradient:
     Atom            X                  Y                   Z
    ------   -----------------  -----------------  -----------------
       1       -0.000008305285     0.000002625487    -0.000007188392
       2        0.000037003624     0.000010580459     0.000052382326
       3       -0.000198725944    -0.000291346367    -0.002321374910
       4        0.000164383824    -0.000167112197     0.002207491035
       5        0.000089904329     0.000300284189     0.001319357766
       6        0.000007592740    -0.000009770695     0.000000737358
       7       -0.000088099582     0.000161404846    -0.001249784315
       8        0.000002249585    -0.000003505329    -0.000002003093
       9       -0.000003712772     0.000000418411     0.000000685234
      10       -0.000002290518    -0.000003578803    -0.000000303012

  **** Optimization is complete! (in 6 steps) ****
    Final optimized geometry and variables:
    Molecular point group: c1

    Geometry (in Angstrom), charge = 0, multiplicity = 1:

    H            1.100238560444     1.783402949231     0.436157898820
    O            1.303139162146     0.884442838122     0.653678816506
    C            0.713981214683     0.025675879518    -0.289444571965
    C           -0.787361980557    -0.012136592544    -0.179738557194
    H            1.127241989795    -0.955032268091    -0.097706177566
    H            1.005140502262     0.317019059072    -1.297510764589
    C           -1.520034511922    -1.103658426653    -0.265965322876
    H           -1.272024381079     0.945443520143    -0.060663381355
    H           -1.076122204451    -2.078105094796    -0.381707409395
    H           -2.593715900319    -1.069615989943    -0.219640671439

  Mulliken Charges: (a.u.)
   Center  Symbol    Alpha    Beta     Spin     Total
       1     H     0.28239  0.28239  0.00000  0.43523
       2     O     4.36689  4.36689  0.00000 -0.73379
       3     C     3.01184  3.01184  0.00000 -0.02368
       4     C     3.07334  3.07334  0.00000 -0.14668
       5     H     0.40867  0.40867  0.00000  0.18265
       6     H     0.42326  0.42326  0.00000  0.15348
       7     C     3.19867  3.19867  0.00000 -0.39734
       8     H     0.41286  0.41286  0.00000  0.17427
       9     H     0.41240  0.41240  0.00000  0.17520
      10     H     0.40967  0.40967  0.00000  0.18065

   Total alpha = 16.00000, Total beta = 16.00000, Total charge = -0.00000
