  ==> Input File <==

--------------------------------------------------------------------------
set {
	reference rhf
	basis cc-pvtz
}

set_num_threads( 4 )
memory 2 gb

molecule MOL {
0 1

H	 2.744732	 0.052857	 -0.893424
N	 2.326826	 -0.066186	 0.000000
C	 0.934676	 -0.005420	 0.000000
H	 2.705149	 -0.853979	 0.472522
C	 0.226436	 -0.001077	 -1.195129
C	 0.226436	 -0.001077	 1.195129
H	 0.759091	 -0.011439	 -2.128123
C	 -1.153391	 0.009141	 -1.189028
H	 0.759091	 -0.011439	 2.128123
C	 -1.153391	 0.009141	 1.189028
H	 -1.680905	 0.012964	 -2.124348
C	 -1.857876	 0.014675	 0.000000
H	 -1.680905	 0.012964	 2.124348
H	 -2.930222	 0.022904	 0.000000

	symmetry c1
}
set optking {
	frozen_dihedral = ("
		1 2 3 5
	")
}

ee = optimize('scf')
oeprop('DIPOLE', 'QUADRUPOLE', 'MULLIKEN_CHARGES')
f=open( 'psi4out.xyz', 'w' )
f.write( "14  " )
f.write( str(ee) + "\n" )
f.write( MOL.save_string_xyz() )
f.close()
--------------------------------------------------------------------------

    Molecular point group: c1
  Charge       = 0
  Multiplicity = 1
  Basis Set: CC-PVTZ
  Basis Set:
  @DF-RHF Final Energy:  -285.83078030823702
    Total Energy =                       -285.8307803082372516
    Molecular point group: c1
  Basis Set: CC-PVTZ
  Basis Set:
  Basis Set: CC-PVTZ
  Basis Set:
  @DF-RHF Final Energy:  -285.83115112804461
    Total Energy =                       -285.8311511280447803
  Basis Set: CC-PVTZ
  Basis Set:
  Basis Set: CC-PVTZ
  Basis Set:
  @DF-RHF Final Energy:  -285.83121123259076
    Total Energy =                       -285.8312112325910448
  Basis Set: CC-PVTZ
  Basis Set:
  Basis Set: CC-PVTZ
  Basis Set:
  @DF-RHF Final Energy:  -285.83121437302395
    Total Energy =                       -285.8312143730238404
  Basis Set: CC-PVTZ
  Basis Set:
  Charge       = 0
  Multiplicity = 1
  Basis Set: CC-PVTZ
  Basis Set:

    Orbital Energies (a.u.)
    -----------------------

    Doubly Occupied:

       1A    -15.549771     2A    -11.267351     3A    -11.227136
       4A    -11.226626     5A    -11.217980     6A    -11.215935
       7A    -11.214771     8A     -1.220250     9A     -1.130441
      10A     -1.013731    11A     -0.988244    12A     -0.831566
      13A     -0.812575    14A     -0.707410    15A     -0.685247
      16A     -0.652919    17A     -0.610197    18A     -0.595914
      19A     -0.583014    20A     -0.520183    21A     -0.506240
      22A     -0.489688    23A     -0.437496    24A     -0.335799
      25A     -0.301936

  @DF-RHF Final Energy:  -285.83121481205541

   => Energetics <=

    Nuclear Repulsion Energy =            273.5185894991732880
    One-Electron Energy =                -928.0147710438926651
    Two-Electron Energy =                 368.6649667326640838
    DFT Exchange-Correlation Energy =       0.0000000000000000
    Empirical Dispersion Energy =           0.0000000000000000
    PCM Polarization Energy =               0.0000000000000000
    EFP Energy =                            0.0000000000000000
    Total Energy =                       -285.8312148120552365
    Molecular point group: c1
  Basis Set: CC-PVTZ
  Basis Set:

  -Total Gradient:
     Atom            X                  Y                   Z
    ------   -----------------  -----------------  -----------------
       1        0.000062989622     0.004118761198     0.000697529728
       2       -0.000010581484    -0.006870037157    -0.000895007464
       3        0.000027827977     0.005813727445     0.000391046478
       4       -0.000005349653    -0.000024541806     0.000011244056
       5       -0.000210771598    -0.003206964427    -0.000079751583
       6        0.000188174053     0.000109164269    -0.000078184505
       7       -0.000007276103     0.000025563979     0.000019321263
       8        0.000097041843     0.000090665997    -0.000071900338
       9        0.000004380793     0.000007943642     0.000006587188
      10       -0.000135193602    -0.000067653693    -0.000102761512
      11       -0.000029008343    -0.000017189032     0.000008022783
      12        0.000008048857     0.000000830376     0.000127544377
      13        0.000014226190     0.000020288990    -0.000007273071
      14       -0.000004508553    -0.000000559780    -0.000026417401

  **** Optimization is complete! (in 5 steps) ****
    Final optimized geometry and variables:
    Molecular point group: c1

    Geometry (in Angstrom), charge = 0, multiplicity = 1:

    H            2.763224052863     0.108610698296    -0.866658472946
    N            2.333623055757    -0.037191118629     0.016287873649
    C            0.932156136520    -0.013259613690    -0.004873742190
    H            2.735126481335    -0.799567230677     0.510725697267
    C            0.220347959053    -0.005856313413    -1.195086517210
    C            0.230119762284    -0.001592960053     1.193724791121
    H            0.748681169645    -0.033482308892    -2.130165842881
    C           -1.161212294894     0.042443659591    -1.185705934596
    H            0.773676402257     0.003626398119     2.119481920062
    C           -1.148770611805     0.019561695673     1.195078636329
    H           -1.693654375307     0.058460911311    -2.118011515116
    C           -1.856620939422     0.049038283805     0.006526111615
    H           -1.673977560915     0.026904885253     2.131551126864
    H           -2.928879521728     0.076592660496     0.011707870898

  Mulliken Charges: (a.u.)
   Center  Symbol    Alpha    Beta     Spin     Total
       1     H     0.42130  0.42130  0.00000  0.15740
       2     N     3.69367  3.69367  0.00000 -0.38734
       3     C     2.87876  2.87876  0.00000  0.24249
       4     H     0.41495  0.41495  0.00000  0.17010
       5     C     3.11942  3.11942  0.00000 -0.23883
       6     C     3.11647  3.11647  0.00000 -0.23295
       7     H     0.43315  0.43315  0.00000  0.13371
       8     C     3.06336  3.06336  0.00000 -0.12671
       9     H     0.42622  0.42622  0.00000  0.14757
      10     C     3.06104  3.06104  0.00000 -0.12208
      11     H     0.42454  0.42454  0.00000  0.15092
      12     C     3.09782  3.09782  0.00000 -0.19564
      13     H     0.42440  0.42440  0.00000  0.15121
      14     H     0.42492  0.42492  0.00000  0.15017

   Total alpha = 25.00000, Total beta = 25.00000, Total charge = -0.00000
