  ==> Input File <==

--------------------------------------------------------------------------
set {
	reference rhf
	basis cc-pvtz
}

set_num_threads( 4 )
memory 2 gb

molecule MOL {
0 1

O	 -0.180963	 1.034962	 -1.120377
C	 -0.388186	 -0.005400	 -0.596367
C	 -1.727918	 -0.679963	 -0.520615
O	 0.550743	 -0.719877	 0.000412
H	 -1.670679	 -1.654265	 -0.988445
H	 -2.466997	 -0.072133	 -1.016435
H	 -2.001145	 -0.828634	 0.516052
C	 1.863204	 -0.194033	 0.000410
H	 2.031502	 0.409177	 -0.879273
H	 2.524488	 -1.045142	 0.000793
H	 2.031291	 0.409823	 0.879686

	symmetry c1
}
set optking {
	frozen_dihedral = ("
		2 4 8 9
	")
}

ee = optimize('scf')
oeprop('DIPOLE', 'QUADRUPOLE', 'MULLIKEN_CHARGES')
f=open( 'psi4out.xyz', 'w' )
f.write( "11  " )
f.write( str(ee) + "\n" )
f.write( MOL.save_string_xyz() )
f.close()
--------------------------------------------------------------------------

    Molecular point group: c1
  Charge       = 0
  Multiplicity = 1
  Basis Set: CC-PVTZ
  Basis Set:
  @DF-RHF Final Energy:  -266.93787597597890
    Total Energy =                       -266.9378759759786135
    Molecular point group: c1
  Basis Set: CC-PVTZ
  Basis Set:
  Basis Set: CC-PVTZ
  Basis Set:
  @DF-RHF Final Energy:  -266.93798487538226
    Total Energy =                       -266.9379848753823126
  Basis Set: CC-PVTZ
  Basis Set:
  Basis Set: CC-PVTZ
  Basis Set:
  @DF-RHF Final Energy:  -266.93797065756132
    Total Energy =                       -266.9379706575612659
  Basis Set: CC-PVTZ
  Basis Set:
  Basis Set: CC-PVTZ
  Basis Set:
  @DF-RHF Final Energy:  -266.93813210836049
    Total Energy =                       -266.9381321083603780
  Basis Set: CC-PVTZ
  Basis Set:
  Charge       = 0
  Multiplicity = 1
  Basis Set: CC-PVTZ
  Basis Set:

    Orbital Energies (a.u.)
    -----------------------

    Doubly Occupied:

       1A    -20.598219     2A    -20.534916     3A    -11.369543
       4A    -11.279238     5A    -11.232885     6A     -1.472896
       7A     -1.368013     8A     -1.037022     9A     -0.953963
      10A     -0.779761    11A     -0.698941    12A     -0.683075
      13A     -0.681097    14A     -0.597233    15A     -0.592904
      16A     -0.561904    17A     -0.529110    18A     -0.522751
      19A     -0.460456    20A     -0.445808

  @DF-RHF Final Energy:  -266.93813253288340

   => Energetics <=

    Nuclear Repulsion Energy =            183.4567150365144528
    One-Electron Energy =                -727.9902265898608675
    Two-Electron Energy =                 277.5953790204630991
    DFT Exchange-Correlation Energy =       0.0000000000000000
    Empirical Dispersion Energy =           0.0000000000000000
    PCM Polarization Energy =               0.0000000000000000
    EFP Energy =                            0.0000000000000000
    Total Energy =                       -266.9381325328833441
    Molecular point group: c1
  Basis Set: CC-PVTZ
  Basis Set:

  -Total Gradient:
     Atom            X                  Y                   Z
    ------   -----------------  -----------------  -----------------
       1       -0.000016530476    -0.000027877700     0.000018221561
       2        0.000254188687    -0.000607920943    -0.001227628573
       3        0.000031960925    -0.000011911390    -0.000003043643
       4       -0.000474064366     0.001300193387     0.001969410085
       5        0.000001722362     0.000000747611     0.000007308370
       6        0.000001464696     0.000006873898    -0.000002332695
       7        0.000002773618     0.000006840252     0.000001021948
       8        0.000719661900    -0.001974422709    -0.001521352720
       9       -0.000498363767     0.001314951350     0.000767764934
      10       -0.000000848472     0.000001040408    -0.000007722780
      11       -0.000021965104    -0.000008514162    -0.000001646488

  **** Optimization is complete! (in 5 steps) ****
    Final optimized geometry and variables:
    Molecular point group: c1

    Geometry (in Angstrom), charge = 0, multiplicity = 1:

    O           -0.247471422464     1.160075259445    -0.670483635327
    C           -0.435999833120     0.113545802975    -0.152220028756
    C           -1.766482436484    -0.579812544032    -0.078963594211
    O            0.508629361542    -0.595947603039     0.442918326227
    H           -1.696777495705    -1.550399492730    -0.552669625138
    H           -2.514562256495     0.021269441455    -0.569500140759
    H           -2.035547713534    -0.738341703349     0.957324490719
    C            1.833251729065    -0.099343041245     0.436195000004
    H            2.018559028515     0.491179152291    -0.445382586186
    H            2.484903631796    -0.957654208648     0.469672862989
    H            1.995023585598     0.515450306149     1.311146249274

  Mulliken Charges: (a.u.)
   Center  Symbol    Alpha    Beta     Spin     Total
       1     O     4.19710  4.19710  0.00000 -0.39420
       2     C     2.79964  2.79964  0.00000  0.40071
       3     C     3.13907  3.13907  0.00000 -0.27813
       4     O     4.14891  4.14891  0.00000 -0.29781
       5     H     0.44577  0.44577  0.00000  0.10846
       6     H     0.43792  0.43792  0.00000  0.12415
       7     H     0.44525  0.44525  0.00000  0.10950
       8     C     3.03460  3.03460  0.00000 -0.06920
       9     H     0.44736  0.44736  0.00000  0.10528
      10     H     0.44781  0.44781  0.00000  0.10439
      11     H     0.45658  0.45658  0.00000  0.08685

   Total alpha = 20.00000, Total beta = 20.00000, Total charge =  0.00000
