                              Psi4 1.0.54 Driver

  ==> Input File <==

--------------------------------------------------------------------------
set {
	reference rhf
	basis cc-pvtz
}

set_num_threads( 4 )
memory 2 gb

molecule MOL {
0 1

H	 -3.436473	 1.252944	 -1.023892
O	 -3.458596	 0.315260	 -0.960865
C	 -3.176635	 -0.080824	 0.355601
C	 -1.763371	 0.265266	 0.799691
H	 -3.321825	 -1.153438	 0.379502
H	 -3.895468	 0.357385	 1.043382
C	 -0.673390	 -0.426948	 -0.013392
H	 -1.631049	 1.344913	 0.747560
H	 -1.664587	 -0.001624	 1.849167
C	 0.737842	 -0.043159	 0.423759
H	 -0.806103	 -0.190518	 -1.063345
H	 -0.797221	 -1.503753	 0.074146
C	 1.824000	 -0.743224	 -0.390623
H	 0.850588	 1.033777	 0.343840
H	 0.868587	 -0.286314	 1.476203
C	 3.255957	 -0.453067	 0.062319
H	 1.718250	 -0.470599	 -1.438164
H	 1.658105	 -1.815850	 -0.339904
C	 3.787982	 -1.395130	 1.139636
H	 3.296627	 0.564061	 0.439907
H	 3.917359	 -0.481866	 -0.799735
H	 3.142887	 -1.391777	 2.012515
H	 4.777941	 -1.091721	 1.460830
H	 3.860295	 -2.416574	 0.786044

	symmetry c1
}
set optking {
	frozen_dihedral = ("
		20 16 13 17
	")
}

ee,wfn = optimize('scf', return_wfn=True)
oeprop( wfn, 'DIPOLE', 'QUADRUPOLE', 'MULLIKEN_CHARGES')
f=open( 'psi4out.xyz', 'w' )
f.write( "24  " )
f.write( str(ee) + "\n" )
f.write( MOL.save_string_xyz() )
f.close()
--------------------------------------------------------------------------

    Molecular point group: c1
  Charge       = 0
  Multiplicity = 1
  Basis Set: CC-PVTZ
  Basis Set:
  @DF-RHF Final Energy:  -349.37864684610651
    Total Energy =                       -349.3786468461068466
    Molecular point group: c1
  Basis Set: CC-PVTZ
  Basis Set:
  Basis Set: CC-PVTZ
  Basis Set:
  @DF-RHF Final Energy:  -349.37892885718526
    Total Energy =                       -349.3789288571853149
  Basis Set: CC-PVTZ
  Basis Set:
  Basis Set: CC-PVTZ
  Basis Set:
  @DF-RHF Final Energy:  -349.37895113148920
    Total Energy =                       -349.3789511314890888
  Basis Set: CC-PVTZ
  Basis Set:
  Basis Set: CC-PVTZ
  Basis Set:
  @DF-RHF Final Energy:  -349.37895237376966
    Total Energy =                       -349.3789523737694367
  Basis Set: CC-PVTZ
  Basis Set:
  Basis Set: CC-PVTZ
  Basis Set:
  @DF-RHF Final Energy:  -349.37895380811273
    Total Energy =                       -349.3789538081127830
  Basis Set: CC-PVTZ
  Basis Set:
  Charge       = 0
  Multiplicity = 1
  Basis Set: CC-PVTZ
  Basis Set:

    Orbital Energies (a.u.)
    -----------------------

    Doubly Occupied:

       1A    -20.546347     2A    -11.265601     3A    -11.215323
       4A    -11.211794     5A    -11.210912     6A    -11.209150
       7A    -11.209031     8A    -11.205423     9A     -1.364207
      10A     -1.089675    11A     -1.049331    12A     -0.987484
      13A     -0.914996    14A     -0.847820    15A     -0.800501
      16A     -0.782628    17A     -0.681779    18A     -0.655091
      19A     -0.625826    20A     -0.619055    21A     -0.600107
      22A     -0.585197    23A     -0.559053    24A     -0.537939
      25A     -0.517878    26A     -0.514280    27A     -0.494684
      28A     -0.472279    29A     -0.468489    30A     -0.461101
      31A     -0.457757    32A     -0.451543    33A     -0.421023

  @DF-RHF Final Energy:  -349.37895381668721

   => Energetics <=

    Nuclear Repulsion Energy =            383.7234509841155727
    One-Electron Energy =               -1234.1381920585422449
    Two-Electron Energy =                 501.0357872577391163
    DFT Exchange-Correlation Energy =       0.0000000000000000
    Empirical Dispersion Energy =           0.0000000000000000
    PCM Polarization Energy =               0.0000000000000000
    EFP Energy =                            0.0000000000000000
    Total Energy =                       -349.3789538166876127
    Molecular point group: c1
  Basis Set: CC-PVTZ
  Basis Set:

  -Total Gradient:
     Atom            X                  Y                   Z
    ------   -----------------  -----------------  -----------------
       1        0.000000125815     0.000000284895    -0.000000440230
       2        0.000000964001     0.000000093302    -0.000000161093
       3       -0.000000538934    -0.000000040299     0.000000595880
       4        0.000001000448    -0.000001538093    -0.000000012693
       5        0.000000262453    -0.000000027847     0.000000518551
       6       -0.000000560425     0.000000613274    -0.000000462801
       7       -0.000001485217    -0.000001026032     0.000001566328
       8       -0.000000431509    -0.000000301761     0.000000313984
       9       -0.000000138373     0.000000204466     0.000000312873
      10        0.000000032470     0.000000733426    -0.000002273797
      11        0.000001530672     0.000000279530    -0.000000372626
      12       -0.000000645005    -0.000000033664    -0.000000130227
      13       -0.001241625168     0.003222129515     0.001716163056
      14        0.000001833726     0.000000277869     0.000001400102
      15       -0.000002604632    -0.000001106682     0.000000902317
      16        0.001032847713     0.000625915957    -0.003645487884
      17        0.000876341621    -0.002804147633    -0.000856309901
      18       -0.000004014752     0.000002126115    -0.000000292877
      19       -0.000006189099     0.000008888220     0.000000391884
      20       -0.000657000455    -0.001059426671     0.002788555912
      21        0.000001774496     0.000001080672    -0.000003398445
      22       -0.000003796342    -0.000002374207     0.000003708222
      23       -0.000001100140     0.000003814936    -0.000000926675
      24        0.000003416634     0.000003580712    -0.000004159857

  **** Optimization is complete! (in 6 steps) ****
    Final optimized geometry and variables:
    Molecular point group: c1

    Geometry (in Angstrom), charge = 0, multiplicity = 1:

    H           -3.448860875219     1.575058071080    -1.140111187271
    O           -3.473924776295     0.636777852898    -1.088294449448
    C           -3.181074598094     0.223800182696     0.220474927471
    C           -1.762205452635     0.558970528550     0.655038091278
    H           -3.330351558717    -0.848454967319     0.232519891491
    H           -3.891615835414     0.656290734907     0.920391201301
    C           -0.682823421554    -0.125509300540    -0.178519899773
    H           -1.626526623508     1.638757749956     0.616454452600
    H           -1.653894361818     0.277286368356     1.699699567154
    C            0.733672781521     0.245276193418     0.250996709806
    H           -0.824079957805     0.127021090866    -1.223621296580
    H           -0.810323105928    -1.202983131816    -0.105751074438
    C            1.814582405645    -0.431592693658    -0.587688603036
    H            0.858242124112     1.323563992424     0.185040352606
    H            0.870592395007    -0.011824666445     1.298515920583
    C            3.247090767871    -0.124433534618    -0.129929477827
    H            1.695211140166    -0.150964015880    -1.629865345909
    H            1.660986169967    -1.508103766024    -0.564188550628
    C            3.757572496331    -1.079741381465     0.947696673739
    H            3.289449701207     0.887175130980     0.263856736036
    H            3.920561222263    -0.160704498170    -0.979015646429
    H            3.113900539752    -1.075083709229     1.820731384908
    H            4.754180825967    -0.804747692048     1.274384381228
    H            3.800322136340    -2.097969252821     0.575923007559

  Mulliken Charges: (a.u.)
   Center  Symbol    Alpha    Beta     Spin     Total
       1     H     0.39531  0.39531  0.00000  0.20937
       2     O     4.20368  4.20368  0.00000 -0.40736
       3     C     2.97768  2.97768  0.00000  0.04464
       4     C     3.10196  3.10196  0.00000 -0.20392
       5     H     0.45886  0.45886  0.00000  0.08229
       6     H     0.46027  0.46027  0.00000  0.07946
       7     C     3.08813  3.08813  0.00000 -0.17626
       8     H     0.45909  0.45909  0.00000  0.08182
       9     H     0.45341  0.45341  0.00000  0.09319
      10     C     3.08958  3.08958  0.00000 -0.17916
      11     H     0.44620  0.44620  0.00000  0.10760
      12     H     0.45488  0.45488  0.00000  0.09025
      13     C     3.09428  3.09428  0.00000 -0.18856
      14     H     0.45482  0.45482  0.00000  0.09035
      15     H     0.45527  0.45527  0.00000  0.08947
      16     C     3.09071  3.09071  0.00000 -0.18143
      17     H     0.44776  0.44776  0.00000  0.10448
      18     H     0.45642  0.45642  0.00000  0.08715
      19     C     3.14800  3.14800  0.00000 -0.29600
      20     H     0.45650  0.45650  0.00000  0.08701
      21     H     0.44758  0.44758  0.00000  0.10484
      22     H     0.45573  0.45573  0.00000  0.08853
      23     H     0.44869  0.44869  0.00000  0.10262
      24     H     0.45520  0.45520  0.00000  0.08961

   Total alpha = 33.00000, Total beta = 33.00000, Total charge = -0.00000

*** Psi4 exiting successfully. Buy a developer a beer!
