  ==> Input File <==

--------------------------------------------------------------------------
set {
	reference rhf
	basis 6-31G*
}

set_num_threads( 4 )
memory 2 gb

molecule MOL {
0 1

H	 2.652209	 0.763231	 0.000000
O	 2.263154	 -0.100023	 0.000000
C	 0.912879	 -0.015685	 0.000000
C	 0.261236	 -0.189457	 1.213979
C	 0.183750	 0.233257	 -1.151296
H	 0.845303	 -0.381546	 2.094761
C	 -1.116984	 -0.112332	 1.264682
H	 0.689967	 0.367946	 -2.092638
C	 -1.199951	 0.308122	 -1.085859
H	 -1.616949	 -0.247626	 2.207240
C	 -1.859054	 0.136707	 0.117412
H	 -1.758549	 0.501738	 -1.984287
H	 -2.931013	 0.195313	 0.164666

	symmetry c1
}
set optking {
	frozen_dihedral = ("
		4 3 2 1
	")
}

ee = optimize('scf')
oeprop('DIPOLE', 'QUADRUPOLE', 'MULLIKEN_CHARGES')
f=open( 'psi4out.xyz', 'w' )
f.write( "13  " )
f.write( str(ee) + "\n" )
f.write( MOL.save_string_xyz() )
f.close()
--------------------------------------------------------------------------

    Molecular point group: c1
  Charge       = 0
  Multiplicity = 1
  Basis Set: 6-31G*
  Basis Set:
  @DF-RHF Final Energy:  -305.55277453885918
    Total Energy =                       -305.5527745388594667
    Molecular point group: c1
  Basis Set: 6-31G*
  Basis Set:
  Basis Set: 6-31G*
  Basis Set:
  @DF-RHF Final Energy:  -305.55345060576008
    Total Energy =                       -305.5534506057598492
  Basis Set: 6-31G*
  Basis Set:
  Basis Set: 6-31G*
  Basis Set:
  @DF-RHF Final Energy:  -305.55350670435024
    Total Energy =                       -305.5535067043502977
  Basis Set: 6-31G*
  Basis Set:
  Basis Set: 6-31G*
  Basis Set:
  @DF-RHF Final Energy:  -305.55351231794799
    Total Energy =                       -305.5535123179481616
  Basis Set: 6-31G*
  Basis Set:
  Charge       = 0
  Multiplicity = 1
  Basis Set: 6-31G*
  Basis Set:

    Orbital Energies (a.u.)
    -----------------------

    Doubly Occupied:

       1A    -20.576413     2A    -11.288571     3A    -11.234738
       4A    -11.234342     5A    -11.227834     6A    -11.227185
       7A    -11.226255     8A     -1.391193     9A     -1.147555
      10A     -1.017940    11A     -1.003459    12A     -0.835155
      13A     -0.823222    14A     -0.731791    15A     -0.679726
      16A     -0.645079    17A     -0.628096    18A     -0.591047
      19A     -0.588571    20A     -0.521161    21A     -0.513740
      22A     -0.492009    23A     -0.465964    24A     -0.336539
      25A     -0.324172

  @DF-RHF Final Energy:  -305.55351323284788

   => Energetics <=

    Nuclear Repulsion Energy =            272.6263172559023360
    One-Electron Energy =                -954.8561457230198357
    Two-Electron Energy =                 376.6763152342695662
    DFT Exchange-Correlation Energy =       0.0000000000000000
    Empirical Dispersion Energy =           0.0000000000000000
    PCM Polarization Energy =               0.0000000000000000
    EFP Energy =                            0.0000000000000000
    Total Energy =                       -305.5535132328479335
    Molecular point group: c1
  Basis Set: 6-31G*
  Basis Set:

  -Total Gradient:
     Atom            X                  Y                   Z
    ------   -----------------  -----------------  -----------------
       1        0.000045498664     0.000004493714     0.000661346373
       2        0.000148857506     0.000253198920    -0.000743760314
       3       -0.000294894781    -0.000731871420    -0.000190277128
       4        0.000048634463     0.000452693862     0.000198648481
       5        0.000144173978     0.000016473365     0.000037909831
       6       -0.000023954380    -0.000004106609    -0.000027688730
       7        0.000046601078     0.000058466964     0.000029685049
       8        0.000024506898    -0.000013043699    -0.000000865165
       9       -0.000104329427     0.000009952897     0.000079197317
      10       -0.000039273326    -0.000005784286    -0.000007744748
      11       -0.000004164102    -0.000031114586    -0.000087974242
      12        0.000011858400    -0.000004426429     0.000012524376
      13       -0.000003514972    -0.000004932691     0.000038998901

  **** Optimization is complete! (in 5 steps) ****
    Final optimized geometry and variables:
    Molecular point group: c1

    Geometry (in Angstrom), charge = 0, multiplicity = 1:

    H            2.662595971390     0.715487228874    -0.082557235027
    O            2.271867453923    -0.148103040331    -0.084120579791
    C            0.905322535868    -0.047733721072    -0.034935218598
    C            0.252491141167    -0.227449927444     1.172870879671
    C            0.183228013278     0.196540902057    -1.191220488157
    H            0.832136546807    -0.425982528663     2.055622014114
    C           -1.130494941203    -0.159107564052     1.221678637092
    H            0.707178762173     0.318330454188    -2.122037093360
    C           -1.199334916756     0.267913815075    -1.134366920342
    H           -1.636868453363    -0.301202181031     2.159758923478
    C           -1.860723715149     0.091021284707     0.070588497671
    H           -1.758860919335     0.457086010754    -2.033071022463
    H           -2.933717234437     0.143857216729     0.111701564640

  Mulliken Charges: (a.u.)
   Center  Symbol    Alpha    Beta     Spin     Total
       1     H     0.27129  0.27129  0.00000  0.45742
       2     O     4.38830  4.38830  0.00000 -0.77661
       3     C     2.81963  2.81963  0.00000  0.36073
       4     C     3.11721  3.11721  0.00000 -0.23443
       5     C     3.11985  3.11985  0.00000 -0.23969
       6     H     0.39358  0.39358  0.00000  0.21283
       7     C     3.09703  3.09703  0.00000 -0.19407
       8     H     0.39528  0.39528  0.00000  0.20943
       9     C     3.09689  3.09689  0.00000 -0.19378
      10     H     0.39802  0.39802  0.00000  0.20395
      11     C     3.10530  3.10530  0.00000 -0.21060
      12     H     0.39809  0.39809  0.00000  0.20382
      13     H     0.39950  0.39950  0.00000  0.20099

   Total alpha = 25.00000, Total beta = 25.00000, Total charge =  0.00000
