  ==> Input File <==

--------------------------------------------------------------------------
set {
	reference rhf
	basis 6-31G*
}

set_num_threads( 4 )
memory 2 gb

molecule MOL {
0 1

O	 1.470187	 1.951638	 0.411430
C	 0.588604	 2.058877	 1.201639
C	 -0.712384	 1.294283	 1.175348
O	 0.639710	 2.884998	 2.238967
C	 -0.823008	 0.326187	 0.001381
H	 -0.802226	 0.773651	 2.124866
H	 -1.517508	 2.023870	 1.161285
C	 -2.149452	 -0.435131	 -0.000098
H	 0.004819	 -0.374975	 0.036894
H	 -0.712344	 0.876568	 -0.927674
C	 -3.368779	 0.488503	 -0.000883
H	 -2.193746	 -1.087250	 -0.871175
H	 -2.195311	 -1.087803	 0.870418
C	 -4.693822	 -0.272754	 -0.001129
H	 -3.325798	 1.139422	 -0.871284
H	 -3.326423	 1.139959	 0.869145
H	 -4.781274	 -0.907928	 -0.878124
H	 -5.538651	 0.408946	 -0.001420
H	 -4.781694	 -0.907783	 0.875984
C	 1.813231	 3.664181	 2.382769
H	 2.679360	 3.028776	 2.499429
H	 1.664715	 4.260514	 3.269451
H	 1.953970	 4.301799	 1.521873

	symmetry c1
}
set optking {
	frozen_dihedral = ("
		9 5 8 12
	")
}

ee = optimize('scf')
oeprop('DIPOLE', 'QUADRUPOLE', 'MULLIKEN_CHARGES')
f=open( 'psi4out.xyz', 'w' )
f.write( "23  " )
f.write( str(ee) + "\n" )
f.write( MOL.save_string_xyz() )
f.close()
--------------------------------------------------------------------------

    Molecular point group: c1
  Charge       = 0
  Multiplicity = 1
  Basis Set: 6-31G*
  Basis Set:
  @DF-RHF Final Energy:  -422.97303685957166
    Total Energy =                       -422.9730368595708114
    Molecular point group: c1
  Basis Set: 6-31G*
  Basis Set:
  Basis Set: 6-31G*
  Basis Set:
  @DF-RHF Final Energy:  -422.97363454220255
    Total Energy =                       -422.9736345422028307
  Basis Set: 6-31G*
  Basis Set:
  Basis Set: 6-31G*
  Basis Set:
  @DF-RHF Final Energy:  -422.97430467632392
    Total Energy =                       -422.9743046763239818
  Basis Set: 6-31G*
  Basis Set:
  Basis Set: 6-31G*
  Basis Set:
  @DF-RHF Final Energy:  -422.97424679668728
    Total Energy =                       -422.9742467966868844
  Basis Set: 6-31G*
  Basis Set:
  Basis Set: 6-31G*
  Basis Set:
  @DF-RHF Final Energy:  -422.97443061102564
    Total Energy =                       -422.9744306110263778
  Basis Set: 6-31G*
  Basis Set:
  Basis Set: 6-31G*
  Basis Set:
  @DF-RHF Final Energy:  -422.97444085581134
    Total Energy =                       -422.9744408558108262
  Basis Set: 6-31G*
  Basis Set:
  Charge       = 0
  Multiplicity = 1
  Basis Set: 6-31G*
  Basis Set:

    Orbital Energies (a.u.)
    -----------------------

    Doubly Occupied:

       1A    -20.603476     2A    -20.545341     3A    -11.372132
       4A    -11.280751     5A    -11.234898     6A    -11.219506
       7A    -11.218725     8A    -11.217921     9A    -11.211071
      10A     -1.469200    11A     -1.362639    12A     -1.093629
      13A     -1.041900    14A     -0.987128    15A     -0.933056
      16A     -0.850878    17A     -0.792234    18A     -0.762813
      19A     -0.700824    20A     -0.682576    21A     -0.671947
      22A     -0.641177    23A     -0.617942    24A     -0.600089
      25A     -0.576794    26A     -0.557981    27A     -0.554708
      28A     -0.527584    29A     -0.520485    30A     -0.509199
      31A     -0.491458    32A     -0.467054    33A     -0.465201
      34A     -0.457844    35A     -0.452667    36A     -0.437455

  @DF-RHF Final Energy:  -422.97444104881561

   => Energetics <=

    Nuclear Repulsion Energy =            457.6351862932222048
    One-Electron Energy =               -1482.9586955245199533
    Two-Electron Energy =                 602.3490681824814601
    DFT Exchange-Correlation Energy =       0.0000000000000000
    Empirical Dispersion Energy =           0.0000000000000000
    PCM Polarization Energy =               0.0000000000000000
    EFP Energy =                            0.0000000000000000
    Total Energy =                       -422.9744410488162885
    Molecular point group: c1
  Basis Set: 6-31G*
  Basis Set:

  -Total Gradient:
     Atom            X                  Y                   Z
    ------   -----------------  -----------------  -----------------
       1        0.000013017724     0.000007021525     0.000014283407
       2       -0.000035769701     0.000027659294    -0.000041778460
       3        0.000000074682    -0.000020780426     0.000042034682
       4        0.000015169922    -0.000033627165     0.000001319071
       5       -0.000189701441     0.000166809980    -0.002519473750
       6       -0.000016188386     0.000005751482    -0.000008240633
       7        0.000015389672     0.000025326417     0.000003982221
       8        0.001028681275    -0.001590537893     0.001671964338
       9       -0.000018507262     0.000059211880     0.001853427840
      10       -0.000009192775    -0.000011879582     0.000009410052
      11       -0.000013703774     0.000028831525    -0.000036954560
      12       -0.000802342662     0.001343473028    -0.000993003400
      13        0.000018912560    -0.000007122827    -0.000002896673
      14        0.000010633609    -0.000012040727     0.000028750896
      15        0.000007332621     0.000001649374    -0.000013121470
      16       -0.000028006215     0.000002493418    -0.000010793772
      17       -0.000007108609     0.000010755143    -0.000006620406
      18        0.000010178192     0.000003210944     0.000012818126
      19       -0.000003844836    -0.000017141580    -0.000006030411
      20       -0.000003772335     0.000011266553    -0.000002547532
      21        0.000000501799    -0.000001234614     0.000000474064
      22        0.000006079668     0.000001112676     0.000001327590
      23        0.000002166274    -0.000000208426     0.000001668778

  **** Optimization is complete! (in 7 steps) ****
    Final optimized geometry and variables:
    Molecular point group: c1

    Geometry (in Angstrom), charge = 0, multiplicity = 1:

    O            2.283131393636     0.531110511437    -0.400767181497
    C            1.396543672261     0.716534308876     0.369083300585
    C            0.046541967109     0.041553753803     0.336846206878
    O            1.483325053890     1.566579247640     1.384684396944
    C           -0.102368927342    -0.943923078081    -0.821192522546
    H           -0.089928408930    -0.454865397134     1.294352316742
    H           -0.700124965757     0.827816361315     0.301612425596
    C           -1.408058854113    -1.745698377689    -0.788457358194
    H            0.734074887611    -1.633406656195    -0.785376073390
    H           -0.020081863106    -0.407655815502    -1.761392991164
    C           -2.688590711790    -0.905133301016    -0.817667343027
    H           -1.417340361335    -2.402793359456    -1.655159840819
    H           -1.419993892373    -2.389516168244     0.089361909062
    C           -3.949010666028    -1.762262769960    -0.933039590597
    H           -2.645132729410    -0.212814997948    -1.656454250275
    H           -2.758980071581    -0.295897146937     0.079406333120
    H           -3.941997020735    -2.349227421550    -1.846970938517
    H           -4.843514097809    -1.147268171706    -0.941365560044
    H           -4.030502277190    -2.452985000365    -0.098389154990
    C            2.703329963805     2.270171740499     1.531301116057
    H            3.522918268020     1.582487599500     1.682623101960
    H            2.578585292473     2.899763316643     2.398506006967
    H            2.902147238596     2.872623385425     0.656637640023

  Mulliken Charges: (a.u.)
   Center  Symbol    Alpha    Beta     Spin     Total
       1     O     4.28594  4.28594  0.00000 -0.57187
       2     C     2.60485  2.60485  0.00000  0.79029
       3     C     3.21059  3.21059  0.00000 -0.42118
       4     O     4.30741  4.30741  0.00000 -0.61481
       5     C     3.15341  3.15341  0.00000 -0.30683
       6     H     0.40137  0.40137  0.00000  0.19727
       7     H     0.39859  0.39859  0.00000  0.20283
       8     C     3.15469  3.15469  0.00000 -0.30938
       9     H     0.40849  0.40849  0.00000  0.18302
      10     H     0.41314  0.41314  0.00000  0.17372
      11     C     3.15580  3.15580  0.00000 -0.31161
      12     H     0.41870  0.41870  0.00000  0.16260
      13     H     0.42337  0.42337  0.00000  0.15325
      14     C     3.23902  3.23902  0.00000 -0.47805
      15     H     0.42222  0.42222  0.00000  0.15557
      16     H     0.42224  0.42224  0.00000  0.15552
      17     H     0.42087  0.42087  0.00000  0.15826
      18     H     0.41873  0.41873  0.00000  0.16253
      19     H     0.42147  0.42147  0.00000  0.15707
      20     C     3.09240  3.09240  0.00000 -0.18481
      21     H     0.40911  0.40911  0.00000  0.18178
      22     H     0.40849  0.40849  0.00000  0.18301
      23     H     0.40909  0.40909  0.00000  0.18183

   Total alpha = 36.00000, Total beta = 36.00000, Total charge =  0.00000
