  ==> Input File <==

--------------------------------------------------------------------------
set {
	reference rhf
	basis 6-31G*
}

set_num_threads( 4 )
memory 2 gb

molecule MOL {
0 1

H	 -2.706179	 0.716677	 -0.095492
O	 -2.315789	 -0.143634	 -0.024262
C	 -0.945151	 -0.064130	 -0.333158
H	 -0.813375	 -0.223047	 -1.403232
C	 -0.232801	 -1.184051	 0.407206
C	 -0.355424	 1.302939	 0.054523
H	 -0.318824	 -0.992899	 1.473524
H	 -0.742411	 -2.122033	 0.217954
C	 1.248522	 -1.270719	 -0.013048
H	 -0.546144	 2.018388	 -0.742941
H	 -0.890929	 1.656788	 0.930149
C	 1.156425	 1.235120	 0.355905
H	 1.825384	 -1.683246	 0.809111
H	 1.357782	 -1.965923	 -0.840362
C	 1.828244	 0.099899	 -0.419275
H	 1.626109	 2.185622	 0.123525
H	 1.309438	 1.071213	 1.419539
H	 2.901447	 0.112642	 -0.255830
H	 1.681817	 0.263413	 -1.484607

	symmetry c1
}
set optking {
	frozen_dihedral = ("
		1 2 3 4
	")
}

ee = optimize('scf')
oeprop('DIPOLE', 'QUADRUPOLE', 'MULLIKEN_CHARGES')
f=open( 'psi4out.xyz', 'w' )
f.write( "19  " )
f.write( str(ee) + "\n" )
f.write( MOL.save_string_xyz() )
f.close()
--------------------------------------------------------------------------

    Molecular point group: c1
  Charge       = 0
  Multiplicity = 1
  Basis Set: 6-31G*
  Basis Set:
  @DF-RHF Final Energy:  -309.04750285214158
    Total Energy =                       -309.0475028521410081
    Molecular point group: c1
  Basis Set: 6-31G*
  Basis Set:
  Basis Set: 6-31G*
  Basis Set:
  @DF-RHF Final Energy:  -309.04755590449810
    Total Energy =                       -309.0475559044981537
  Basis Set: 6-31G*
  Basis Set:
  Basis Set: 6-31G*
  Basis Set:
  @DF-RHF Final Energy:  -309.04757187786112
    Total Energy =                       -309.0475718778614009
  Basis Set: 6-31G*
  Basis Set:
  Charge       = 0
  Multiplicity = 1
  Basis Set: 6-31G*
  Basis Set:

    Orbital Energies (a.u.)
    -----------------------

    Doubly Occupied:

       1A    -20.548872     2A    -11.268540     3A    -11.220097
       4A    -11.219179     5A    -11.217050     6A    -11.215413
       7A    -11.207730     8A     -1.358067     9A     -1.109905
      10A     -1.004017    11A     -0.988762    12A     -0.846141
      13A     -0.837709    14A     -0.738581    15A     -0.684702
      16A     -0.666840    17A     -0.626173    18A     -0.595845
      19A     -0.581260    20A     -0.547605    21A     -0.527943
      22A     -0.520555    23A     -0.501169    24A     -0.484972
      25A     -0.466109    26A     -0.449407    27A     -0.426313
      28A     -0.413683

  @DF-RHF Final Energy:  -309.04757225016249

   => Energetics <=

    Nuclear Repulsion Energy =            331.4884050348715618
    One-Electron Energy =               -1076.5266782099536158
    Two-Electron Energy =                 435.9907009249195653
    DFT Exchange-Correlation Energy =       0.0000000000000000
    Empirical Dispersion Energy =           0.0000000000000000
    PCM Polarization Energy =               0.0000000000000000
    EFP Energy =                            0.0000000000000000
    Total Energy =                       -309.0475722501624887
    Molecular point group: c1
  Basis Set: 6-31G*
  Basis Set:

  -Total Gradient:
     Atom            X                  Y                   Z
    ------   -----------------  -----------------  -----------------
       1        0.000411337419     0.000363180260     0.002045880451
       2       -0.000492825466    -0.000908258120    -0.002441980063
       3       -0.000131988928     0.002320159479     0.000132228170
       4        0.000185231301    -0.001791517959     0.000328881760
       5       -0.000001542193    -0.000024004169    -0.000043472437
       6        0.000032800373     0.000001510454    -0.000030317388
       7       -0.000001549793     0.000004880688    -0.000016507118
       8       -0.000009446484    -0.000014463620     0.000010068242
       9       -0.000004889783     0.000003176485     0.000009786709
      10        0.000016706067     0.000005957232     0.000006212956
      11        0.000002753072     0.000002759581     0.000001787647
      12       -0.000007236398     0.000023967405    -0.000009495446
      13        0.000003736005    -0.000004668972     0.000004527269
      14       -0.000004455934    -0.000000504209     0.000008745958
      15        0.000006003731    -0.000008086379    -0.000005477292
      16       -0.000000113738     0.000013795350     0.000012785548
      17       -0.000005306284    -0.000000821549    -0.000005247061
      18       -0.000003220106     0.000002264108    -0.000005439195
      19        0.000004007142     0.000010673932    -0.000002968710

  **** Optimization is complete! (in 4 steps) ****
    Final optimized geometry and variables:
    Molecular point group: c1

    Geometry (in Angstrom), charge = 0, multiplicity = 1:

    H           -2.719466951695     0.707532503726    -0.127144529043
    O           -2.320279293473    -0.147039296869    -0.046292963600
    C           -0.944000737215    -0.063030396954    -0.331917059969
    H           -0.802359877388    -0.228162824303    -1.399088160340
    C           -0.232237939747    -1.183393892744     0.410670578095
    C           -0.355780152790     1.301447463459     0.060261456835
    H           -0.314613681670    -0.990519969393     1.477085775845
    H           -0.744858443827    -2.120739251897     0.225216475408
    C            1.246917646825    -1.273690165671    -0.015770198316
    H           -0.554480597563     2.021421900850    -0.730671799202
    H           -0.879851054121     1.651372179825     0.946071759442
    C            1.158170251156     1.233111623925     0.352229341129
    H            1.827369318130    -1.687075570994     0.803476313374
    H            1.351644405100    -1.968204257145    -0.844104517650
    C            1.826317984700     0.096716534863    -0.424601737988
    H            1.625784064634     2.183505547045     0.115715558964
    H            1.316855771837     1.070718125215     1.415071787221
    H            2.899771368733     0.110100112285    -0.263244411184
    H            1.677582660232     0.260094879592    -1.489410037381

  Mulliken Charges: (a.u.)
   Center  Symbol    Alpha    Beta     Spin     Total
       1     H     0.28137  0.28137  0.00000  0.43725
       2     O     4.38295  4.38295  0.00000 -0.76590
       3     C     2.89653  2.89653  0.00000  0.20695
       4     H     0.42830  0.42830  0.00000  0.14340
       5     C     3.16775  3.16775  0.00000 -0.33550
       6     C     3.18445  3.18445  0.00000 -0.36890
       7     H     0.41849  0.41849  0.00000  0.16302
       8     H     0.40862  0.40862  0.00000  0.18277
       9     C     3.16128  3.16128  0.00000 -0.32256
      10     H     0.41981  0.41981  0.00000  0.16038
      11     H     0.41643  0.41643  0.00000  0.16714
      12     C     3.16240  3.16240  0.00000 -0.32480
      13     H     0.41790  0.41790  0.00000  0.16419
      14     H     0.41795  0.41795  0.00000  0.16411
      15     C     3.16440  3.16440  0.00000 -0.32881
      16     H     0.41618  0.41618  0.00000  0.16764
      17     H     0.41806  0.41806  0.00000  0.16388
      18     H     0.41621  0.41621  0.00000  0.16758
      19     H     0.42092  0.42092  0.00000  0.15817

   Total alpha = 28.00000, Total beta = 28.00000, Total charge =  0.00000
