                              Psi4 1.0.54 Driver

  ==> Input File <==

--------------------------------------------------------------------------
set {
	reference rhf
	basis cc-pvtz
}

set_num_threads( 4 )
memory 2 gb

molecule MOL {
0 1

H	 -3.436473	 1.252944	 -1.023892
O	 -3.458596	 0.315260	 -0.960865
C	 -3.176635	 -0.080824	 0.355601
C	 -1.763371	 0.265266	 0.799691
H	 -3.321825	 -1.153438	 0.379502
H	 -3.895468	 0.357385	 1.043382
C	 -1.676295	 1.523963	 1.657841
H	 -1.347168	 -0.580629	 1.344761
H	 -1.149611	 0.383796	 -0.090049
C	 -0.256433	 1.837956	 2.121925
H	 -2.325079	 1.414464	 2.519816
H	 -2.064167	 2.366346	 1.089992
C	 -0.175483	 3.101625	 2.976112
H	 0.127922	 0.988758	 2.678723
H	 0.390217	 1.951824	 1.254322
C	 1.238613	 3.503409	 3.398901
H	 -0.791325	 2.974426	 3.863473
H	 -0.614843	 3.924929	 2.419558
C	 1.920819	 2.527259	 4.354343
H	 1.190237	 4.478086	 3.874759
H	 1.855235	 3.630199	 2.512830
H	 1.323631	 2.376060	 5.247977
H	 2.887946	 2.905969	 4.664963
H	 2.083060	 1.558485	 3.897440

	symmetry c1
}
set optking {
	frozen_dihedral = ("
		7 4 3 2
	")
}

ee,wfn = optimize('scf', return_wfn=True)
oeprop( wfn, 'DIPOLE', 'QUADRUPOLE', 'MULLIKEN_CHARGES')
f=open( 'psi4out.xyz', 'w' )
f.write( "24  " )
f.write( str(ee) + "\n" )
f.write( MOL.save_string_xyz() )
f.close()
--------------------------------------------------------------------------

    Molecular point group: c1
  Charge       = 0
  Multiplicity = 1
  Basis Set: CC-PVTZ
  Basis Set:
  @DF-RHF Final Energy:  -349.37588042678635
    Total Energy =                       -349.3758804267864093
    Molecular point group: c1
  Basis Set: CC-PVTZ
  Basis Set:
  Basis Set: CC-PVTZ
  Basis Set:
  @DF-RHF Final Energy:  -349.37615255649570
    Total Energy =                       -349.3761525564956969
  Basis Set: CC-PVTZ
  Basis Set:
  Basis Set: CC-PVTZ
  Basis Set:
  @DF-RHF Final Energy:  -349.37624099855805
    Total Energy =                       -349.3762409985581598
  Basis Set: CC-PVTZ
  Basis Set:
  Basis Set: CC-PVTZ
  Basis Set:
  @DF-RHF Final Energy:  -349.37624262515459
    Total Energy =                       -349.3762426251548732
  Basis Set: CC-PVTZ
  Basis Set:
  Charge       = 0
  Multiplicity = 1
  Basis Set: CC-PVTZ
  Basis Set:

    Orbital Energies (a.u.)
    -----------------------

    Doubly Occupied:

       1A    -20.544972     2A    -11.264657     3A    -11.217709
       4A    -11.214877     5A    -11.213982     6A    -11.213311
       7A    -11.212950     8A    -11.207370     9A     -1.362000
      10A     -1.093606    11A     -1.051227    12A     -0.987429
      13A     -0.917819    14A     -0.853359    15A     -0.802075
      16A     -0.780434    17A     -0.691588    18A     -0.657308
      19A     -0.623690    20A     -0.616331    21A     -0.597418
      22A     -0.587080    23A     -0.561021    24A     -0.536024
      25A     -0.535104    26A     -0.507512    27A     -0.493585
      28A     -0.486266    29A     -0.475313    30A     -0.462771
      31A     -0.457563    32A     -0.443963    33A     -0.424778

  @DF-RHF Final Energy:  -349.37624280008595

   => Energetics <=

    Nuclear Repulsion Energy =            382.2280664838842767
    One-Electron Energy =               -1231.0184320010891952
    Two-Electron Energy =                 499.4141227171188575
    DFT Exchange-Correlation Energy =       0.0000000000000000
    Empirical Dispersion Energy =           0.0000000000000000
    PCM Polarization Energy =               0.0000000000000000
    EFP Energy =                            0.0000000000000000
    Total Energy =                       -349.3762428000860609
    Molecular point group: c1
  Basis Set: CC-PVTZ
  Basis Set:

  -Total Gradient:
     Atom            X                  Y                   Z
    ------   -----------------  -----------------  -----------------
       1        0.000007428208     0.000004566162     0.000003688310
       2        0.001104535930    -0.003257423716    -0.001146677176
       3       -0.001769196827     0.003699743745     0.002675693705
       4        0.001216700361     0.001368346521    -0.004265268212
       5        0.000000236457    -0.000000162055    -0.000012452602
       6        0.000000187558    -0.000002156917    -0.000004250917
       7       -0.000563907083    -0.001826621654     0.002740534119
       8        0.000014133262     0.000001176589     0.000013019259
       9       -0.000008685918     0.000006660614     0.000004228901
      10        0.000000139441     0.000010765866    -0.000017469167
      11       -0.000013758506    -0.000006189667    -0.000010237385
      12        0.000008110668     0.000001079509     0.000006323809
      13        0.000000562420    -0.000004455770     0.000020475483
      14       -0.000010477297     0.000003854657    -0.000005271338
      15        0.000006600536    -0.000003999911    -0.000007303350
      16        0.000001497086    -0.000004855901    -0.000009108071
      17       -0.000002885100     0.000001706847     0.000002614253
      18        0.000001430885    -0.000000064463     0.000002927306
      19        0.000002689191     0.000002572572     0.000005841409
      20        0.000002016145     0.000002523483    -0.000002212291
      21        0.000000671717    -0.000002833811    -0.000002390707
      22       -0.000002304483    -0.000003597852     0.000002189002
      23       -0.000000408437     0.000001466831     0.000003370718
      24        0.000004683785     0.000007898321     0.000001734942

  **** Optimization is complete! (in 5 steps) ****
    Final optimized geometry and variables:
    Molecular point group: c1

    Geometry (in Angstrom), charge = 0, multiplicity = 1:

    H           -2.436089015282    -0.333030953386    -2.878235116939
    O           -2.447675162379    -1.270439973271    -2.809960639814
    C           -2.230529511532    -1.663547522391    -1.478994064650
    C           -0.818560839502    -1.349284572219    -0.974726263615
    H           -2.393755970320    -2.732098632327    -1.474742482562
    H           -2.977213506762    -1.222847168134    -0.823262447412
    C           -0.728553718914    -0.085966956393    -0.120540478935
    H           -0.462774766381    -2.186788892359    -0.381325319126
    H           -0.160950702763    -1.280582997484    -1.834250490139
    C            0.690929539030     0.235375009810     0.338328894204
    H           -1.370739878135    -0.201419452969     0.748784031576
    H           -1.123187704218     0.763244297802    -0.676497311278
    C            0.769781824641     1.488708882854     1.207887914735
    H            1.085078989496    -0.618695603543     0.880188054059
    H            1.328086507351     0.363743789787    -0.533686937996
    C            2.184862801233     1.895455675584     1.622792304568
    H            0.163549343845     1.345943060700     2.099679039441
    H            0.319552186813     2.316080047410     0.665964630475
    C            2.883039583578     0.911913880268     2.558889835738
    H            2.133609131870     2.863440692155     2.111740698205
    H            2.791888536162     2.038427893738     0.732672823143
    H            2.294572020268     0.742909281941     3.455122790872
    H            3.849185920834     1.294890753565     2.867021026881
    H            3.050245291935    -0.048782279638     2.087112415147

  Mulliken Charges: (a.u.)
   Center  Symbol    Alpha    Beta     Spin     Total
       1     H     0.39461  0.39461  0.00000  0.21078
       2     O     4.20295  4.20295  0.00000 -0.40591
       3     C     2.97302  2.97302  0.00000  0.05395
       4     C     3.10309  3.10309  0.00000 -0.20617
       5     H     0.45149  0.45149  0.00000  0.09702
       6     H     0.47127  0.47127  0.00000  0.05746
       7     C     3.09201  3.09201  0.00000 -0.18402
       8     H     0.45441  0.45441  0.00000  0.09118
       9     H     0.44691  0.44691  0.00000  0.10617
      10     C     3.09257  3.09257  0.00000 -0.18514
      11     H     0.45300  0.45300  0.00000  0.09399
      12     H     0.46008  0.46008  0.00000  0.07984
      13     C     3.09453  3.09453  0.00000 -0.18905
      14     H     0.45177  0.45177  0.00000  0.09646
      15     H     0.45331  0.45331  0.00000  0.09339
      16     C     3.09035  3.09035  0.00000 -0.18069
      17     H     0.45411  0.45411  0.00000  0.09178
      18     H     0.45016  0.45016  0.00000  0.09969
      19     C     3.15257  3.15257  0.00000 -0.30513
      20     H     0.44842  0.44842  0.00000  0.10316
      21     H     0.45462  0.45462  0.00000  0.09076
      22     H     0.45497  0.45497  0.00000  0.09007
      23     H     0.44620  0.44620  0.00000  0.10759
      24     H     0.45359  0.45359  0.00000  0.09282

   Total alpha = 33.00000, Total beta = 33.00000, Total charge =  0.00000

*** Psi4 exiting successfully. Buy a developer a beer!
