  ==> Input File <==

--------------------------------------------------------------------------
set {
	reference rhf
	basis 6-31G*
}

set_num_threads( 4 )
memory 2 gb

molecule MOL {
0 1

H	 -2.172150	 0.880146	 0.502514
C	 -2.018062	 -0.000025	 -0.114509
O	 -0.774054	 0.001095	 -0.743181
H	 -2.760490	 0.003458	 -0.901350
H	 -2.173624	 -0.884374	 0.496163
C	 -0.322777	 1.170544	 -1.402930
C	 1.049410	 0.773728	 -1.942979
C	 -1.252169	 1.544579	 -2.562032
C	 -0.180400	 2.338678	 -0.421957
H	 0.955437	 -0.070111	 -2.617171
H	 1.701408	 0.481906	 -1.127434
H	 1.511395	 1.596400	 -2.479114
H	 -1.404099	 0.689560	 -3.212330
H	 -0.816959	 2.346796	 -3.149092
H	 -2.221590	 1.886103	 -2.215421
H	 0.420874	 2.041708	 0.430879
H	 0.306044	 3.179105	 -0.906299
H	 -1.141075	 2.686518	 -0.057617

	symmetry c1
}
set optking {
	frozen_dihedral = ("
		6 3 2 5
	")
}

ee = optimize('scf')
oeprop('DIPOLE', 'QUADRUPOLE', 'MULLIKEN_CHARGES')
f=open( 'psi4out.xyz', 'w' )
f.write( "18  " )
f.write( str(ee) + "\n" )
f.write( MOL.save_string_xyz() )
f.close()
--------------------------------------------------------------------------

    Molecular point group: c1
  Charge       = 0
  Multiplicity = 1
  Basis Set: 6-31G*
  Basis Set:
  @DF-RHF Final Energy:  -271.17277245730639
    Total Energy =                       -271.1727724573063369
    Molecular point group: c1
  Basis Set: 6-31G*
  Basis Set:
  Basis Set: 6-31G*
  Basis Set:
  @DF-RHF Final Energy:  -271.17488150714314
    Total Energy =                       -271.1748815071431409
  Basis Set: 6-31G*
  Basis Set:
  Basis Set: 6-31G*
  Basis Set:
  @DF-RHF Final Energy:  -271.17541025229855
    Total Energy =                       -271.1754102522987182
  Basis Set: 6-31G*
  Basis Set:
  Basis Set: 6-31G*
  Basis Set:
  @DF-RHF Final Energy:  -271.17532473504451
    Total Energy =                       -271.1753247350444553
  Basis Set: 6-31G*
  Basis Set:
  @DF-RHF Final Energy:  -271.17542811344327
    Total Energy =                       -271.1754281134433313
  Basis Set: 6-31G*
  Basis Set:
  @DF-RHF Final Energy:  -271.17542646861000
    Total Energy =                       -271.1754264686101692
  Basis Set: 6-31G*
  Basis Set:
  Basis Set: 6-31G*
  Basis Set:
  @DF-RHF Final Energy:  -271.17542969114635
    Total Energy =                       -271.1754296911463484
  Basis Set: 6-31G*
  Basis Set:
  Basis Set: 6-31G*
  Basis Set:
  @DF-RHF Final Energy:  -271.17543267469159
    Total Energy =                       -271.1754326746917627
  Basis Set: 6-31G*
  Basis Set:
  Charge       = 0
  Multiplicity = 1
  Basis Set: 6-31G*
  Basis Set:

    Orbital Energies (a.u.)
    -----------------------

    Doubly Occupied:

       1A    -20.546741     2A    -11.281297     3A    -11.260675
       4A    -11.209580     5A    -11.207810     6A    -11.203254
       7A     -1.370036     8A     -1.072979     9A     -0.946131
      10A     -0.939496    11A     -0.912449    12A     -0.752364
      13A     -0.655257    14A     -0.644430    15A     -0.637543
      16A     -0.592484    17A     -0.574230    18A     -0.552692
      19A     -0.534420    20A     -0.523951    21A     -0.514696
      22A     -0.487975    23A     -0.486400    24A     -0.438965
      25A     -0.404124

  @DF-RHF Final Energy:  -271.17543266017447

   => Energetics <=

    Nuclear Repulsion Energy =            272.3249956864794967
    One-Electron Energy =                -907.5008989776849830
    Two-Electron Energy =                 364.0004706310309643
    DFT Exchange-Correlation Energy =       0.0000000000000000
    Empirical Dispersion Energy =           0.0000000000000000
    PCM Polarization Energy =               0.0000000000000000
    EFP Energy =                            0.0000000000000000
    Total Energy =                       -271.1754326601745220
    Molecular point group: c1
  Basis Set: 6-31G*
  Basis Set:

  -Total Gradient:
     Atom            X                  Y                   Z
    ------   -----------------  -----------------  -----------------
       1       -0.000002040272     0.000008518484     0.000002708180
       2       -0.000109520060    -0.000232406560    -0.000284100502
       3       -0.000160881525    -0.000177532973    -0.000413709790
       4        0.000002875514    -0.000002774655     0.000005963099
       5        0.000154153924     0.000256758326     0.000372328444
       6        0.000113540819     0.000147613296     0.000327126595
       7       -0.000004217602     0.000003168303     0.000003938531
       8        0.000005873356     0.000015512036    -0.000016767189
       9        0.000004654999    -0.000017697754     0.000004901351
      10       -0.000003249984     0.000002127311    -0.000001273502
      11        0.000001168228    -0.000002769902    -0.000000077443
      12        0.000000490420     0.000002454048     0.000005415115
      13        0.000000889977     0.000000915326    -0.000003353401
      14       -0.000004175270    -0.000001090611    -0.000002912740
      15        0.000004489579     0.000001672090    -0.000001912153
      16       -0.000005352517     0.000002927342     0.000004712462
      17        0.000004960461    -0.000000189672    -0.000002470225
      18       -0.000003660046    -0.000007204431    -0.000000516837

  **** Optimization is complete! (in 9 steps) ****
    Final optimized geometry and variables:
    Molecular point group: c1

    Geometry (in Angstrom), charge = 0, multiplicity = 1:

    H           -1.675070945013    -0.104476820530     1.625993917526
    C           -1.452743341458    -0.972071447911     1.012225973191
    O           -0.161806264510    -0.942871755722     0.486896393792
    H           -2.208856561236    -1.050765122362     0.236553493068
    H           -1.512171863341    -1.851649843658     1.639378183809
    C            0.284808193517     0.209139839625    -0.206113134080
    C            1.646476129166    -0.204280895653    -0.759843835433
    C           -0.660201739252     0.571983447863    -1.355587032596
    C            0.450168351216     1.389869532417     0.756258698884
    H            1.537252064488    -1.051588808655    -1.427365218059
    H            2.305001188905    -0.496707268914     0.050208370820
    H            2.110086395528     0.610732589783    -1.306247022119
    H           -0.825927398365    -0.289077138837    -1.994712503730
    H           -0.230643163222     1.365315166906    -1.958444667544
    H           -1.622834563787     0.920970199699    -0.996930796510
    H            1.075506409832     1.102964999733     1.594779319124
    H            0.919388001932     2.227394980607     0.250033728432
    H           -0.500820640407     1.737932301042     1.144536788344

  Mulliken Charges: (a.u.)
   Center  Symbol    Alpha    Beta     Spin     Total
       1     H     0.43071  0.43071  0.00000  0.13858
       2     C     3.07942  3.07942  0.00000 -0.15884
       3     O     4.31868  4.31868  0.00000 -0.63735
       4     H     0.42816  0.42816  0.00000  0.14367
       5     H     0.41295  0.41295  0.00000  0.17410
       6     C     2.84277  2.84277  0.00000  0.31445
       7     C     3.23302  3.23302  0.00000 -0.46604
       8     C     3.24948  3.24948  0.00000 -0.49896
       9     C     3.24466  3.24466  0.00000 -0.48932
      10     H     0.41462  0.41462  0.00000  0.17077
      11     H     0.41371  0.41371  0.00000  0.17258
      12     H     0.42512  0.42512  0.00000  0.14976
      13     H     0.41351  0.41351  0.00000  0.17298
      14     H     0.41873  0.41873  0.00000  0.16254
      15     H     0.41983  0.41983  0.00000  0.16035
      16     H     0.41324  0.41324  0.00000  0.17351
      17     H     0.42075  0.42075  0.00000  0.15851
      18     H     0.42064  0.42064  0.00000  0.15872

   Total alpha = 25.00000, Total beta = 25.00000, Total charge =  0.00000
