                              Psi4 1.0.54 Driver

  ==> Input File <==

--------------------------------------------------------------------------
set {
	reference rhf
	basis cc-pvtz
}

set_num_threads( 4 )
memory 2 gb

molecule MOL {
0 1

H	 1.255098	 -1.093508	 0.261093
O	 1.283177	 -0.557228	 -0.510961
C	 0.675911	 0.671012	 -0.253512
C	 -0.793473	 0.591216	 0.050087
H	 0.824690	 1.278221	 -1.138648
H	 1.176103	 1.187185	 0.563846
C	 -1.534243	 -0.493009	 -0.013340
H	 -1.243428	 1.526524	 0.339892
H	 -1.101195	 -1.466332	 -0.144046
H	 -2.604242	 -0.437780	 0.050785

	symmetry c1
}
set optking {
	frozen_dihedral = ("
		3 4 7 9
	")
}

ee,wfn = optimize('scf', return_wfn=True)
oeprop( wfn, 'DIPOLE', 'QUADRUPOLE', 'MULLIKEN_CHARGES')
f=open( 'psi4out.xyz', 'w' )
f.write( "10  " )
f.write( str(ee) + "\n" )
f.write( MOL.save_string_xyz() )
f.close()
--------------------------------------------------------------------------

    Molecular point group: c1
  Charge       = 0
  Multiplicity = 1
  Basis Set: CC-PVTZ
  Basis Set:
  @DF-RHF Final Energy:  -191.99605506269796
    Total Energy =                       -191.9960550626980478
    Molecular point group: c1
  Basis Set: CC-PVTZ
  Basis Set:
  Basis Set: CC-PVTZ
  Basis Set:
  @DF-RHF Final Energy:  -191.99767293555328
    Total Energy =                       -191.9976729355533109
  Basis Set: CC-PVTZ
  Basis Set:
  Basis Set: CC-PVTZ
  Basis Set:
  @DF-RHF Final Energy:  -191.99784665214847
    Total Energy =                       -191.9978466521484961
  Basis Set: CC-PVTZ
  Basis Set:
  Basis Set: CC-PVTZ
  Basis Set:
  @DF-RHF Final Energy:  -191.99785141523989
    Total Energy =                       -191.9978514152398930
  Basis Set: CC-PVTZ
  Basis Set:
  Charge       = 0
  Multiplicity = 1
  Basis Set: CC-PVTZ
  Basis Set:

    Orbital Energies (a.u.)
    -----------------------

    Doubly Occupied:

       1A    -20.554476     2A    -11.278227     3A    -11.229964
       4A    -11.216642     5A     -1.374670     6A     -1.062041
       7A     -0.932011     8A     -0.771555     9A     -0.692546
      10A     -0.664687    11A     -0.619935    12A     -0.574618
      13A     -0.541536    14A     -0.495492    15A     -0.452350
      16A     -0.368511

  @DF-RHF Final Energy:  -191.99785375669967

   => Energetics <=

    Nuclear Repulsion Energy =            119.4555451448569698
    One-Electron Energy =                -497.2482693351929584
    Two-Electron Energy =                 185.7948704336362198
    DFT Exchange-Correlation Energy =       0.0000000000000000
    Empirical Dispersion Energy =           0.0000000000000000
    PCM Polarization Energy =               0.0000000000000000
    EFP Energy =                            0.0000000000000000
    Total Energy =                       -191.9978537566997829
    Molecular point group: c1
  Basis Set: CC-PVTZ
  Basis Set:

  -Total Gradient:
     Atom            X                  Y                   Z
    ------   -----------------  -----------------  -----------------
       1        0.000010649506    -0.000003319930    -0.000004315343
       2        0.000010898481     0.000005065568     0.000004031801
       3       -0.000957118818     0.001099952559    -0.004306834334
       4        0.001782923185    -0.002267553047     0.009736936936
       5        0.000009598310     0.000009328126     0.000004796267
       6        0.000005519518     0.000008208173     0.000001062456
       7       -0.001251273780     0.002080301959    -0.011418733537
       8       -0.000017433877     0.000003353975     0.000008726169
       9        0.000421753135    -0.000939762794     0.005982751676
      10       -0.000015515660     0.000004425413    -0.000008422093

  **** Optimization is complete! (in 5 steps) ****
    Final optimized geometry and variables:
    Molecular point group: c1

    Geometry (in Angstrom), charge = 0, multiplicity = 1:

    H            1.299008317508    -1.094940613774     0.516915386806
    O            1.306006244446    -0.597108834422    -0.280798197791
    C            0.697885794979     0.640185875745    -0.070131178174
    C           -0.771547595234     0.572119830227     0.237497902981
    H            0.833408724429     1.208610068980    -0.982453246008
    H            1.207018430217     1.192205864360     0.717765053080
    C           -1.533240253601    -0.493757188794     0.124744215108
    H           -1.222213426824     1.521945276461     0.474892498780
    H           -1.121717946822    -1.468296952860    -0.056485382933
    H           -2.589663476502    -0.438607224647     0.307721941241

  Mulliken Charges: (a.u.)
   Center  Symbol    Alpha    Beta     Spin     Total
       1     H     0.39151  0.39151  0.00000  0.21697
       2     O     4.19876  4.19876  0.00000 -0.39753
       3     C     2.95121  2.95121  0.00000  0.09758
       4     C     3.08809  3.08809  0.00000 -0.17618
       5     H     0.45292  0.45292  0.00000  0.09417
       6     H     0.46775  0.46775  0.00000  0.06451
       7     C     3.17161  3.17161  0.00000 -0.34322
       8     H     0.42383  0.42383  0.00000  0.15233
       9     H     0.42609  0.42609  0.00000  0.14783
      10     H     0.42823  0.42823  0.00000  0.14354

   Total alpha = 16.00000, Total beta = 16.00000, Total charge =  0.00000

*** Psi4 exiting successfully. Buy a developer a beer!
