  ==> Input File <==

--------------------------------------------------------------------------
set {
	reference rhf
	basis cc-pvtz
}

set_num_threads( 4 )
memory 2 gb

molecule MOL {
0 1

O	 -0.694481	 1.313155	 -0.204815
C	 -0.862519	 0.151932	 -0.046791
C	 -2.171428	 -0.477048	 0.339095
O	 0.085519	 -0.757083	 -0.192238
H	 -2.467997	 -1.191667	 -0.417688
H	 -2.923379	 0.287970	 0.444097
H	 -2.053854	 -1.015120	 1.270901
C	 1.392036	 -0.330828	 -0.560749
C	 1.542019	 -0.220858	 -2.063849
H	 2.118355	 -1.012384	 -0.146311
H	 1.507495	 0.634490	 -0.091087
H	 2.524906	 0.169157	 -2.303167
H	 1.436718	 -1.188669	 -2.534631
H	 0.799320	 0.452621	 -2.474236

	symmetry c1
}
set optking {
	frozen_dihedral = ("
		10 8 4 2
	")
}

ee = optimize('scf')
oeprop('DIPOLE', 'QUADRUPOLE', 'MULLIKEN_CHARGES')
f=open( 'psi4out.xyz', 'w' )
f.write( "14  " )
f.write( str(ee) + "\n" )
f.write( MOL.save_string_xyz() )
f.close()
--------------------------------------------------------------------------

    Molecular point group: c1
  Charge       = 0
  Multiplicity = 1
  Basis Set: CC-PVTZ
  Basis Set:
  @DF-RHF Final Energy:  -305.98946464896909
    Total Energy =                       -305.9894646489697152
    Molecular point group: c1
  Basis Set: CC-PVTZ
  Basis Set:
  Basis Set: CC-PVTZ
  Basis Set:
  @DF-RHF Final Energy:  -305.99082232956283
    Total Energy =                       -305.9908223295628318
  Basis Set: CC-PVTZ
  Basis Set:
  Basis Set: CC-PVTZ
  Basis Set:
  @DF-RHF Final Energy:  -305.99110034882301
    Total Energy =                       -305.9911003488230676
  Basis Set: CC-PVTZ
  Basis Set:
  Basis Set: CC-PVTZ
  Basis Set:
  @DF-RHF Final Energy:  -305.99110719208363
    Total Energy =                       -305.9911071920838594
  Basis Set: CC-PVTZ
  Basis Set:
  Basis Set: CC-PVTZ
  Basis Set:
  @DF-RHF Final Energy:  -305.99111258266373
    Total Energy =                       -305.9911125826640159
  Basis Set: CC-PVTZ
  Basis Set:
  Basis Set: CC-PVTZ
  Basis Set:
  @DF-RHF Final Energy:  -305.99111387506480
    Total Energy =                       -305.9911138750647410
  Basis Set: CC-PVTZ
  Basis Set:
  Charge       = 0
  Multiplicity = 1
  Basis Set: CC-PVTZ
  Basis Set:

    Orbital Energies (a.u.)
    -----------------------

    Doubly Occupied:

       1A    -20.594253     2A    -20.533027     3A    -11.368100
       4A    -11.282803     5A    -11.231574     6A    -11.217633
       7A     -1.470352     8A     -1.365820     9A     -1.056304
      10A     -0.999601    11A     -0.883086    12A     -0.768536
      13A     -0.701104    14A     -0.685729    15A     -0.660346
      16A     -0.611994    17A     -0.586848    18A     -0.570998
      19A     -0.560885    20A     -0.529471    21A     -0.519725
      22A     -0.494681    23A     -0.454106    24A     -0.442677

  @DF-RHF Final Energy:  -305.99111407072667

   => Energetics <=

    Nuclear Repulsion Energy =            248.8157331775375098
    One-Electron Energy =                -910.4343907828957754
    Two-Electron Energy =                 355.6275435346311724
    DFT Exchange-Correlation Energy =       0.0000000000000000
    Empirical Dispersion Energy =           0.0000000000000000
    PCM Polarization Energy =               0.0000000000000000
    EFP Energy =                            0.0000000000000000
    Total Energy =                       -305.9911140707271215
    Molecular point group: c1
  Basis Set: CC-PVTZ
  Basis Set:

  -Total Gradient:
     Atom            X                  Y                   Z
    ------   -----------------  -----------------  -----------------
       1        0.000012206514    -0.000006732023    -0.000003824478
       2        0.000125258017     0.000036613360     0.000578639868
       3       -0.000005771381     0.000005787232     0.000001412609
       4       -0.000214091401     0.000006153986    -0.000732577918
       5        0.000006287368     0.000003003736     0.000001378723
       6       -0.000003775217    -0.000001317654     0.000001981062
       7       -0.000004404253    -0.000001057638     0.000003531996
       8        0.000037413340    -0.000406184787    -0.000411067428
       9       -0.000002338376     0.000001137803     0.000011441689
      10        0.000031547606     0.000362108085     0.000564121774
      11        0.000012938223    -0.000006949169    -0.000007374928
      12       -0.000000594283     0.000007714618    -0.000007751701
      13        0.000005001327     0.000002131599    -0.000001539947
      14        0.000000322516    -0.000002409150     0.000001628680

  **** Optimization is complete! (in 7 steps) ****
    Final optimized geometry and variables:
    Molecular point group: c1

    Geometry (in Angstrom), charge = 0, multiplicity = 1:

    O           -0.610578995341     1.364196436558     0.265877857793
    C           -0.757049181121     0.198973128518     0.415038716290
    C           -2.050884941979    -0.455328767333     0.809339095284
    O            0.204810992543    -0.693211771629     0.254774390755
    H           -2.342805698096    -1.168508183189     0.049348366221
    H           -2.814780861140     0.295724067654     0.927805798011
    H           -1.914786466299    -0.999151518351     1.735178446011
    C            1.507216477933    -0.244119337027    -0.101175176161
    C            1.675979819001    -0.175935890525    -1.604289812730
    H            2.179121822397    -0.968680306706     0.334319012829
    H            1.688339258400     0.716740307083     0.353541350300
    H            2.693746929124     0.109776264398    -1.844793375131
    H            1.475779449443    -1.139316159111    -2.057170444420
    H            1.007035813846     0.558310279837    -2.033135564078

  Mulliken Charges: (a.u.)
   Center  Symbol    Alpha    Beta     Spin     Total
       1     O     4.19917  4.19917  0.00000 -0.39833
       2     C     2.80156  2.80156  0.00000  0.39687
       3     C     3.13875  3.13875  0.00000 -0.27751
       4     O     4.15766  4.15766  0.00000 -0.31532
       5     H     0.44591  0.44591  0.00000  0.10818
       6     H     0.43828  0.43828  0.00000  0.12344
       7     H     0.44573  0.44573  0.00000  0.10854
       8     C     2.98562  2.98562  0.00000  0.02876
       9     C     3.14650  3.14650  0.00000 -0.29301
      10     H     0.44511  0.44511  0.00000  0.10978
      11     H     0.44804  0.44804  0.00000  0.10392
      12     H     0.45171  0.45171  0.00000  0.09658
      13     H     0.45219  0.45219  0.00000  0.09561
      14     H     0.44376  0.44376  0.00000  0.11248

   Total alpha = 24.00000, Total beta = 24.00000, Total charge = -0.00000
