  ==> Input File <==

--------------------------------------------------------------------------
set {
	reference rhf
	basis 6-31G*
}

set_num_threads( 1 )
memory 2 gb

molecule MOL {
0 1

H	 -0.021362	 1.262648	 4.626072
C	 -0.660881	 0.405515	 4.381205
C	 -1.481766	 0.560795	 3.126355
O	 -0.671714	 -0.551837	 5.084845
C	 -0.631681	 0.961804	 1.912764
H	 -2.015957	 -0.365658	 2.950188
H	 -2.218557	 1.339333	 3.320445
C	 0.348616	 -0.126469	 1.467815
H	 -1.298616	 1.204518	 1.090832
H	 -0.086345	 1.876516	 2.140069
C	 1.180775	 0.282413	 0.250794
H	 -0.206604	 -1.034009	 1.239890
H	 1.015814	 -0.380483	 2.289316
C	 2.148627	 -0.814315	 -0.201312
H	 0.509257	 0.544823	 -0.562801
H	 1.744483	 1.184240	 0.486006
C	 3.580890	 -0.659131	 0.322722
H	 2.166869	 -0.852443	 -1.289387
H	 1.762857	 -1.776509	 0.128956
C	 4.324889	 0.564933	 -0.213704
H	 4.142010	 -1.551473	 0.056605
H	 3.564836	 -0.624694	 1.410140
H	 4.342616	 0.565491	 -1.300421
H	 3.866655	 1.493402	 0.110242
H	 5.353900	 0.572371	 0.132816

	symmetry c1
}
set optking {
	frozen_dihedral = ("
		6 3 5 8,
		6 3 2 4,
		3 5 8 12,
		12 8 11 14,
		20 17 14 18
	")
}

ee = energy('scf')
oeprop('DIPOLE', 'QUADRUPOLE', 'MULLIKEN_CHARGES')
f=open( 'psi4out.xyz', 'w' )
f.write( "25  " )
f.write( str(ee) + "\n" )
f.write( MOL.save_string_xyz() )
f.close()
--------------------------------------------------------------------------

    Molecular point group: c1

    Geometry (in Angstrom), charge = 0, multiplicity = 1:

       Center              X                  Y                   Z               Mass
    ------------   -----------------  -----------------  -----------------  -----------------
           H         -0.940565768651     1.194234957878     2.824231714390     1.007825032070
           C         -1.580084768651     0.337101957878     2.579364714390    12.000000000000
           C         -2.400969768651     0.492381957878     1.324514714390    12.000000000000
           O         -1.590917768651    -0.620250042122     3.283004714390    15.994914619560
           C         -1.550884768651     0.893390957878     0.110923714390    12.000000000000
           H         -2.935160768651    -0.434071042122     1.148347714390     1.007825032070
           H         -3.137760768651     1.270919957878     1.518604714390     1.007825032070
           C         -0.570587768651    -0.194882042122    -0.334025285610    12.000000000000
           H         -2.217819768651     1.136104957878    -0.711008285610     1.007825032070
           H         -1.005548768651     1.808102957878     0.338228714390     1.007825032070
           C          0.261571231349     0.213999957878    -1.551046285610    12.000000000000
           H         -1.125807768651    -1.102422042122    -0.561950285610     1.007825032070
           H          0.096610231349    -0.448896042122     0.487475714390     1.007825032070
           C          1.229423231349    -0.882728042122    -2.003152285610    12.000000000000
           H         -0.409946768651     0.476409957878    -2.364641285610     1.007825032070
           H          0.825279231349     1.115826957878    -1.315834285610     1.007825032070
           C          2.661686231349    -0.727544042122    -1.479118285610    12.000000000000
           H          1.247665231349    -0.920856042122    -3.091227285610     1.007825032070
           H          0.843653231349    -1.844922042122    -1.672884285610     1.007825032070
           C          3.405685231349     0.496519957878    -2.015544285610    12.000000000000
           H          3.222806231349    -1.619886042122    -1.745235285610     1.007825032070
           H          2.645632231349    -0.693107042122    -0.391700285610     1.007825032070
           H          3.423412231349     0.497077957878    -3.102261285610     1.007825032070
           H          2.947451231349     1.424988957878    -1.691598285610     1.007825032070
           H          4.434696231349     0.503957957878    -1.669024285610     1.007825032070

  Charge       = 0
  Multiplicity = 1
  Basis Set: 6-31G*
  Basis Set:

    Orbital Energies (a.u.)
    -----------------------

    Doubly Occupied:

       1A    -20.562035     2A    -11.326199     3A    -11.235084
       4A    -11.234488     5A    -11.223812     6A    -11.218568
       7A    -11.217956     8A    -11.215832     9A    -11.210867
      10A     -1.402031    11A     -1.104407    12A     -1.069591
      13A     -1.012216    14A     -0.942695    15A     -0.875028
      16A     -0.826126    17A     -0.788128    18A     -0.775606
      19A     -0.665284    20A     -0.660239    21A     -0.634046
      22A     -0.624219    23A     -0.609207    24A     -0.589135
      25A     -0.569947    26A     -0.557655    27A     -0.535347
      28A     -0.521578    29A     -0.514001    30A     -0.495739
      31A     -0.489463    32A     -0.482490    33A     -0.459331
      34A     -0.453530    35A     -0.443421    36A     -0.409576

  @DF-RHF Final Energy:  -387.11757709167637

   => Energetics <=

    Nuclear Repulsion Energy =            444.4609947985957206
    One-Electron Energy =               -1405.2476973282502968
    Two-Electron Energy =                 573.6691254379759357
    DFT Exchange-Correlation Energy =       0.0000000000000000
    Empirical Dispersion Energy =           0.0000000000000000
    PCM Polarization Energy =               0.0000000000000000
    EFP Energy =                            0.0000000000000000
    Total Energy =                       -387.1175770916786405

  Mulliken Charges: (a.u.)
   Center  Symbol    Alpha    Beta     Spin     Total
       1     H     0.43265  0.43265  0.00000  0.13470
       2     C     2.83085  2.83085  0.00000  0.33830
       3     C     3.20809  3.20809  0.00000 -0.41618
       4     O     4.23782  4.23782  0.00000 -0.47564
       5     C     3.16671  3.16671  0.00000 -0.33342
       6     H     0.39975  0.39975  0.00000  0.20050
       7     H     0.40676  0.40676  0.00000  0.18648
       8     C     3.15674  3.15674  0.00000 -0.31348
       9     H     0.41276  0.41276  0.00000  0.17448
      10     H     0.41973  0.41973  0.00000  0.16053
      11     C     3.15586  3.15586  0.00000 -0.31173
      12     H     0.41768  0.41768  0.00000  0.16464
      13     H     0.41816  0.41816  0.00000  0.16367
      14     C     3.15695  3.15695  0.00000 -0.31390
      15     H     0.42016  0.42016  0.00000  0.15969
      16     H     0.42086  0.42086  0.00000  0.15827
      17     C     3.15427  3.15427  0.00000 -0.30855
      18     H     0.42094  0.42094  0.00000  0.15812
      19     H     0.41892  0.41892  0.00000  0.16215
      20     C     3.24080  3.24080  0.00000 -0.48160
      21     H     0.41971  0.41971  0.00000  0.16059
      22     H     0.42263  0.42263  0.00000  0.15474
      23     H     0.42168  0.42168  0.00000  0.15664
      24     H     0.42130  0.42130  0.00000  0.15740
      25     H     0.41821  0.41821  0.00000  0.16358

   Total alpha = 36.00000, Total beta = 36.00000, Total charge =  0.00000
