                              Psi4 1.0.54 Driver

  ==> Input File <==

--------------------------------------------------------------------------
set {
	reference rhf
	basis cc-pvtz
}

set_num_threads( 4 )
memory 2 gb

molecule MOL {
0 1

O	 -2.081319	 -0.951530	 -0.502732
N	 -1.613558	 0.006676	 0.014756
C	 -0.329345	 -0.171618	 0.743966
O	 -2.068523	 1.100482	 -0.024385
C	 0.835904	 0.041968	 -0.213982
H	 -0.346048	 -1.174374	 1.137184
H	 -0.333613	 0.555559	 1.538590
C	 0.361973	 0.090301	 -1.664231
H	 1.337691	 0.967542	 0.043079
H	 1.550131	 -0.762868	 -0.084157
C	 1.510757	 0.296182	 -2.645245
H	 -0.361297	 0.891961	 -1.781107
H	 -0.157959	 -0.832257	 -1.904988
H	 2.029027	 1.228364	 -2.449979
H	 2.235012	 -0.507541	 -2.573128
H	 1.148057	 0.325511	 -3.665417

	symmetry c1
}
set optking {
	frozen_dihedral = ("
		9 5 3 2
	")
}

ee,wfn = optimize('scf', return_wfn=True)
oeprop( wfn, 'DIPOLE', 'QUADRUPOLE', 'MULLIKEN_CHARGES')
f=open( 'psi4out.xyz', 'w' )
f.write( "16  " )
f.write( str(ee) + "\n" )
f.write( MOL.save_string_xyz() )
f.close()
--------------------------------------------------------------------------

    Molecular point group: c1
  Charge       = 0
  Multiplicity = 1
  Basis Set: CC-PVTZ
  Basis Set:
  @DF-RHF Final Energy:  -360.89691468997870
    Total Energy =                       -360.8969146899786438
    Molecular point group: c1
  Basis Set: CC-PVTZ
  Basis Set:
  Basis Set: CC-PVTZ
  Basis Set:
  @DF-RHF Final Energy:  -360.89667332935522
    Total Energy =                       -360.8966733293545985
  Basis Set: CC-PVTZ
  Basis Set:
  Basis Set: CC-PVTZ
  Basis Set:
  @DF-RHF Final Energy:  -360.90057907899558
    Total Energy =                       -360.9005790789954062
  Basis Set: CC-PVTZ
  Basis Set:
  Basis Set: CC-PVTZ
  Basis Set:
  @DF-RHF Final Energy:  -360.90195894223501
    Total Energy =                       -360.9019589422348417
  Basis Set: CC-PVTZ
  Basis Set:
  @DF-RHF Final Energy:  -360.90204251762680
    Total Energy =                       -360.9020425176273648
  @DF-RHF Final Energy:  -360.90208086834673
    Total Energy =                       -360.9020808683465589
  @DF-RHF Final Energy:  -360.90209140615173
    Total Energy =                       -360.9020914061517260
  @DF-RHF Final Energy:  -360.90209965465164
    Total Energy =                       -360.9020996546516926
  @DF-RHF Final Energy:  -360.90210588525650
    Total Energy =                       -360.9021058852565602
  Basis Set: CC-PVTZ
  Basis Set:
  @DF-RHF Final Energy:  -360.90211060296195
    Total Energy =                       -360.9021106029617840
  Basis Set: CC-PVTZ
  Basis Set:
  Basis Set: CC-PVTZ
  Basis Set:
  @DF-RHF Final Energy:  -360.90211376592578
    Total Energy =                       -360.9021137659260035
  Basis Set: CC-PVTZ
  Basis Set:
  Basis Set: CC-PVTZ
  Basis Set:
  @DF-RHF Final Energy:  -360.90211571063816
    Total Energy =                       -360.9021157106382134
  Basis Set: CC-PVTZ
  Basis Set:
  Charge       = 0
  Multiplicity = 1
  Basis Set: CC-PVTZ
  Basis Set:

    Orbital Energies (a.u.)
    -----------------------

    Doubly Occupied:

       1A    -20.591231     2A    -20.588880     3A    -15.836259
       4A    -11.296760     5A    -11.251784     6A    -11.232336
       7A    -11.220827     8A     -1.635590     9A     -1.419683
      10A     -1.130798    11A     -1.054962    12A     -0.947179
      13A     -0.857852    14A     -0.814558    15A     -0.748993
      16A     -0.737814    17A     -0.730108    18A     -0.672342
      19A     -0.615837    20A     -0.598738    21A     -0.576084
      22A     -0.538899    23A     -0.507400    24A     -0.496832
      25A     -0.495203    26A     -0.477210    27A     -0.473008
      28A     -0.452204

  @DF-RHF Final Energy:  -360.90211570739342

   => Energetics <=

    Nuclear Repulsion Energy =            322.0980569648206142
    One-Electron Energy =               -1130.0015927905496937
    Two-Electron Energy =                 447.0014201183357727
    DFT Exchange-Correlation Energy =       0.0000000000000000
    Empirical Dispersion Energy =           0.0000000000000000
    PCM Polarization Energy =               0.0000000000000000
    EFP Energy =                            0.0000000000000000
    Total Energy =                       -360.9021157073932500
    Molecular point group: c1
  Basis Set: CC-PVTZ
  Basis Set:

  -Total Gradient:
     Atom            X                  Y                   Z
    ------   -----------------  -----------------  -----------------
       1        0.000001070150     0.000006017097    -0.000000068787
       2       -0.000151726414    -0.003009174011    -0.000889013912
       3        0.000817187816     0.003563988980     0.001706857497
       4       -0.000001851653    -0.000002703381    -0.000003096710
       5       -0.003334534718     0.001724765932    -0.003057789163
       6        0.000020964536     0.000006668894     0.000026566390
       7       -0.000021376918     0.000026961892    -0.000021806573
       8       -0.000013062830     0.000021948438     0.000014496939
       9        0.002703794034    -0.002316532028     0.002253038454
      10       -0.000021732103    -0.000023920935    -0.000020175231
      11        0.000004601504     0.000000496197    -0.000008035386
      12       -0.000007399659    -0.000000646669     0.000002996516
      13        0.000004043186     0.000000729944     0.000000251419
      14       -0.000001105128    -0.000001255952     0.000000482240
      15       -0.000001611605     0.000001376548     0.000000237563
      16        0.000002739802     0.000001279056    -0.000004941250

  **** Optimization is complete! (in 13 steps) ****
    Final optimized geometry and variables:
    Molecular point group: c1

    Geometry (in Angstrom), charge = 0, multiplicity = 1:

    O           -1.723710497729    -0.995157516734     0.369207034015
    N           -1.118821771318    -0.052220838273     0.754256817008
    C            0.251939142054    -0.284463112141     1.285737424984
    O           -1.511164637265     1.067092393834     0.739316119696
    C            1.346952736011    -0.030939040698     0.226283890268
    H            0.249202789266    -1.309164536394     1.612905838211
    H            0.351707875806     0.378869433538     2.127255308399
    C            0.900799333420     0.040156918012    -1.233376803186
    H            1.889134250259     0.865961883391     0.497785077921
    H            2.060248809651    -0.840955654178     0.328948985494
    C            2.085628602286     0.243423831851    -2.171349656534
    H            0.196358850090     0.852669797744    -1.364123718149
    H            0.379544152582    -0.871918051941    -1.500213948358
    H            2.610959676401     1.165347170320    -1.946711803992
    H            2.796484616739    -0.571977539399    -2.091369714422
    H            1.754858958592     0.293975407476    -3.201335413774

  Mulliken Charges: (a.u.)
   Center  Symbol    Alpha    Beta     Spin     Total
       1     O     4.17461  4.17461  0.00000 -0.34923
       2     N     3.27450  3.27450  0.00000  0.45100
       3     C     3.03952  3.03952  0.00000 -0.07904
       4     O     4.17568  4.17568  0.00000 -0.35136
       5     C     3.10004  3.10004  0.00000 -0.20009
       6     H     0.43400  0.43400  0.00000  0.13199
       7     H     0.43098  0.43098  0.00000  0.13804
       8     C     3.09631  3.09631  0.00000 -0.19263
       9     H     0.44384  0.44384  0.00000  0.11231
      10     H     0.44742  0.44742  0.00000  0.10515
      11     C     3.15133  3.15133  0.00000 -0.30266
      12     H     0.43935  0.43935  0.00000  0.12131
      13     H     0.44013  0.44013  0.00000  0.11973
      14     H     0.45375  0.45375  0.00000  0.09250
      15     H     0.45482  0.45482  0.00000  0.09036
      16     H     0.44370  0.44370  0.00000  0.11260

   Total alpha = 28.00000, Total beta = 28.00000, Total charge = -0.00000

*** Psi4 exiting successfully. Buy a developer a beer!
