                              Psi4 1.0.54 Driver

  ==> Input File <==

--------------------------------------------------------------------------
set {
	reference rhf
	basis cc-pvtz
}

set_num_threads( 4 )
memory 2 gb

molecule MOL {
0 1

O	 -2.817697	 1.304178	 0.001046
C	 -2.664672	 0.129869	 0.003507
C	 -3.797908	 -0.860100	 -0.001145
O	 -1.481217	 -0.452708	 0.001092
H	 -4.408836	 -0.679689	 -0.875387
H	 -3.443486	 -1.878443	 -0.002770
H	 -4.412123	 -0.683688	 0.871605
C	 -0.332055	 0.384012	 -0.000250
C	 0.892252	 -0.506059	 -0.000295
H	 -0.360822	 1.020205	 -0.874146
H	 -0.359817	 1.021310	 0.872861
C	 0.961598	 -1.387673	 -1.243802
H	 0.878132	 -1.123866	 0.891773
H	 1.779380	 0.115740	 0.063217
C	 2.189101	 -2.294241	 -1.266081
H	 0.064878	 -1.999322	 -1.305081
H	 0.964116	 -0.761432	 -2.132504
C	 2.259396	 -3.174545	 -2.509114
H	 2.186782	 -2.921772	 -0.379370
H	 3.085828	 -1.684124	 -1.205054
H	 1.391685	 -3.821770	 -2.579993
H	 3.141045	 -3.804602	 -2.493914
H	 2.297368	 -2.574520	 -3.412098

	symmetry c1
}
set optking {
	frozen_dihedral = ("
		13 9 8 10
	")
}

ee,wfn = optimize('scf', return_wfn=True)
oeprop( wfn, 'DIPOLE', 'QUADRUPOLE', 'MULLIKEN_CHARGES')
f=open( 'psi4out.xyz', 'w' )
f.write( "23  " )
f.write( str(ee) + "\n" )
f.write( MOL.save_string_xyz() )
f.close()
--------------------------------------------------------------------------

    Molecular point group: c1
  Charge       = 0
  Multiplicity = 1
  Basis Set: CC-PVTZ
  Basis Set:
  @DF-RHF Final Energy:  -423.13422173269345
    Total Energy =                       -423.1342217326932769
    Molecular point group: c1
  Basis Set: CC-PVTZ
  Basis Set:
  Basis Set: CC-PVTZ
  Basis Set:
  @DF-RHF Final Energy:  -423.13435110720934
    Total Energy =                       -423.1343511072089996
  Basis Set: CC-PVTZ
  Basis Set:
  Basis Set: CC-PVTZ
  Basis Set:
  @DF-RHF Final Energy:  -423.13442822544391
    Total Energy =                       -423.1344282254437985
  Basis Set: CC-PVTZ
  Basis Set:
  Basis Set: CC-PVTZ
  Basis Set:
  @DF-RHF Final Energy:  -423.13459135911040
    Total Energy =                       -423.1345913591103454
  Basis Set: CC-PVTZ
  Basis Set:
  Basis Set: CC-PVTZ
  Basis Set:
  @DF-RHF Final Energy:  -423.13459245590411
    Total Energy =                       -423.1345924559042260
  Basis Set: CC-PVTZ
  Basis Set:
  Charge       = 0
  Multiplicity = 1
  Basis Set: CC-PVTZ
  Basis Set:

    Orbital Energies (a.u.)
    -----------------------

    Doubly Occupied:

       1A    -20.596311     2A    -20.529951     3A    -11.366913
       4A    -11.280123     5A    -11.231252     6A    -11.223490
       7A    -11.217500     8A    -11.216230     9A    -11.209538
      10A     -1.471600    11A     -1.364476    12A     -1.093094
      13A     -1.042572    14A     -1.003774    15A     -0.931951
      16A     -0.843715    17A     -0.802799    18A     -0.776905
      19A     -0.691359    20A     -0.686759    21A     -0.669863
      22A     -0.644733    23A     -0.608692    24A     -0.586790
      25A     -0.580077    26A     -0.572574    27A     -0.560328
      28A     -0.533147    29A     -0.530936    30A     -0.510056
      31A     -0.495001    32A     -0.474946    33A     -0.469017
      34A     -0.462206    35A     -0.449773    36A     -0.441233

  @DF-RHF Final Energy:  -423.13459329684002

   => Energetics <=

    Nuclear Repulsion Energy =            458.9417831450268181
    One-Electron Energy =               -1485.8133772996566222
    Two-Electron Energy =                 603.7370008577893259
    DFT Exchange-Correlation Energy =       0.0000000000000000
    Empirical Dispersion Energy =           0.0000000000000000
    PCM Polarization Energy =               0.0000000000000000
    EFP Energy =                            0.0000000000000000
    Total Energy =                       -423.1345932968404213
    Molecular point group: c1
  Basis Set: CC-PVTZ
  Basis Set:

  -Total Gradient:
     Atom            X                  Y                   Z
    ------   -----------------  -----------------  -----------------
       1       -0.000012498907     0.000007752680    -0.000034403168
       2        0.000008580118    -0.000020341426     0.000042704532
       3        0.000021164148     0.000016372397    -0.000035057330
       4        0.000008324769     0.000023725357    -0.000016002391
       5       -0.000022806987     0.000011686476    -0.000007026520
       6        0.000003279721    -0.000011168401     0.000003031432
       7       -0.000002489740    -0.000006735717     0.000025308901
       8       -0.000243116707    -0.000367493504    -0.000182034570
       9       -0.000249948608    -0.000305621487    -0.000246841079
      10        0.000240379473     0.000338065578     0.000229400836
      11       -0.000017744157    -0.000015944659    -0.000013757846
      12       -0.000000065193     0.000003480309     0.000035081828
      13        0.000241210411     0.000337629324     0.000239007939
      14        0.000017503362    -0.000003867279    -0.000002371652
      15        0.000006928180     0.000025785064    -0.000023406628
      16        0.000003976477     0.000011833221    -0.000002018567
      17        0.000006780622    -0.000025140206     0.000005440128
      18        0.000016296989    -0.000031978632    -0.000005475883
      19       -0.000010355786     0.000020551387    -0.000012480115
      20       -0.000015249018    -0.000012117244     0.000002968331
      21        0.000015214401     0.000011200402    -0.000001627190
      22       -0.000016699610    -0.000000166563    -0.000011804346
      23        0.000001336040    -0.000007507082     0.000011363360

  **** Optimization is complete! (in 6 steps) ****
    Final optimized geometry and variables:
    Molecular point group: c1

    Geometry (in Angstrom), charge = 0, multiplicity = 1:

    O           -2.261452438653     2.091585212009     0.559932653066
    C           -2.136159416867     0.914150119548     0.577186578848
    C           -3.293026568415    -0.047951034702     0.605969017142
    O           -0.966747602261     0.304018050865     0.573149516116
    H           -3.907895952626     0.127497508002    -0.266651014263
    H           -2.963855330795    -1.074658144970     0.624396146784
    H           -3.894246181777     0.163270305992     1.480097552746
    C            0.201998822775     1.114160393046     0.550102727601
    C            1.416005499510     0.209274824885     0.533542716624
    H            0.171493692735     1.754152688614    -0.321248253529
    H            0.202206221936     1.749099521676     1.424707602501
    C            1.532289030211    -0.662735713816    -0.713300870235
    H            1.404097417927    -0.412032570425     1.423742737427
    H            2.291552563591     0.847806815912     0.613686601819
    C            2.780881500593    -1.540060994922    -0.711596312158
    H            0.651631522819    -1.290077766417    -0.798156695602
    H            1.542777453449    -0.025739964731    -1.594868027457
    C            2.900336898862    -2.411460995471    -1.957291619436
    H            2.771981754768    -2.173625200689     0.171072700488
    H            3.663263771693    -0.911587222382    -0.625991832727
    H            2.048529017363    -3.076503029202    -2.052264005912
    H            3.794851601378    -3.022607784179    -1.924700419501
    H            2.946579714052    -1.805381922142    -2.855928381741

  Mulliken Charges: (a.u.)
   Center  Symbol    Alpha    Beta     Spin     Total
       1     O     4.20267  4.20267  0.00000 -0.40533
       2     C     2.81223  2.81223  0.00000  0.37554
       3     C     3.13993  3.13993  0.00000 -0.27987
       4     O     4.14818  4.14818  0.00000 -0.29635
       5     H     0.44197  0.44197  0.00000  0.11606
       6     H     0.44230  0.44230  0.00000  0.11541
       7     H     0.44156  0.44156  0.00000  0.11689
       8     C     2.99274  2.99274  0.00000  0.01453
       9     C     3.08798  3.08798  0.00000 -0.17596
      10     H     0.45086  0.45086  0.00000  0.09827
      11     H     0.44454  0.44454  0.00000  0.11092
      12     C     3.08898  3.08898  0.00000 -0.17796
      13     H     0.45121  0.45121  0.00000  0.09759
      14     H     0.45125  0.45125  0.00000  0.09750
      15     C     3.08535  3.08535  0.00000 -0.17070
      16     H     0.44691  0.44691  0.00000  0.10618
      17     H     0.45546  0.45546  0.00000  0.08908
      18     C     3.14956  3.14956  0.00000 -0.29911
      19     H     0.45387  0.45387  0.00000  0.09226
      20     H     0.45476  0.45476  0.00000  0.09048
      21     H     0.45485  0.45485  0.00000  0.09031
      22     H     0.44806  0.44806  0.00000  0.10388
      23     H     0.45480  0.45480  0.00000  0.09040

   Total alpha = 36.00000, Total beta = 36.00000, Total charge =  0.00000

*** Psi4 exiting successfully. Buy a developer a beer!
