                              Psi4 1.0.54 Driver

  ==> Input File <==

--------------------------------------------------------------------------
set {
	reference rhf
	basis cc-pvtz
}

set_num_threads( 4 )
memory 2 gb

molecule MOL {
0 1

O	 2.108961	 -0.184554	 -0.574986
C	 1.121787	 0.124983	 0.000110
C	 -0.170912	 -0.649867	 -0.000147
O	 1.025531	 1.220149	 0.736128
C	 -1.413045	 0.229353	 0.001137
H	 -0.152877	 -1.303435	 -0.866175
H	 -0.152278	 -1.305116	 0.864586
C	 -2.702562	 -0.586401	 0.000228
H	 -1.390744	 0.882001	 -0.864365
H	 -1.390549	 0.879837	 0.868264
C	 -3.953810	 0.284959	 -0.000782
H	 -2.717793	 -1.238567	 -0.869075
H	 -2.719108	 -1.238472	 0.869576
H	 -3.983727	 0.924403	 -0.876454
H	 -4.852989	 -0.320147	 -0.001515
H	 -3.985140	 0.924399	 0.874841
C	 2.169756	 2.044868	 0.825047
H	 2.997247	 1.503483	 1.259085
H	 1.892376	 2.871369	 1.458942
H	 2.457523	 2.404411	 -0.151755

	symmetry c1
}
set optking {
	frozen_dihedral = ("
		1 2 3 6
	")
}

ee,wfn = optimize('scf', return_wfn=True)
oeprop( wfn, 'DIPOLE', 'QUADRUPOLE', 'MULLIKEN_CHARGES')
f=open( 'psi4out.xyz', 'w' )
f.write( "20  " )
f.write( str(ee) + "\n" )
f.write( MOL.save_string_xyz() )
f.close()
--------------------------------------------------------------------------

    Molecular point group: c1
  Charge       = 0
  Multiplicity = 1
  Basis Set: CC-PVTZ
  Basis Set:
  @DF-RHF Final Energy:  -384.08072189335383
    Total Energy =                       -384.0807218933540526
    Molecular point group: c1
  Basis Set: CC-PVTZ
  Basis Set:
  Basis Set: CC-PVTZ
  Basis Set:
  @DF-RHF Final Energy:  -384.07886980326430
    Total Energy =                       -384.0788698032645243
  Basis Set: CC-PVTZ
  Basis Set:
  Basis Set: CC-PVTZ
  Basis Set:
  @DF-RHF Final Energy:  -384.08113633505400
    Total Energy =                       -384.0811363350537704
  Basis Set: CC-PVTZ
  Basis Set:
  Basis Set: CC-PVTZ
  Basis Set:
  @DF-RHF Final Energy:  -384.08133762435688
    Total Energy =                       -384.0813376243570474
  Basis Set: CC-PVTZ
  Basis Set:
  Basis Set: CC-PVTZ
  Basis Set:
  @DF-RHF Final Energy:  -384.08141215003474
    Total Energy =                       -384.0814121500350211
  Basis Set: CC-PVTZ
  Basis Set:
  Basis Set: CC-PVTZ
  Basis Set:
  @DF-RHF Final Energy:  -384.08141914313245
    Total Energy =                       -384.0814191431326208
  Basis Set: CC-PVTZ
  Basis Set:
  Charge       = 0
  Multiplicity = 1
  Basis Set: CC-PVTZ
  Basis Set:

    Orbital Energies (a.u.)
    -----------------------

    Doubly Occupied:

       1A    -20.598013     2A    -20.531603     3A    -11.364293
       4A    -11.279098     5A    -11.233652     6A    -11.223790
       7A    -11.221257     8A    -11.211985     9A     -1.472742
      10A     -1.364493    11A     -1.093254    12A     -1.025546
      13A     -0.967464    14A     -0.892862    15A     -0.807141
      16A     -0.776521    17A     -0.695522    18A     -0.685275
      19A     -0.676150    20A     -0.649238    21A     -0.595827
      22A     -0.593258    23A     -0.580899    24A     -0.547417
      25A     -0.532636    26A     -0.524582    27A     -0.507158
      28A     -0.491454    29A     -0.480873    30A     -0.473827
      31A     -0.458777    32A     -0.431388

  @DF-RHF Final Energy:  -384.08141944488239

   => Energetics <=

    Nuclear Repulsion Energy =            384.2111177576915679
    One-Electron Energy =               -1284.6090844426748845
    Two-Electron Energy =                 516.3165472401008174
    DFT Exchange-Correlation Energy =       0.0000000000000000
    Empirical Dispersion Energy =           0.0000000000000000
    PCM Polarization Energy =               0.0000000000000000
    EFP Energy =                            0.0000000000000000
    Total Energy =                       -384.0814194448824992
    Molecular point group: c1
  Basis Set: CC-PVTZ
  Basis Set:

  -Total Gradient:
     Atom            X                  Y                   Z
    ------   -----------------  -----------------  -----------------
       1        0.000212757720    -0.000510321048     0.000771434395
       2       -0.000377941427     0.000799541352    -0.001253499209
       3        0.000530730121    -0.001068837479     0.000919762153
       4        0.000018726794     0.000108982644     0.000055600432
       5       -0.000014486705    -0.000003382535    -0.000006877345
       6       -0.000347679670     0.000706024971    -0.000481310164
       7        0.000000188170    -0.000005539903     0.000012689166
       8       -0.000001226826     0.000007674241    -0.000024536007
       9        0.000000201572     0.000001578344    -0.000016672387
      10        0.000001756313     0.000002516961     0.000006723067
      11        0.000006027757    -0.000005614243     0.000022987209
      12        0.000002956645    -0.000000802730    -0.000018103969
      13       -0.000000118535    -0.000004880771     0.000009071821
      14        0.000005474165    -0.000000558688    -0.000013170136
      15       -0.000005744833    -0.000008763190     0.000004096770
      16       -0.000002713837     0.000014336893     0.000014134732
      17       -0.000045867465    -0.000056320293     0.000004799058
      18        0.000016379063    -0.000008536658     0.000009490411
      19       -0.000007679146     0.000019927782     0.000014478602
      20        0.000008260124     0.000012974352    -0.000031098599

  **** Optimization is complete! (in 7 steps) ****
    Final optimized geometry and variables:
    Molecular point group: c1

    Geometry (in Angstrom), charge = 0, multiplicity = 1:

    O            2.264104761995    -0.602230818054    -0.710923721594
    C            1.305251936562    -0.237048328816    -0.119390363522
    C           -0.032849037641    -0.932157079549    -0.170773402058
    O            1.313425742222     0.805831719990     0.692605386677
    C           -1.254480476141    -0.015811039366    -0.136769328240
    H           -0.028772672947    -1.536576251744    -1.067007453563
    H           -0.056801146651    -1.612937376448     0.675703038525
    C           -2.561301006187    -0.795895535007    -0.248474384931
    H           -1.191573846658     0.699078796124    -0.952455131942
    H           -1.251397950098     0.561952274084     0.779067050799
    C           -3.792492101682     0.103033148066    -0.216992216115
    H           -2.560207980212    -1.373828836692    -1.168344634805
    H           -2.619867210248    -1.515704480389     0.563573403272
    H           -3.780370831416     0.811647190987    -1.038309229814
    H           -4.703700780251    -0.478323315032    -0.295502113653
    H           -3.839598536566     0.669741876085     0.706801578466
    C            2.535541735964     1.499826420650     0.843525904042
    H            3.297413909649     0.846818396464     1.242554801869
    H            2.337007611977     2.305481424394     1.531651442063
    H            2.869729920499     1.892761566125    -0.105075628312

  Mulliken Charges: (a.u.)
   Center  Symbol    Alpha    Beta     Spin     Total
       1     O     4.20055  4.20055  0.00000 -0.40110
       2     C     2.81425  2.81425  0.00000  0.37151
       3     C     3.08154  3.08154  0.00000 -0.16308
       4     O     4.14560  4.14560  0.00000 -0.29120
       5     C     3.09102  3.09102  0.00000 -0.18204
       6     H     0.43621  0.43621  0.00000  0.12758
       7     H     0.44595  0.44595  0.00000  0.10810
       8     C     3.08893  3.08893  0.00000 -0.17786
       9     H     0.45094  0.45094  0.00000  0.09811
      10     H     0.44379  0.44379  0.00000  0.11242
      11     C     3.14912  3.14912  0.00000 -0.29824
      12     H     0.45263  0.45263  0.00000  0.09473
      13     H     0.45395  0.45395  0.00000  0.09210
      14     H     0.45423  0.45423  0.00000  0.09154
      15     H     0.44742  0.44742  0.00000  0.10516
      16     H     0.45441  0.45441  0.00000  0.09117
      17     C     3.03608  3.03608  0.00000 -0.07216
      18     H     0.45337  0.45337  0.00000  0.09327
      19     H     0.44627  0.44627  0.00000  0.10745
      20     H     0.45373  0.45373  0.00000  0.09253

   Total alpha = 32.00000, Total beta = 32.00000, Total charge =  0.00000

*** Psi4 exiting successfully. Buy a developer a beer!
