  ==> Input File <==

--------------------------------------------------------------------------
set {
	reference rhf
	basis cc-pvtz
}

set_num_threads( 4 )
memory 2 gb

molecule MOL {
0 1

O	 -0.713000	 1.340000	 -0.204000
C	 -0.891000	 0.173000	 -0.061000
C	 -2.203000	 -0.456000	 0.320000
O	 0.053000	 -0.744000	 -0.221000
H	 -2.508000	 -1.160000	 -0.446000
H	 -2.953000	 0.312000	 0.437000
H	 -2.089000	 -1.008000	 1.246000
C	 1.362000	 -0.314000	 -0.588000
C	 2.167000	 0.115000	 0.624000
H	 1.283000	 0.486000	 -1.310000
H	 1.807000	 -1.176000	 -1.064000
H	 3.180000	 0.364000	 0.323000
H	 1.727000	 0.987000	 1.091000
H	 2.216000	 -0.687000	 1.353000

	symmetry c1
}
ee = optimize('scf')
oeprop('DIPOLE', 'QUADRUPOLE', 'MULLIKEN_CHARGES')
f=open( 'psi4out.xyz', 'w' )
f.write( "14  " )
f.write( str(ee) + "\n" )
f.write( MOL.save_string_xyz() )
f.close()
--------------------------------------------------------------------------

    Molecular point group: c1
  Charge       = 0
  Multiplicity = 1
  Basis Set: CC-PVTZ
  Basis Set:
  @DF-RHF Final Energy:  -305.99105103987711
    Total Energy =                       -305.9910510398771635
    Molecular point group: c1
  Basis Set: CC-PVTZ
  Basis Set:
  Basis Set: CC-PVTZ
  Basis Set:
  @DF-RHF Final Energy:  -305.99115937094712
    Total Energy =                       -305.9911593709472299
  Basis Set: CC-PVTZ
  Basis Set:
  Basis Set: CC-PVTZ
  Basis Set:
  @DF-RHF Final Energy:  -305.99095668487575
    Total Energy =                       -305.9909566848757549
  Basis Set: CC-PVTZ
  Basis Set:
  Basis Set: CC-PVTZ
  Basis Set:
  @DF-RHF Final Energy:  -305.99116990514256
    Total Energy =                       -305.9911699051423284
  Basis Set: CC-PVTZ
  Basis Set:
  Basis Set: CC-PVTZ
  Basis Set:
  @DF-RHF Final Energy:  -305.99117102830394
    Total Energy =                       -305.9911710283038246
  Basis Set: CC-PVTZ
  Basis Set:
  Charge       = 0
  Multiplicity = 1
  Basis Set: CC-PVTZ
  Basis Set:

    Orbital Energies (a.u.)
    -----------------------

    Doubly Occupied:

       1A    -20.594405     2A    -20.533094     3A    -11.368028
       4A    -11.283163     5A    -11.231630     6A    -11.216980
       7A     -1.470614     8A     -1.365799     9A     -1.056066
      10A     -0.999461    11A     -0.883728    12A     -0.767199
      13A     -0.701286    14A     -0.685705    15A     -0.660713
      16A     -0.611831    17A     -0.587382    18A     -0.571142
      19A     -0.560205    20A     -0.529765    21A     -0.519024
      22A     -0.494829    23A     -0.454508    24A     -0.442314

  @DF-RHF Final Energy:  -305.99117150466952

   => Energetics <=

    Nuclear Repulsion Energy =            249.1666303737951296
    One-Electron Energy =                -911.1378666727216569
    Two-Electron Energy =                 355.9800647942568048
    DFT Exchange-Correlation Energy =       0.0000000000000000
    Empirical Dispersion Energy =           0.0000000000000000
    PCM Polarization Energy =               0.0000000000000000
    EFP Energy =                            0.0000000000000000
    Total Energy =                       -305.9911715046697509
    Molecular point group: c1
  Basis Set: CC-PVTZ
  Basis Set:

  -Total Gradient:
     Atom            X                  Y                   Z
    ------   -----------------  -----------------  -----------------
       1        0.000039079050     0.000005484286    -0.000000227880
       2        0.000054983305    -0.000018936008    -0.000013279390
       3       -0.000030293200    -0.000012390838     0.000007141609
       4       -0.000018288086     0.000005449533    -0.000015371226
       5       -0.000003300497    -0.000008584986    -0.000003935493
       6       -0.000014133812     0.000011220859     0.000003393900
       7       -0.000002545137    -0.000008862306     0.000010791517
       8       -0.000035040981    -0.000019274688     0.000054581279
       9       -0.000031329272     0.000024479928    -0.000019850066
      10        0.000007313386     0.000028459693    -0.000018946108
      11        0.000009793885     0.000000335675    -0.000004145167
      12        0.000018693098     0.000001760002    -0.000005209868
      13        0.000001928397    -0.000000928731    -0.000000736238
      14        0.000003139864    -0.000008212418     0.000005793131

  **** Optimization is complete! (in 6 steps) ****
    Final optimized geometry and variables:
    Molecular point group: c1

    Geometry (in Angstrom), charge = 0, multiplicity = 1:

    O           -0.694481766117     1.313154462764    -0.204814142998
    C           -0.862519104702     0.151931111869    -0.046790780933
    C           -2.171428191742    -0.477048817253     0.339095395191
    O            0.085518553264    -0.757083027577    -0.192237440642
    H           -2.467997640663    -1.191667699085    -0.417687521248
    H           -2.923378912505     0.287969682211     0.444097637293
    H           -2.053854447284    -1.015120328770     1.270901042729
    C            1.392035651601    -0.330828212710    -0.560748605264
    C            2.205727204147     0.087700721087     0.646164227499
    H            1.315071836604     0.473355391127    -1.275717292876
    H            1.833952478460    -1.189545221513    -1.043517924734
    H            3.212859223345     0.341256754928     0.334966683467
    H            1.769822297667     0.953940104955     1.124702149971
    H            2.264957992235    -0.719447680266     1.366301844702

  Mulliken Charges: (a.u.)
   Center  Symbol    Alpha    Beta     Spin     Total
       1     O     4.19919  4.19919  0.00000 -0.39838
       2     C     2.80178  2.80178  0.00000  0.39643
       3     C     3.13846  3.13846  0.00000 -0.27691
       4     O     4.15733  4.15733  0.00000 -0.31466
       5     H     0.44560  0.44560  0.00000  0.10880
       6     H     0.43828  0.43828  0.00000  0.12344
       7     H     0.44599  0.44599  0.00000  0.10802
       8     C     2.98550  2.98550  0.00000  0.02901
       9     C     3.14821  3.14821  0.00000 -0.29641
      10     H     0.44884  0.44884  0.00000  0.10232
      11     H     0.44471  0.44471  0.00000  0.11058
      12     H     0.45147  0.45147  0.00000  0.09706
      13     H     0.44227  0.44227  0.00000  0.11546
      14     H     0.45238  0.45238  0.00000  0.09524

   Total alpha = 24.00000, Total beta = 24.00000, Total charge = -0.00000
