                              Psi4 1.0.54 Driver

  ==> Input File <==

--------------------------------------------------------------------------
set {
	reference rhf
	basis cc-pvtz
}

set_num_threads( 4 )
memory 2 gb

molecule MOL {
0 1

O	 0.664084	 0.358839	 0.958599
C	 0.029490	 0.077183	 0.000078
C	 -1.232113	 -0.748027	 0.000015
O	 0.354605	 0.459946	 -1.223452
C	 -2.501422	 0.088592	 -0.000052
H	 -1.188777	 -1.400384	 -0.865133
H	 -1.188857	 -1.400312	 0.865225
H	 -2.548170	 0.725504	 -0.873205
H	 -3.371613	 -0.556398	 -0.000040
H	 -2.548215	 0.725571	 0.873047
C	 1.521609	 1.243778	 -1.369574
H	 1.432581	 2.166860	 -0.816195
H	 1.612389	 1.449099	 -2.423816
H	 2.389117	 0.704795	 -1.018615

	symmetry c1
}
set optking {
	frozen_dihedral = ("
		4 2 3 6
	")
}

ee,wfn = optimize('scf', return_wfn=True)
oeprop( wfn, 'DIPOLE', 'QUADRUPOLE', 'MULLIKEN_CHARGES')
f=open( 'psi4out.xyz', 'w' )
f.write( "14  " )
f.write( str(ee) + "\n" )
f.write( MOL.save_string_xyz() )
f.close()
--------------------------------------------------------------------------

    Molecular point group: c1
  Charge       = 0
  Multiplicity = 1
  Basis Set: CC-PVTZ
  Basis Set:
  @DF-RHF Final Energy:  -305.98555424342129
    Total Energy =                       -305.9855542434212907
    Molecular point group: c1
  Basis Set: CC-PVTZ
  Basis Set:
  Basis Set: CC-PVTZ
  Basis Set:
  @DF-RHF Final Energy:  -305.98591121255737
    Total Energy =                       -305.9859112125571983
  Basis Set: CC-PVTZ
  Basis Set:
  Basis Set: CC-PVTZ
  Basis Set:
  @DF-RHF Final Energy:  -305.97841292688861
    Total Energy =                       -305.9784129268885522
  Basis Set: CC-PVTZ
  Basis Set:
  Basis Set: CC-PVTZ
  Basis Set:
  @DF-RHF Final Energy:  -305.98549046070070
    Total Energy =                       -305.9854904607007597
  Basis Set: CC-PVTZ
  Basis Set:
  Basis Set: CC-PVTZ
  Basis Set:
  @DF-RHF Final Energy:  -305.98617532879643
    Total Energy =                       -305.9861753287964916
  Basis Set: CC-PVTZ
  Basis Set:
  Basis Set: CC-PVTZ
  Basis Set:
  @DF-RHF Final Energy:  -305.98618415431378
    Total Energy =                       -305.9861841543134915
  Basis Set: CC-PVTZ
  Basis Set:
  Charge       = 0
  Multiplicity = 1
  Basis Set: CC-PVTZ
  Basis Set:

    Orbital Energies (a.u.)
    -----------------------

    Doubly Occupied:

       1A    -20.598238     2A    -20.533174     3A    -11.364172
       4A    -11.279217     5A    -11.235811     6A    -11.225551
       7A     -1.472826     8A     -1.365472     9A     -1.068517
      10A     -0.978066    11A     -0.884392    12A     -0.776267
      13A     -0.699451    14A     -0.682862    15A     -0.676518
      16A     -0.619119    17A     -0.595962    18A     -0.570050
      19A     -0.544190    20A     -0.520189    21A     -0.510734
      22A     -0.507312    23A     -0.459827    24A     -0.437768

  @DF-RHF Final Energy:  -305.98618491919433

   => Energetics <=

    Nuclear Repulsion Energy =            248.5706178871307657
    One-Electron Energy =                -909.9022411270501607
    Two-Electron Energy =                 355.3454383207249521
    DFT Exchange-Correlation Energy =       0.0000000000000000
    Empirical Dispersion Energy =           0.0000000000000000
    PCM Polarization Energy =               0.0000000000000000
    EFP Energy =                            0.0000000000000000
    Total Energy =                       -305.9861849191944430
    Molecular point group: c1
  Basis Set: CC-PVTZ
  Basis Set:

  -Total Gradient:
     Atom            X                  Y                   Z
    ------   -----------------  -----------------  -----------------
       1       -0.000063010546    -0.000015852834    -0.000023499897
       2       -0.000031644419     0.000247660104    -0.000209899687
       3        0.000101749589    -0.000190065836     0.000255966935
       4       -0.000043528047    -0.000158028293     0.000164270861
       5        0.000028132654    -0.000013535410    -0.000000077558
       6       -0.000074525828     0.000134288436    -0.000157236697
       7        0.000022926288     0.000029197109    -0.000050529782
       8       -0.000003172022    -0.000002300037     0.000005015321
       9        0.000015314878    -0.000001188395     0.000001537067
      10        0.000004100036    -0.000009318147    -0.000002461847
      11        0.000079011933    -0.000037414632     0.000015346437
      12       -0.000024501196     0.000010550308     0.000008893621
      13       -0.000025997466    -0.000004692662    -0.000006105571
      14        0.000015144147     0.000010700289    -0.000001219199

  **** Optimization is complete! (in 7 steps) ****
    Final optimized geometry and variables:
    Molecular point group: c1

    Geometry (in Angstrom), charge = 0, multiplicity = 1:

    O            0.649492253896     0.240138503391     1.328517199628
    C            0.148396783032    -0.172768672035     0.338252682191
    C           -1.157490373878    -0.921794470832     0.287040963544
    O            0.669743753198     0.000019404492    -0.864732456783
    C           -2.316402534268     0.011574366187    -0.073613318829
    H           -1.080152255175    -1.713451599724    -0.446485835533
    H           -1.316467180338    -1.359491979214     1.261520490921
    H           -2.171085623119     0.453672175144    -1.051040639838
    H           -3.247314556124    -0.540522513078    -0.088483901914
    H           -2.409790108574     0.809064048994     0.653137116184
    C            1.876956181689     0.730651172742    -0.949533036393
    H            1.744330518911     1.731137598595    -0.565242634567
    H            2.131606897716     0.764174276838    -1.996377171841
    H            2.659156475993     0.239161204953    -0.390463799445

  Mulliken Charges: (a.u.)
   Center  Symbol    Alpha    Beta     Spin     Total
       1     O     4.20183  4.20183  0.00000 -0.40366
       2     C     2.79724  2.79724  0.00000  0.40551
       3     C     3.08403  3.08403  0.00000 -0.16805
       4     O     4.15050  4.15050  0.00000 -0.30099
       5     C     3.15145  3.15145  0.00000 -0.30290
       6     H     0.44535  0.44535  0.00000  0.10930
       7     H     0.43835  0.43835  0.00000  0.12331
       8     H     0.44829  0.44829  0.00000  0.10341
       9     H     0.44740  0.44740  0.00000  0.10520
      10     H     0.44662  0.44662  0.00000  0.10676
      11     C     3.03592  3.03592  0.00000 -0.07184
      12     H     0.45453  0.45453  0.00000  0.09094
      13     H     0.44561  0.44561  0.00000  0.10877
      14     H     0.45288  0.45288  0.00000  0.09424

   Total alpha = 24.00000, Total beta = 24.00000, Total charge = -0.00000

*** Psi4 exiting successfully. Buy a developer a beer!
