  ==> Input File <==

--------------------------------------------------------------------------
set {
	reference rhf
	basis 6-31G*
}

set_num_threads( 4 )
memory 2 gb

molecule MOL {
0 1

O	 -0.385421	 -0.969830	 -1.769116
C	 -0.386414	 -0.049182	 -0.996388
C	 -1.522544	 0.956333	 -1.011696
N	 0.623947	 0.147590	 -0.102813
H	 -1.162753	 1.959582	 -1.212009
H	 -2.203734	 0.661406	 -1.795306
H	 -2.054189	 0.971940	 -0.066343
C	 1.665360	 -0.855771	 0.000151
C	 0.567017	 1.095255	 0.988487
H	 2.465253	 -0.618490	 -0.692587
H	 1.257730	 -1.821716	 -0.242189
H	 2.081488	 -0.891645	 1.004627
H	 1.565760	 1.463937	 1.190042
H	 -0.051107	 1.944676	 0.744887
H	 0.186607	 0.641036	 1.901606

	symmetry c1
}
set optking {
	frozen_dihedral = ("
		2 4 8 10
	")
}

ee = optimize('scf')
oeprop('DIPOLE', 'QUADRUPOLE', 'MULLIKEN_CHARGES')
f=open( 'psi4out.xyz', 'w' )
f.write( "15  " )
f.write( str(ee) + "\n" )
f.write( MOL.save_string_xyz() )
f.close()
--------------------------------------------------------------------------

    Molecular point group: c1
  Charge       = 0
  Multiplicity = 1
  Basis Set: 6-31G*
  Basis Set:
  @DF-RHF Final Energy:  -286.02770025206109
    Total Energy =                       -286.0277002520610381
    Molecular point group: c1
  Basis Set: 6-31G*
  Basis Set:
  Basis Set: 6-31G*
  Basis Set:
  @DF-RHF Final Energy:  -286.02843815841152
    Total Energy =                       -286.0284381584114044
  Basis Set: 6-31G*
  Basis Set:
  Basis Set: 6-31G*
  Basis Set:
  @DF-RHF Final Energy:  -286.02861195685898
    Total Energy =                       -286.0286119568589811
  Basis Set: 6-31G*
  Basis Set:
  Basis Set: 6-31G*
  Basis Set:
  @DF-RHF Final Energy:  -286.02867873100564
    Total Energy =                       -286.0286787310055843
  Basis Set: 6-31G*
  Basis Set:
  @DF-RHF Final Energy:  -286.02878458707391
    Total Energy =                       -286.0287845870738010
  @DF-RHF Final Energy:  -286.02900941935263
    Total Energy =                       -286.0290094193526329
  @DF-RHF Final Energy:  -286.02915770901825
    Total Energy =                       -286.0291577090181363
  @DF-RHF Final Energy:  -286.02927145166490
    Total Energy =                       -286.0292714516643855
  @DF-RHF Final Energy:  -286.02941126986559
    Total Energy =                       -286.0294112698657045
  @DF-RHF Final Energy:  -286.02961195141938
    Total Energy =                       -286.0296119514194970
  @DF-RHF Final Energy:  -286.02973209781874
    Total Energy =                       -286.0297320978186235
  Basis Set: 6-31G*
  Basis Set:
  @DF-RHF Final Energy:  -286.02974367951333
    Total Energy =                       -286.0297436795132739
  Basis Set: 6-31G*
  Basis Set:
  Basis Set: 6-31G*
  Basis Set:
  @DF-RHF Final Energy:  -286.02977926057190
    Total Energy =                       -286.0297792605720701
  Basis Set: 6-31G*
  Basis Set:
  Basis Set: 6-31G*
  Basis Set:
  @DF-RHF Final Energy:  -286.02978960835355
    Total Energy =                       -286.0297896083535534
  Basis Set: 6-31G*
  Basis Set:
  Charge       = 0
  Multiplicity = 1
  Basis Set: 6-31G*
  Basis Set:

    Orbital Energies (a.u.)
    -----------------------

    Doubly Occupied:

       1A    -20.514921     2A    -15.583640     3A    -11.341315
       4A    -11.266371     5A    -11.247842     6A    -11.228383
       7A     -1.384732     8A     -1.243371     9A     -1.014145
      10A     -0.972658    11A     -0.918674    12A     -0.737689
      13A     -0.680875    14A     -0.658975    15A     -0.651327
      16A     -0.589126    17A     -0.576307    18A     -0.568073
      19A     -0.561974    20A     -0.546457    21A     -0.529566
      22A     -0.502836    23A     -0.410701    24A     -0.367014

  @DF-RHF Final Energy:  -286.02979025261772

   => Energetics <=

    Nuclear Repulsion Energy =            252.4597274019624251
    One-Electron Energy =                -888.7850913932804815
    Two-Electron Energy =                 350.2955737387006252
    DFT Exchange-Correlation Energy =       0.0000000000000000
    Empirical Dispersion Energy =           0.0000000000000000
    PCM Polarization Energy =               0.0000000000000000
    EFP Energy =                            0.0000000000000000
    Total Energy =                       -286.0297902526173743
    Molecular point group: c1
  Basis Set: 6-31G*
  Basis Set:

  -Total Gradient:
     Atom            X                  Y                   Z
    ------   -----------------  -----------------  -----------------
       1        0.000024178613     0.000009483217     0.000056958561
       2        0.000086231909     0.000131853133    -0.000170332097
       3       -0.000013766506    -0.000012183573     0.000040289652
       4       -0.000180165414    -0.000184748324     0.000084702966
       5        0.000017704572    -0.000012230269     0.000007303324
       6        0.000008226633    -0.000011929773     0.000003017338
       7       -0.000025581603     0.000009565523    -0.000009612203
       8        0.000138681534     0.000152163700     0.000210396473
       9        0.000042489047     0.000008710710    -0.000003334962
      10       -0.000067449941    -0.000068728800    -0.000175683267
      11       -0.000019643934    -0.000017232826    -0.000011391976
      12       -0.000007308917     0.000007622577    -0.000012482992
      13        0.000012014766     0.000023293017     0.000008588252
      14       -0.000004922505    -0.000014682475    -0.000015219144
      15       -0.000010688254    -0.000020955836    -0.000013199923

  **** Optimization is complete! (in 15 steps) ****
    Final optimized geometry and variables:
    Molecular point group: c1

    Geometry (in Angstrom), charge = 0, multiplicity = 1:

    O           -0.395570676598    -0.941945544380    -1.378890027180
    C           -0.476355488548    -0.095217671928    -0.530001231244
    C           -1.576615412571     0.947248289639    -0.593763966990
    N            0.384538460745    -0.049029894433     0.526763194095
    H           -1.170376998608     1.947511869035    -0.699870745807
    H           -2.186109308598     0.721186606988    -1.455472881214
    H           -2.195870290699     0.928236748516     0.296236274953
    C            1.503008120868    -0.972476871989     0.534827178224
    C            0.507187317376     1.087972322623     1.413241584135
    H            2.376968015530    -0.546746558664     0.046720142415
    H            1.227347442008    -1.876314504281     0.018974357307
    H            1.762397287289    -1.209019266685     1.560063792284
    H            1.246061423887     1.804646788847     1.058750067184
    H           -0.435150874606     1.598599569969     1.533451040916
    H            0.819135043055     0.742329472705     2.391259670513

  Mulliken Charges: (a.u.)
   Center  Symbol    Alpha    Beta     Spin     Total
       1     O     4.30384  4.30384  0.00000 -0.60768
       2     C     2.62438  2.62438  0.00000  0.75125
       3     C     3.29851  3.29851  0.00000 -0.59701
       4     N     3.82300  3.82300  0.00000 -0.64600
       5     H     0.40768  0.40768  0.00000  0.18465
       6     H     0.39055  0.39055  0.00000  0.21890
       7     H     0.40649  0.40649  0.00000  0.18702
       8     C     3.14327  3.14327  0.00000 -0.28655
       9     C     3.14224  3.14224  0.00000 -0.28447
      10     H     0.41914  0.41914  0.00000  0.16173
      11     H     0.38734  0.38734  0.00000  0.22531
      12     H     0.41902  0.41902  0.00000  0.16196
      13     H     0.41697  0.41697  0.00000  0.16606
      14     H     0.40725  0.40725  0.00000  0.18549
      15     H     0.41033  0.41033  0.00000  0.17933

   Total alpha = 24.00000, Total beta = 24.00000, Total charge =  0.00000
