                              Psi4 1.0.54 Driver

  ==> Input File <==

--------------------------------------------------------------------------
set {
	reference rhf
	basis cc-pvtz
}

set_num_threads( 4 )
memory 2 gb

molecule MOL {
0 1

H	 -3.170372	 1.658656	 -0.143828
C	 -2.546491	 2.166277	 0.588276
O	 -1.199614	 2.062016	 0.267977
H	 -2.804123	 3.215296	 0.596793
H	 -2.757847	 1.746583	 1.570147
C	 -0.718530	 0.758693	 0.228682
C	 0.718529	 0.758687	 -0.228709
H	 -0.773791	 0.306060	 1.218652
H	 -1.310334	 0.150271	 -0.451775
O	 1.401606	 -0.295166	 0.366636
H	 0.748705	 0.673477	 -1.312803
H	 1.176496	 1.708671	 0.046552
C	 2.714315	 -0.441627	 -0.061017
H	 2.765292	 -0.641548	 -1.128869
H	 3.305661	 0.447341	 0.150952
H	 3.143725	 -1.278506	 0.470147

	symmetry c1
}
set optking {
	frozen_dihedral = ("
		3 6 7 11
	")
}

ee,wfn = optimize('scf', return_wfn=True)
oeprop( wfn, 'DIPOLE', 'QUADRUPOLE', 'MULLIKEN_CHARGES')
f=open( 'psi4out.xyz', 'w' )
f.write( "16  " )
f.write( str(ee) + "\n" )
f.write( MOL.save_string_xyz() )
f.close()
--------------------------------------------------------------------------

    Molecular point group: c1
  Charge       = 0
  Multiplicity = 1
  Basis Set: CC-PVTZ
  Basis Set:
  @DF-RHF Final Energy:  -307.09622575392643
    Total Energy =                       -307.0962257539267739
    Molecular point group: c1
  Basis Set: CC-PVTZ
  Basis Set:
  Basis Set: CC-PVTZ
  Basis Set:
  @DF-RHF Final Energy:  -307.09676227774230
    Total Energy =                       -307.0967622777423571
  Basis Set: CC-PVTZ
  Basis Set:
  Basis Set: CC-PVTZ
  Basis Set:
  @DF-RHF Final Energy:  -307.09681259051445
    Total Energy =                       -307.0968125905145598
  Basis Set: CC-PVTZ
  Basis Set:
  Charge       = 0
  Multiplicity = 1
  Basis Set: CC-PVTZ
  Basis Set:

    Orbital Energies (a.u.)
    -----------------------

    Doubly Occupied:

       1A    -20.552119     2A    -20.551607     3A    -11.266265
       4A    -11.265564     5A    -11.264247     6A    -11.264071
       7A     -1.391402     8A     -1.379967     9A     -1.030151
      10A     -0.941455    11A     -0.883845    12A     -0.832079
      13A     -0.692828    14A     -0.676564    15A     -0.660555
      16A     -0.648841    17A     -0.623751    18A     -0.600740
      19A     -0.570202    20A     -0.521790    21A     -0.508919
      22A     -0.484217    23A     -0.468023    24A     -0.421993
      25A     -0.418687

  @DF-RHF Final Energy:  -307.09681556337546

   => Energetics <=

    Nuclear Repulsion Energy =            255.0080306089558064
    One-Electron Energy =                -924.3699199667189532
    Two-Electron Energy =                 362.2650737943876038
    DFT Exchange-Correlation Energy =       0.0000000000000000
    Empirical Dispersion Energy =           0.0000000000000000
    PCM Polarization Energy =               0.0000000000000000
    EFP Energy =                            0.0000000000000000
    Total Energy =                       -307.0968155633755714
    Molecular point group: c1
  Basis Set: CC-PVTZ
  Basis Set:

  -Total Gradient:
     Atom            X                  Y                   Z
    ------   -----------------  -----------------  -----------------
       1       -0.000018351787     0.000011323464    -0.000004554256
       2       -0.000012035496    -0.000079130266     0.000009086698
       3        0.000982839321     0.000364820296     0.003050033563
       4        0.000056310562    -0.000012991612    -0.000014691171
       5       -0.000009712626     0.000009908753     0.000010789773
       6       -0.001305737560    -0.001426383291    -0.003834571444
       7        0.000293914783     0.005195522959     0.000528989792
       8        0.000042797715    -0.000019930612    -0.000015880794
       9       -0.000012118046     0.000014572829    -0.000003505172
      10       -0.000111014584     0.000106511930    -0.000056837166
      11        0.000153362324    -0.004197943634     0.000363201789
      12       -0.000069083417     0.000011249525    -0.000000193735
      13        0.000062766282     0.000019757401    -0.000042130285
      14        0.000010608611    -0.000009624102    -0.000008271856
      15       -0.000006603088    -0.000006791909     0.000009353575
      16       -0.000057942997     0.000019128271     0.000009180689

  **** Optimization is complete! (in 4 steps) ****
    Final optimized geometry and variables:
    Molecular point group: c1

    Geometry (in Angstrom), charge = 0, multiplicity = 1:

    H           -3.245260423666     0.815867584332    -0.303529364290
    C           -2.597019626716     1.346823376706     0.390023708513
    O           -1.260314709492     1.227953320914     0.031166698157
    H           -2.852402102050     2.396260103534     0.370893314020
    H           -2.775276533944     0.960687461657     1.391185083249
    C           -0.781393632620    -0.079842521038     0.028998480807
    C            0.667141653933    -0.065163002970    -0.427417784576
    H           -0.818983623316    -0.499044703031     1.030874234170
    H           -1.386215739749    -0.710690154680    -0.618206056036
    O            1.320575825478    -1.140620813854     0.173925308734
    H            0.730700701674    -0.170819662143    -1.508185007400
    H            1.121290978405     0.877651921720    -0.138609267454
    C            2.647889508321    -1.289132640219    -0.207422578338
    H            2.738252813741    -1.468405469193    -1.276595344262
    H            3.234927896708    -0.408571346073     0.043862807559
    H            3.051258162665    -2.139323782243     0.323060639299

  Mulliken Charges: (a.u.)
   Center  Symbol    Alpha    Beta     Spin     Total
       1     H     0.47117  0.47117  0.00000  0.05765
       2     C     3.02974  3.02974  0.00000 -0.05947
       3     O     4.17502  4.17502  0.00000 -0.35003
       4     H     0.44679  0.44679  0.00000  0.10642
       5     H     0.47097  0.47097  0.00000  0.05807
       6     C     2.96471  2.96471  0.00000  0.07058
       7     C     2.96495  2.96495  0.00000  0.07010
       8     H     0.46846  0.46846  0.00000  0.06307
       9     H     0.47302  0.47302  0.00000  0.05395
      10     O     4.17552  4.17552  0.00000 -0.35104
      11     H     0.47357  0.47357  0.00000  0.05287
      12     H     0.46699  0.46699  0.00000  0.06602
      13     C     3.02962  3.02962  0.00000 -0.05923
      14     H     0.47159  0.47159  0.00000  0.05682
      15     H     0.47103  0.47103  0.00000  0.05794
      16     H     0.44686  0.44686  0.00000  0.10628

   Total alpha = 25.00000, Total beta = 25.00000, Total charge = -0.00000

*** Psi4 exiting successfully. Buy a developer a beer!
