  ==> Input File <==

--------------------------------------------------------------------------
set {
	reference rhf
	basis 6-31G*
}

set_num_threads( 1 )
memory 2 gb

molecule MOL {
0 1

O	 2.583780	 1.792937	 1.281549
C	 2.413531	 0.837043	 1.974399
C	 1.121206	 0.040600	 1.951800
C	 3.485880	 0.353450	 2.929051
C	 0.078872	 0.574420	 0.973633
H	 1.371476	 -0.994040	 1.720988
H	 0.723629	 0.021679	 2.965692
C	 -1.207779	 -0.252783	 0.978693
H	 0.503598	 0.590459	 -0.025106
H	 -0.145192	 1.607237	 1.221084
C	 -2.259874	 0.272531	 0.000494
H	 -0.975331	 -1.288031	 0.733182
H	 -1.627525	 -0.266032	 1.983534
C	 -3.549786	 -0.549746	 -0.000374
H	 -1.841596	 0.285546	 -1.004441
H	 -2.493660	 1.307090	 0.245503
C	 -4.809590	 0.315458	 -0.000369
H	 -3.560515	 -1.202009	 -0.871156
H	 -3.561123	 -1.202955	 0.869711
H	 -4.844746	 0.956611	 -0.876632
H	 -5.706986	 -0.295590	 -0.001609
H	 -4.845960	 0.954827	 0.877144
H	 3.768018	 -0.669059	 2.695618
H	 4.354436	 0.993109	 2.856381
H	 3.115115	 0.360276	 3.949894

	symmetry c1
}
set optking {
	frozen_dihedral = ("
		9 5 8 12,
		15 11 8 12,
		1 2 3 6,
		9 5 3 6
	")
}

ee = energy('scf')
oeprop('DIPOLE', 'QUADRUPOLE', 'MULLIKEN_CHARGES')
f=open( 'psi4out.xyz', 'w' )
f.write( "25  " )
f.write( str(ee) + "\n" )
f.write( MOL.save_string_xyz() )
f.close()
--------------------------------------------------------------------------

    Molecular point group: c1

    Geometry (in Angstrom), charge = 0, multiplicity = 1:

       Center              X                  Y                   Z               Mass
    ------------   -----------------  -----------------  -----------------  -----------------
           O          2.828026375834     1.410969357229     0.160244495423    15.994914619560
           C          2.657777375834     0.455075357229     0.853094495423    12.000000000000
           C          1.365452375834    -0.341367642771     0.830495495423    12.000000000000
           C          3.730126375834    -0.028517642771     1.807746495423    12.000000000000
           C          0.323118375834     0.192452357229    -0.147671504577    12.000000000000
           H          1.615722375834    -1.376007642771     0.599683495423     1.007825032070
           H          0.967875375834    -0.360288642771     1.844387495423     1.007825032070
           C         -0.963532624166    -0.634750642771    -0.142611504577    12.000000000000
           H          0.747844375834     0.208491357229    -1.146410504577     1.007825032070
           H          0.099054375834     1.225269357229     0.099779495423     1.007825032070
           C         -2.015627624166    -0.109436642771    -1.120810504577    12.000000000000
           H         -0.731084624166    -1.669998642771    -0.388122504577     1.007825032070
           H         -1.383278624166    -0.647999642771     0.862229495423     1.007825032070
           C         -3.305539624166    -0.931713642771    -1.121678504577    12.000000000000
           H         -1.597349624166    -0.096421642771    -2.125745504577     1.007825032070
           H         -2.249413624166     0.925122357229    -0.875801504577     1.007825032070
           C         -4.565343624166    -0.066509642771    -1.121673504577    12.000000000000
           H         -3.316268624166    -1.583976642771    -1.992460504577     1.007825032070
           H         -3.316876624166    -1.584922642771    -0.251593504577     1.007825032070
           H         -4.600499624166     0.574643357229    -1.997936504577     1.007825032070
           H         -5.462739624166    -0.677557642771    -1.122913504577     1.007825032070
           H         -4.601713624166     0.572859357229    -0.244160504577     1.007825032070
           H          4.012264375834    -1.051026642771     1.574313495423     1.007825032070
           H          4.598682375834     0.611141357229     1.735076495423     1.007825032070
           H          3.359361375834    -0.021691642771     2.828589495423     1.007825032070

  Charge       = 0
  Multiplicity = 1
  Basis Set: 6-31G*
  Basis Set:

    Orbital Energies (a.u.)
    -----------------------

    Doubly Occupied:

       1A    -20.550408     2A    -11.326250     3A    -11.231815
       4A    -11.228316     5A    -11.217281     6A    -11.216278
       7A    -11.213946     8A    -11.212123     9A    -11.208604
      10A     -1.395709    11A     -1.093646    12A     -1.056246
      13A     -1.014284    14A     -0.968797    15A     -0.891069
      16A     -0.815314    17A     -0.790100    18A     -0.729819
      19A     -0.659598    20A     -0.652418    21A     -0.628436
      22A     -0.623636    23A     -0.599439    24A     -0.586351
      25A     -0.569059    26A     -0.558395    27A     -0.535583
      28A     -0.528678    29A     -0.514676    30A     -0.490309
      31A     -0.485675    32A     -0.476256    33A     -0.463851
      34A     -0.456434    35A     -0.449355    36A     -0.399269

  @DF-RHF Final Energy:  -387.13166236129166

   => Energetics <=

    Nuclear Repulsion Energy =            439.1953841227435760
    One-Electron Energy =               -1394.9792377847923035
    Two-Electron Energy =                 568.6521913007577496
    DFT Exchange-Correlation Energy =       0.0000000000000000
    Empirical Dispersion Energy =           0.0000000000000000
    PCM Polarization Energy =               0.0000000000000000
    EFP Energy =                            0.0000000000000000
    Total Energy =                       -387.1316623612909780

  Mulliken Charges: (a.u.)
   Center  Symbol    Alpha    Beta     Spin     Total
       1     O     4.26115  4.26115  0.00000 -0.52230
       2     C     2.73569  2.73569  0.00000  0.52862
       3     C     3.21084  3.21084  0.00000 -0.42168
       4     C     3.28663  3.28663  0.00000 -0.57326
       5     C     3.14854  3.14854  0.00000 -0.29708
       6     H     0.41002  0.41002  0.00000  0.17996
       7     H     0.41011  0.41011  0.00000  0.17978
       8     C     3.15615  3.15615  0.00000 -0.31229
       9     H     0.41216  0.41216  0.00000  0.17568
      10     H     0.41211  0.41211  0.00000  0.17578
      11     C     3.15362  3.15362  0.00000 -0.30724
      12     H     0.42437  0.42437  0.00000  0.15126
      13     H     0.42458  0.42458  0.00000  0.15084
      14     C     3.15373  3.15373  0.00000 -0.30747
      15     H     0.42009  0.42009  0.00000  0.15983
      16     H     0.42018  0.42018  0.00000  0.15965
      17     C     3.24037  3.24037  0.00000 -0.48073
      18     H     0.42076  0.42076  0.00000  0.15848
      19     H     0.42167  0.42167  0.00000  0.15666
      20     H     0.42084  0.42084  0.00000  0.15832
      21     H     0.42062  0.42062  0.00000  0.15876
      22     H     0.42186  0.42186  0.00000  0.15629
      23     H     0.40875  0.40875  0.00000  0.18251
      24     H     0.39647  0.39647  0.00000  0.20706
      25     H     0.40871  0.40871  0.00000  0.18258

   Total alpha = 36.00000, Total beta = 36.00000, Total charge = -0.00000
