                              Psi4 1.0.54 Driver

  ==> Input File <==

--------------------------------------------------------------------------
set {
	reference rhf
	basis cc-pvtz
}

set_num_threads( 4 )
memory 2 gb

molecule MOL {
0 1

H	 -0.366580	 2.045936	 -0.305741
C	 0.351829	 1.335402	 0.083179
N	 -0.000018	 0.000080	 -0.334836
H	 1.327156	 1.599860	 -0.305475
H	 0.380566	 1.445403	 1.171445
C	 0.203912	 -0.193749	 -1.750188
C	 0.672840	 -1.006439	 0.450290
H	 -0.134840	 -1.180095	 -2.040808
H	 -0.369497	 0.534597	 -2.309564
H	 1.253110	 -0.096302	 -2.044736
H	 0.442192	 -0.872399	 1.499584
H	 0.333779	 -1.991954	 0.157166
H	 1.760654	 -0.975649	 0.337044

	symmetry c1
}
set optking {
	frozen_dihedral = ("
		6 3 2 1
	")
}

ee,wfn = optimize('scf', return_wfn=True)
oeprop( wfn, 'DIPOLE', 'QUADRUPOLE', 'MULLIKEN_CHARGES')
f=open( 'psi4out.xyz', 'w' )
f.write( "13  " )
f.write( str(ee) + "\n" )
f.write( MOL.save_string_xyz() )
f.close()
--------------------------------------------------------------------------

    Molecular point group: c1
  Charge       = 0
  Multiplicity = 1
  Basis Set: CC-PVTZ
  Basis Set:
  @DF-RHF Final Energy:  -173.33243659062725
    Total Energy =                       -173.3324365906270828
    Molecular point group: c1
  Basis Set: CC-PVTZ
  Basis Set:
  Basis Set: CC-PVTZ
  Basis Set:
  @DF-RHF Final Energy:  -173.33328685620364
    Total Energy =                       -173.3332868562037561
  Basis Set: CC-PVTZ
  Basis Set:
  Basis Set: CC-PVTZ
  Basis Set:
  @DF-RHF Final Energy:  -173.33338723721391
    Total Energy =                       -173.3333872372137989
  Basis Set: CC-PVTZ
  Basis Set:
  Charge       = 0
  Multiplicity = 1
  Basis Set: CC-PVTZ
  Basis Set:

    Orbital Energies (a.u.)
    -----------------------

    Doubly Occupied:

       1A    -15.539887     2A    -11.234233     3A    -11.234144
       4A    -11.234098     5A     -1.226985     6A     -0.952344
       7A     -0.951693     8A     -0.807254     9A     -0.643864
      10A     -0.631386    11A     -0.630037    12A     -0.546818
      13A     -0.543438    14A     -0.515981    15A     -0.502054
      16A     -0.500431    17A     -0.350690

  @DF-RHF Final Energy:  -173.33338890883130

   => Energetics <=

    Nuclear Repulsion Energy =            139.4697948933233533
    One-Electron Energy =                -509.5156964655715228
    Two-Electron Energy =                 196.7125126634167884
    DFT Exchange-Correlation Energy =       0.0000000000000000
    Empirical Dispersion Energy =           0.0000000000000000
    PCM Polarization Energy =               0.0000000000000000
    EFP Energy =                            0.0000000000000000
    Total Energy =                       -173.3333889088313811
    Molecular point group: c1
  Basis Set: CC-PVTZ
  Basis Set:

  -Total Gradient:
     Atom            X                  Y                   Z
    ------   -----------------  -----------------  -----------------
       1       -0.001610102568    -0.000344036785     0.002397992924
       2        0.002658792127     0.000204859898    -0.002957583154
       3       -0.003111770645     0.000782066836     0.000122629604
       4        0.000039278710    -0.000013806088    -0.000013572582
       5        0.000002471838    -0.000026463041    -0.000032493038
       6        0.002067890852    -0.000525178264     0.000513343197
       7       -0.000105641025    -0.000004515127    -0.000063800564
       8        0.000003123388    -0.000000360970     0.000050334934
       9       -0.000015331399     0.000011525861    -0.000032079479
      10        0.000015470841    -0.000018758195    -0.000016046081
      11        0.000022066167    -0.000006811032    -0.000003220263
      12        0.000029513553    -0.000056993090     0.000025950426
      13        0.000004238163    -0.000001530002     0.000008544078

  **** Optimization is complete! (in 4 steps) ****
    Final optimized geometry and variables:
    Molecular point group: c1

    Geometry (in Angstrom), charge = 0, multiplicity = 1:

    H           -0.726179969464     2.000438148181     0.127934540666
    C            0.002039077070     1.290319868013     0.501011355369
    N           -0.333477388299    -0.044320694446     0.061605858886
    H            0.998889198944     1.607262115049     0.183385755692
    H           -0.032898005153     1.338052344694     1.582015950862
    C           -0.128819445417    -0.201277291083    -1.358627865488
    C            0.375936937862    -1.055640957689     0.810123349515
    H           -0.464844723818    -1.180139674294    -1.676670976978
    H           -0.703274486682     0.540543728444    -1.899844579671
    H            0.920555187745    -0.091682838044    -1.648157997200
    H            0.146942530828    -0.966245675819     1.864270487050
    H            0.065602016247    -2.040432299363     0.484005951026
    H            1.461995302318    -0.989695954152     0.692580413573

  Mulliken Charges: (a.u.)
   Center  Symbol    Alpha    Beta     Spin     Total
       1     H     0.45128  0.45128  0.00000  0.09745
       2     C     3.08913  3.08913  0.00000 -0.17827
       3     N     3.59634  3.59634  0.00000 -0.19267
       4     H     0.47278  0.47278  0.00000  0.05443
       5     H     0.45417  0.45417  0.00000  0.09167
       6     C     3.08975  3.08975  0.00000 -0.17951
       7     C     3.08882  3.08882  0.00000 -0.17765
       8     H     0.45261  0.45261  0.00000  0.09478
       9     H     0.45267  0.45267  0.00000  0.09467
      10     H     0.47331  0.47331  0.00000  0.05338
      11     H     0.45220  0.45220  0.00000  0.09559
      12     H     0.45268  0.45268  0.00000  0.09464
      13     H     0.47426  0.47426  0.00000  0.05149

   Total alpha = 17.00000, Total beta = 17.00000, Total charge =  0.00000

*** Psi4 exiting successfully. Buy a developer a beer!
