  ==> Input File <==

--------------------------------------------------------------------------
set {
	reference rhf
	basis cc-pvtz
}

set_num_threads( 4 )
memory 2 gb

molecule MOL {
0 1

O	 -1.510770	 1.240811	 -0.054933
C	 -1.081510	 0.147522	 0.122720
C	 0.327029	 -0.064006	 0.641890
C	 -1.903028	 -1.084121	 -0.174656
C	 1.349460	 -0.017068	 -0.500215
H	 0.399029	 -1.014606	 1.159950
H	 0.538021	 0.726928	 1.350471
C	 0.984818	 -0.953229	 -1.646682
H	 1.431825	 0.998333	 -0.877063
H	 2.322897	 -0.281735	 -0.104364
H	 1.728064	 -0.909271	 -2.433881
H	 0.026195	 -0.689265	 -2.080405
H	 0.922726	 -1.980705	 -1.305642
H	 -1.341891	 -1.779207	 -0.789259
H	 -2.820449	 -0.808163	 -0.671328
H	 -2.133314	 -1.593056	 0.755831

	symmetry c1
}
set optking {
	frozen_dihedral = ("
		9 5 3 2
	")
}

ee = optimize('scf')
oeprop('DIPOLE', 'QUADRUPOLE', 'MULLIKEN_CHARGES')
f=open( 'psi4out.xyz', 'w' )
f.write( "16  " )
f.write( str(ee) + "\n" )
f.write( MOL.save_string_xyz() )
f.close()
--------------------------------------------------------------------------

    Molecular point group: c1
  Charge       = 0
  Multiplicity = 1
  Basis Set: CC-PVTZ
  Basis Set:
  @DF-RHF Final Energy:  -270.12427291565189
    Total Energy =                       -270.1242729156516589
    Molecular point group: c1
  Basis Set: CC-PVTZ
  Basis Set:
  Basis Set: CC-PVTZ
  Basis Set:
  @DF-RHF Final Energy:  -270.12674833507418
    Total Energy =                       -270.1267483350741827
  Basis Set: CC-PVTZ
  Basis Set:
  Basis Set: CC-PVTZ
  Basis Set:
  @DF-RHF Final Energy:  -270.12566258872312
    Total Energy =                       -270.1256625887230030
  Basis Set: CC-PVTZ
  Basis Set:
  Basis Set: CC-PVTZ
  Basis Set:
  @DF-RHF Final Energy:  -270.12736596427601
    Total Energy =                       -270.1273659642762368
  Basis Set: CC-PVTZ
  Basis Set:
  @DF-RHF Final Energy:  -270.12752529380873
    Total Energy =                       -270.1275252938087306
  @DF-RHF Final Energy:  -270.12762582927667
    Total Energy =                       -270.1276258292766670
  @DF-RHF Final Energy:  -270.12770677598587
    Total Energy =                       -270.1277067759851889
  @DF-RHF Final Energy:  -270.12777969394756
    Total Energy =                       -270.1277796939477867
  @DF-RHF Final Energy:  -270.12784685266456
    Total Energy =                       -270.1278468526647316
  @DF-RHF Final Energy:  -270.12791096170520
    Total Energy =                       -270.1279109617051404
  @DF-RHF Final Energy:  -270.12797440380820
    Total Energy =                       -270.1279744038082526
  @DF-RHF Final Energy:  -270.12803841178140
    Total Energy =                       -270.1280384117811764
  @DF-RHF Final Energy:  -270.12821709449264
    Total Energy =                       -270.1282170944928112
  @DF-RHF Final Energy:  -270.12841190840021
    Total Energy =                       -270.1284119084003805
  @DF-RHF Final Energy:  -270.12383610299605
    Total Energy =                       -270.1238361029959378
  @DF-RHF Final Energy:  -270.12841350519994
    Total Energy =                       -270.1284135052000011
  @DF-RHF Final Energy:  -270.12866285678967
    Total Energy =                       -270.1286628567897878
  @DF-RHF Final Energy:  -270.12870796975426
    Total Energy =                       -270.1287079697540321
  @DF-RHF Final Energy:  -270.12827673059246
    Total Energy =                       -270.1282767305924040
  @DF-RHF Final Energy:  -270.12885282770401
    Total Energy =                       -270.1288528277041223
  @DF-RHF Final Energy:  -270.12898775211715
    Total Energy =                       -270.1289877521169274
  @DF-RHF Final Energy:  -270.12898853182230
    Total Energy =                       -270.1289885318221877
  @DF-RHF Final Energy:  -270.12898878704090
    Total Energy =                       -270.1289887870410098
  @DF-RHF Final Energy:  -270.12898867574069
    Total Energy =                       -270.1289886757402314
  @DF-RHF Final Energy:  -270.12898893543235
    Total Energy =                       -270.1289889354324032
  @DF-RHF Final Energy:  -270.12898910106821
    Total Energy =                       -270.1289891010684983
  @DF-RHF Final Energy:  -270.12898901501319
    Total Energy =                       -270.1289890150130191
  @DF-RHF Final Energy:  -270.12898903049154
    Total Energy =                       -270.1289890304915389
  @DF-RHF Final Energy:  -270.12898857053887
    Total Energy =                       -270.1289885705393203
  @DF-RHF Final Energy:  -270.12898828342907
    Total Energy =                       -270.1289882834295213
  @DF-RHF Final Energy:  -270.12898802158367
    Total Energy =                       -270.1289880215838934
  @DF-RHF Final Energy:  -270.12898715239351
    Total Energy =                       -270.1289871523937336
  @DF-RHF Final Energy:  -270.12898740373117
    Total Energy =                       -270.1289874037316849
  @DF-RHF Final Energy:  -270.12898857643961
    Total Energy =                       -270.1289885764392693
  @DF-RHF Final Energy:  -270.12898766461251
    Total Energy =                       -270.1289876646125094
  @DF-RHF Final Energy:  -270.12898884723330
    Total Energy =                       -270.1289888472331882
  Basis Set: CC-PVTZ
  Basis Set:
  @DF-RHF Final Energy:  -270.12898885908851
    Total Energy =                       -270.1289888590882242
  Basis Set: CC-PVTZ
  Basis Set:
  Basis Set: CC-PVTZ
  Basis Set:
  @DF-RHF Final Energy:  -270.12898879390252
    Total Energy =                       -270.1289887939022947
  Basis Set: CC-PVTZ
  Basis Set:
  Basis Set: CC-PVTZ
  Basis Set:
  @DF-RHF Final Energy:  -270.12898865594889
    Total Energy =                       -270.1289886559487172
  Basis Set: CC-PVTZ
  Basis Set:
  Charge       = 0
  Multiplicity = 1
  Basis Set: CC-PVTZ
  Basis Set:

    Orbital Energies (a.u.)
    -----------------------

    Doubly Occupied:

       1A    -20.538639     2A    -11.321560     3A    -11.231446
       4A    -11.227408     5A    -11.221103     6A    -11.204839
       7A     -1.399359     8A     -1.076637     9A     -1.015908
      10A     -0.946192    11A     -0.828971    12A     -0.727114
      13A     -0.663677    14A     -0.638856    15A     -0.625855
      16A     -0.598162    17A     -0.582874    18A     -0.551637
      19A     -0.547163    20A     -0.504880    21A     -0.489100
      22A     -0.479627    23A     -0.478130    24A     -0.401325

  @DF-RHF Final Energy:  -270.12898882499616

   => Energetics <=

    Nuclear Repulsion Energy =            242.1101303758427434
    One-Electron Energy =                -845.8773134730150787
    Two-Electron Energy =                 333.6381942721764062
    DFT Exchange-Correlation Energy =       0.0000000000000000
    Empirical Dispersion Energy =           0.0000000000000000
    PCM Polarization Energy =               0.0000000000000000
    EFP Energy =                            0.0000000000000000
    Total Energy =                       -270.1289888249959859
    Molecular point group: c1
  Basis Set: CC-PVTZ
  Basis Set:

  -Total Gradient:
     Atom            X                  Y                   Z
    ------   -----------------  -----------------  -----------------
       1       -0.000070579882     0.000011999692     0.000047988316
       2        0.000096483614    -0.002752724842    -0.001099022778
       3        0.000297960623     0.003073557722     0.001666278650
       4        0.000040649621     0.000031803592     0.000044507286
       5       -0.002338265893    -0.001070358301    -0.003661971678
       6        0.000162222088     0.000186442886     0.000510793910
       7       -0.000117146303     0.000383510635    -0.000232098487
       8       -0.000324961541     0.000263253935     0.000024433790
       9        0.002239811249     0.000356205932     0.003066510359
      10       -0.000010198868    -0.000528865155    -0.000236668541
      11       -0.000002834705     0.000034590647    -0.000040001874
      12       -0.000012704138    -0.000020071774    -0.000009645360
      13        0.000071680679    -0.000011676890     0.000002536232
      14        0.000040884279     0.000016054812    -0.000020031139
      15       -0.000074256621     0.000023531957    -0.000044084044
      16        0.000001255798     0.000002745156    -0.000019524640

    Molecular point group: c1

    Geometry (in Angstrom), charge = 0, multiplicity = 1:

    O           -1.057593936570     0.879922464957    -0.598369182399
    C           -0.863986369492     0.101698272266     0.277744142247
    C            0.509411939516    -0.107900740795     0.886086668948
    C           -1.990077390868    -0.710166865453     0.873596153053
    C            1.697372023728     0.273387351334     0.003734861866
    H            0.593054450279    -1.142319850859     1.206421194081
    H            0.522378325595     0.483741504012     1.799171806125
    C            1.728257859658    -0.408557327564    -1.360338055368
    H            1.738305989245     1.350698704056    -0.104010685173
    H            2.596024358183    -0.001247577979     0.548432210790
    H            2.640504629393    -0.154850117127    -1.887656800677
    H            0.892575269164    -0.108054194642    -1.975308536852
    H            1.703455790173    -1.489389228741    -1.254823471915
    H           -1.863335365566    -1.752413381336     0.599368910202
    H           -2.938861866540    -0.354207872704     0.502128400425
    H           -1.970338931065    -0.657833363414     1.956378121434

  Mulliken Charges: (a.u.)
   Center  Symbol    Alpha    Beta     Spin     Total
       1     O     4.17417  4.17417  0.00000 -0.34833
       2     C     2.85706  2.85706  0.00000  0.28588
       3     C     3.11919  3.11919  0.00000 -0.23838
       4     C     3.15197  3.15197  0.00000 -0.30393
       5     C     3.08010  3.08010  0.00000 -0.16020
       6     H     0.44456  0.44456  0.00000  0.11087
       7     H     0.43731  0.43731  0.00000  0.12538
       8     C     3.15644  3.15644  0.00000 -0.31287
       9     H     0.44721  0.44721  0.00000  0.10558
      10     H     0.44957  0.44957  0.00000  0.10087
      11     H     0.44814  0.44814  0.00000  0.10371
      12     H     0.43929  0.43929  0.00000  0.12142
      13     H     0.45900  0.45900  0.00000  0.08200
      14     H     0.44949  0.44949  0.00000  0.10102
      15     H     0.43608  0.43608  0.00000  0.12784
      16     H     0.45042  0.45042  0.00000  0.09915

   Total alpha = 24.00000, Total beta = 24.00000, Total charge = -0.00000
