                              Psi4 1.0.54 Driver

  ==> Input File <==

--------------------------------------------------------------------------
set {
	reference rhf
	basis cc-pvtz
}

set_num_threads( 4 )
memory 2 gb

molecule MOL {
0 1

H	 -3.268214	 -0.875720	 0.463107
C	 -2.806015	 0.000007	 0.024886
N	 -1.391133	 0.000016	 0.301321
H	 -3.029448	 0.000055	 -1.045738
H	 -3.268126	 0.875758	 0.463150
C	 -0.628726	 0.669147	 -0.730461
C	 -0.876976	 -1.331264	 0.539788
H	 -0.737108	 0.166240	 -1.695960
H	 -1.003692	 1.679381	 -0.844089
C	 0.842373	 0.720180	 -0.362661
H	 -1.433165	 -1.781411	 1.353489
H	 -1.002277	 -1.970536	 -0.339120
C	 0.594123	 -1.280231	 0.907588
H	 1.398563	 1.170327	 -1.176363
H	 0.967675	 1.359452	 0.516246
N	 1.356531	 -0.611100	 -0.124195
H	 0.969090	 -2.290466	 1.021215
H	 0.702506	 -0.777324	 1.873086
C	 2.771413	 -0.611091	 0.152240
H	 3.308876	 -0.157606	 -0.671196
H	 3.126349	 -1.628154	 0.262532
H	 3.025838	 -0.063621	 1.064217

	symmetry c1
}
set optking {
	frozen_dihedral = ("
		6 3 2 4
	")
}

ee,wfn = optimize('scf', return_wfn=True)
oeprop( wfn, 'DIPOLE', 'QUADRUPOLE', 'MULLIKEN_CHARGES')
f=open( 'psi4out.xyz', 'w' )
f.write( "22  " )
f.write( str(ee) + "\n" )
f.write( MOL.save_string_xyz() )
f.close()
--------------------------------------------------------------------------

    Molecular point group: c1
  Charge       = 0
  Multiplicity = 1
  Basis Set: CC-PVTZ
  Basis Set:
  @DF-RHF Final Energy:  -344.34690762241024
    Total Energy =                       -344.3469076224100718
    Molecular point group: c1
  Basis Set: CC-PVTZ
  Basis Set:
  Basis Set: CC-PVTZ
  Basis Set:
  @DF-RHF Final Energy:  -344.34713390542623
    Total Energy =                       -344.3471339054261762
  Basis Set: CC-PVTZ
  Basis Set:
  Basis Set: CC-PVTZ
  Basis Set:
  @DF-RHF Final Energy:  -344.34717507389621
    Total Energy =                       -344.3471750738957553
  Basis Set: CC-PVTZ
  Basis Set:
  Basis Set: CC-PVTZ
  Basis Set:
  @DF-RHF Final Energy:  -344.34717665671644
    Total Energy =                       -344.3471766567166696
  Basis Set: CC-PVTZ
  Basis Set:
  Charge       = 0
  Multiplicity = 1
  Basis Set: CC-PVTZ
  Basis Set:

    Orbital Energies (a.u.)
    -----------------------

    Doubly Occupied:

       1A    -15.537279     2A    -15.537118     3A    -11.237426
       4A    -11.237356     5A    -11.236701     6A    -11.236610
       7A    -11.234092     8A    -11.234044     9A     -1.256337
      10A     -1.204994    11A     -1.025357    12A     -0.992377
      13A     -0.912369    14A     -0.867377    15A     -0.836648
      16A     -0.755978    17A     -0.666397    18A     -0.636710
      19A     -0.631810    20A     -0.626222    21A     -0.621643
      22A     -0.581505    23A     -0.551599    24A     -0.547654
      25A     -0.541947    26A     -0.518829    27A     -0.498314
      28A     -0.489222    29A     -0.465244    30A     -0.456245
      31A     -0.351930    32A     -0.347422

  @DF-RHF Final Energy:  -344.34717617807019

   => Energetics <=

    Nuclear Repulsion Energy =            421.7530971268495250
    One-Electron Energy =               -1302.4510424709242216
    Two-Electron Energy =                 536.3507691660043974
    DFT Exchange-Correlation Energy =       0.0000000000000000
    Empirical Dispersion Energy =           0.0000000000000000
    PCM Polarization Energy =               0.0000000000000000
    EFP Energy =                            0.0000000000000000
    Total Energy =                       -344.3471761780702991
    Molecular point group: c1
  Basis Set: CC-PVTZ
  Basis Set:

  -Total Gradient:
     Atom            X                  Y                   Z
    ------   -----------------  -----------------  -----------------
       1       -0.000032681528     0.000051677546     0.000093033499
       2       -0.000135888096    -0.007755732643    -0.000784276147
       3       -0.000367899132     0.005929850810     0.002513845919
       4        0.000185008514     0.005072445026    -0.000082074743
       5        0.000063141792    -0.000041245454     0.000096314319
       6        0.000368357788    -0.003225932865    -0.001809596746
       7        0.000019682257     0.000088121432    -0.000035057508
       8       -0.000048912918    -0.000005549139     0.000014493361
       9       -0.000076673913    -0.000039435271    -0.000051987184
      10        0.000044017331     0.000020549566     0.000029625393
      11        0.000015257093     0.000034489504    -0.000032301019
      12       -0.000005444714    -0.000070028736     0.000011287830
      13       -0.000022239457    -0.000094985103     0.000032631932
      14       -0.000003998741    -0.000000936211     0.000001238772
      15        0.000009033078     0.000008049768     0.000007779804
      16       -0.000040677121     0.000015564011    -0.000003565333
      17        0.000010460879     0.000001291933     0.000012980674
      18        0.000001788555     0.000003281951    -0.000001991340
      19        0.000014998863     0.000006680759    -0.000012927730
      20        0.000006128245    -0.000000641070     0.000002960197
      21       -0.000000033435     0.000002408799    -0.000000490739
      22       -0.000003425344     0.000000075386    -0.000001923213

  **** Optimization is complete! (in 5 steps) ****
    Final optimized geometry and variables:
    Molecular point group: c1

    Geometry (in Angstrom), charge = 0, multiplicity = 1:

    H           -3.290415473328    -0.520707238373     0.393936872863
    C           -2.796850790934     0.322774986402    -0.068488872884
    N           -1.375040130262     0.307656833431     0.215009978154
    H           -3.008920294841     0.314888756343    -1.137727303498
    H           -3.245937439608     1.226911785350     0.329568573977
    C           -0.608645521737     0.959311935423    -0.826392895323
    C           -0.859779929162    -1.027024630327     0.448996132017
    H           -0.717530501125     0.437365980314    -1.780985596425
    H           -0.984396555661     1.967377849240    -0.961493815801
    C            0.861754360217     1.019520253846    -0.458697135919
    H           -1.412762274720    -1.479008294131     1.263177339300
    H           -0.980633150629    -1.667335281879    -0.429685060936
    C            0.610314310594    -0.973671130403     0.821508037310
    H            1.416762194270     1.463274374957    -1.276944866104
    H            0.985037999309     1.667949121310     0.413791430628
    N            1.378324696923    -0.308299926686    -0.208270926860
    H            0.985085786563    -1.983454640752     0.941253816888
    H            0.712980783068    -0.466988381682     1.785803874903
    C            2.791153649558    -0.303360146723     0.077049927509
    H            3.332811991054     0.147310113122    -0.745296170472
    H            3.148064334589    -1.318967881793     0.194901586298
    H            3.038671372407     0.249475730724     0.987800927487

  Mulliken Charges: (a.u.)
   Center  Symbol    Alpha    Beta     Spin     Total
       1     H     0.45483  0.45483  0.00000  0.09033
       2     C     3.09636  3.09636  0.00000 -0.19272
       3     N     3.61573  3.61573  0.00000 -0.23145
       4     H     0.46636  0.46636  0.00000  0.06728
       5     H     0.44988  0.44988  0.00000  0.10023
       6     C     3.03658  3.03658  0.00000 -0.07316
       7     C     3.03425  3.03425  0.00000 -0.06849
       8     H     0.46706  0.46706  0.00000  0.06588
       9     H     0.45348  0.45348  0.00000  0.09304
      10     C     3.03662  3.03662  0.00000 -0.07324
      11     H     0.45391  0.45391  0.00000  0.09218
      12     H     0.46871  0.46871  0.00000  0.06259
      13     C     3.03655  3.03655  0.00000 -0.07310
      14     H     0.45392  0.45392  0.00000  0.09216
      15     H     0.46811  0.46811  0.00000  0.06378
      16     N     3.61288  3.61288  0.00000 -0.22575
      17     H     0.45394  0.45394  0.00000  0.09213
      18     H     0.46836  0.46836  0.00000  0.06328
      19     C     3.09849  3.09849  0.00000 -0.19699
      20     H     0.45200  0.45200  0.00000  0.09600
      21     H     0.45199  0.45199  0.00000  0.09601
      22     H     0.47000  0.47000  0.00000  0.06000

   Total alpha = 32.00000, Total beta = 32.00000, Total charge = -0.00000

*** Psi4 exiting successfully. Buy a developer a beer!
