  ==> Input File <==

--------------------------------------------------------------------------
set {
	reference rhf
	basis 6-31G*
}

set_num_threads( 4 )
memory 2 gb

molecule MOL {
0 1

H	 2.487018	 -1.294191	 1.054970
N	 1.503435	 -1.111457	 1.078095
C	 0.807213	 -1.959463	 0.127899
C	 1.242264	 0.293885	 0.826071
H	 1.015557	 -2.997525	 0.364098
H	 1.121817	 -1.778263	 -0.902553
C	 -0.688550	 -1.702588	 0.233443
H	 1.765663	 0.887648	 1.567871
H	 1.583217	 0.611562	 -0.162095
C	 -0.253769	 0.549363	 0.931183
H	 -1.037526	 -2.025973	 1.218703
H	 -1.211724	 -2.291963	 -0.512529
N	 -0.975995	 -0.298722	 0.000000
H	 -0.462958	 1.586272	 0.689095
H	 -0.573615	 0.376851	 1.963189
C	 -2.393863	 -0.024976	 0.000000
H	 -2.854032	 -0.467193	 -0.876721
H	 -2.854032	 -0.467193	 0.876721
H	 -2.623281	 1.044943	 0.000000

	symmetry c1
}
set optking {
	frozen_dihedral = ("
		7 13 16 19
	")
}

ee = optimize('scf')
oeprop('DIPOLE', 'QUADRUPOLE', 'MULLIKEN_CHARGES')
f=open( 'psi4out.xyz', 'w' )
f.write( "19  " )
f.write( str(ee) + "\n" )
f.write( MOL.save_string_xyz() )
f.close()
--------------------------------------------------------------------------

    Molecular point group: c1
  Charge       = 0
  Multiplicity = 1
  Basis Set: 6-31G*
  Basis Set:
  @DF-RHF Final Energy:  -305.19810791294998
    Total Energy =                       -305.1981079129498085
    Molecular point group: c1
  Basis Set: 6-31G*
  Basis Set:
  Basis Set: 6-31G*
  Basis Set:
  @DF-RHF Final Energy:  -305.19883758292161
    Total Energy =                       -305.1988375829217262
  Basis Set: 6-31G*
  Basis Set:
  Basis Set: 6-31G*
  Basis Set:
  @DF-RHF Final Energy:  -305.19895593748242
    Total Energy =                       -305.1989559374828787
  Basis Set: 6-31G*
  Basis Set:
  Basis Set: 6-31G*
  Basis Set:
  @DF-RHF Final Energy:  -305.19895746405507
    Total Energy =                       -305.1989574640554110
  Basis Set: 6-31G*
  Basis Set:
  Charge       = 0
  Multiplicity = 1
  Basis Set: 6-31G*
  Basis Set:

    Orbital Energies (a.u.)
    -----------------------

    Doubly Occupied:

       1A    -15.541420     2A    -15.536579     3A    -11.238605
       4A    -11.238570     5A    -11.237290     6A    -11.237098
       7A    -11.235043     8A     -1.247392     9A     -1.185680
      10A     -1.022754    11A     -0.964454    12A     -0.860543
      13A     -0.857342    14A     -0.757717    15A     -0.691249
      16A     -0.633080    17A     -0.626439    18A     -0.607960
      19A     -0.603586    20A     -0.579409    21A     -0.543504
      22A     -0.529181    23A     -0.512247    24A     -0.490220
      25A     -0.465805    26A     -0.456741    27A     -0.363300
      28A     -0.346528

  @DF-RHF Final Energy:  -305.19895779024182

   => Energetics <=

    Nuclear Repulsion Energy =            339.8828668100862842
    One-Electron Energy =               -1086.9441768291480912
    Two-Electron Energy =                 441.8623522288201002
    DFT Exchange-Correlation Energy =       0.0000000000000000
    Empirical Dispersion Energy =           0.0000000000000000
    PCM Polarization Energy =               0.0000000000000000
    EFP Energy =                            0.0000000000000000
    Total Energy =                       -305.1989577902417068
    Molecular point group: c1
  Basis Set: 6-31G*
  Basis Set:

  -Total Gradient:
     Atom            X                  Y                   Z
    ------   -----------------  -----------------  -----------------
       1       -0.000000144982     0.000006251056     0.000002242537
       2       -0.000001509396    -0.000000996381    -0.000001677706
       3        0.000001154740    -0.000002517873     0.000011849384
       4        0.000013247676     0.000004857476    -0.000007941505
       5        0.000000512299    -0.000001474978    -0.000000204541
       6       -0.000003465498     0.000000695955     0.000003089225
       7        0.000078829285     0.000440083601     0.002299096724
       8       -0.000000801690     0.000000478878     0.000001007763
       9        0.000001630608     0.000000503811    -0.000001141588
      10       -0.000015649536    -0.000016710682    -0.000017206081
      11        0.000003685599    -0.000001375403    -0.000000108347
      12       -0.000005484583     0.000000202256     0.000000179224
      13       -0.000120497359    -0.000575268446    -0.002364788900
      14        0.000003478464    -0.000000647266     0.000001855129
      15       -0.000005056955    -0.000001508713     0.000002732377
      16        0.000020313628     0.000126157005    -0.003060934925
      17        0.000012894290    -0.000000453944     0.000007070375
      18       -0.000005454214    -0.000004418467    -0.000000606801
      19        0.000022317624     0.000026142116     0.003125487654

  **** Optimization is complete! (in 5 steps) ****
    Final optimized geometry and variables:
    Molecular point group: c1

    Geometry (in Angstrom), charge = 0, multiplicity = 1:

    H            2.607654759726    -0.683191007932     0.592631786982
    N            1.623634614448    -0.503329159582     0.618788694765
    C            0.926437260596    -1.351274267021    -0.330616003073
    C            1.357493026703     0.901794139299     0.371208602668
    H            1.133013133022    -2.389499611396    -0.093315849825
    H            1.240861153957    -1.171981642362    -1.361375804059
    C           -0.568492147514    -1.091380465857    -0.224210225955
    H            1.879030339122     1.495178290772     1.114709387176
    H            1.697047460905     1.223818827386    -0.616020602816
    C           -0.139214206704     1.153896341166     0.476228555832
    H           -0.916581506586    -1.405562054714     0.763993521599
    H           -1.094708011737    -1.686379946633    -0.964131122259
    N           -0.858051496909     0.311469935786    -0.465248500308
    H           -0.347308685234     2.192409184130     0.241500094739
    H           -0.459634429984     0.973151680350     1.506578327617
    C           -2.280939281856     0.570157638183    -0.456657535274
    H           -2.746836196796     0.133075829692    -1.333046189120
    H           -2.777196474642     0.164776614494     0.430289636387
    H           -2.461696607715     1.638710833512    -0.461879597050

  Mulliken Charges: (a.u.)
   Center  Symbol    Alpha    Beta     Spin     Total
       1     H     0.32951  0.32951  0.00000  0.34099
       2     N     3.85425  3.85425  0.00000 -0.70851
       3     C     3.06311  3.06311  0.00000 -0.12622
       4     C     3.06338  3.06338  0.00000 -0.12675
       5     H     0.41759  0.41759  0.00000  0.16482
       6     H     0.42753  0.42753  0.00000  0.14494
       7     C     3.05651  3.05651  0.00000 -0.11303
       8     H     0.41761  0.41761  0.00000  0.16477
       9     H     0.42753  0.42753  0.00000  0.14494
      10     C     3.05638  3.05638  0.00000 -0.11276
      11     H     0.42740  0.42740  0.00000  0.14520
      12     H     0.41852  0.41852  0.00000  0.16296
      13     N     3.78686  3.78686  0.00000 -0.57372
      14     H     0.41843  0.41843  0.00000  0.16313
      15     H     0.42800  0.42800  0.00000  0.14401
      16     C     3.14032  3.14032  0.00000 -0.28063
      17     H     0.41581  0.41581  0.00000  0.16839
      18     H     0.43313  0.43313  0.00000  0.13373
      19     H     0.41813  0.41813  0.00000  0.16374

   Total alpha = 28.00000, Total beta = 28.00000, Total charge = -0.00000
