  ==> Input File <==

--------------------------------------------------------------------------
set {
	reference rhf
	basis 6-31G*
}

set_num_threads( 4 )
memory 2 gb

molecule MOL {
0 1

O	 0.625848	 1.349995	 -0.000749
C	 0.486307	 0.169203	 0.000779
C	 1.608116	 -0.841643	 0.000302
O	 -0.698257	 -0.426125	 0.001050
C	 2.990107	 -0.200498	 -0.000684
H	 1.468623	 -1.481519	 -0.865924
H	 1.469683	 -1.481289	 0.866878
H	 3.129736	 0.423364	 -0.875135
H	 3.757882	 -0.966877	 -0.001197
H	 3.130964	 0.423383	 0.873533
C	 -1.853103	 0.406780	 0.001512
C	 -3.066105	 -0.499275	 -0.000169
H	 -1.828720	 1.043693	 -0.872176
H	 -1.829545	 1.041765	 0.876629
H	 -3.072133	 -1.132482	 -0.880039
H	 -3.972708	 0.097147	 0.000007
H	 -3.073093	 -1.134433	 0.878343

	symmetry c1
}
set optking {
	frozen_dihedral = ("
		11 4 2 3
	")
}

ee = optimize('scf')
oeprop('DIPOLE', 'QUADRUPOLE', 'MULLIKEN_CHARGES')
f=open( 'psi4out.xyz', 'w' )
f.write( "17  " )
f.write( str(ee) + "\n" )
f.write( MOL.save_string_xyz() )
f.close()
--------------------------------------------------------------------------

    Molecular point group: c1
  Charge       = 0
  Multiplicity = 1
  Basis Set: 6-31G*
  Basis Set:
  @DF-RHF Final Energy:  -344.91198397811434
    Total Energy =                       -344.9119839781144492
    Molecular point group: c1
  Basis Set: 6-31G*
  Basis Set:
  Basis Set: 6-31G*
  Basis Set:
  @DF-RHF Final Energy:  -344.91197791699307
    Total Energy =                       -344.9119779169928961
  Basis Set: 6-31G*
  Basis Set:
  Basis Set: 6-31G*
  Basis Set:
  @DF-RHF Final Energy:  -344.91198418123236
    Total Energy =                       -344.9119841812323557
  Basis Set: 6-31G*
  Basis Set:
  Charge       = 0
  Multiplicity = 1
  Basis Set: 6-31G*
  Basis Set:

    Orbital Energies (a.u.)
    -----------------------

    Doubly Occupied:

       1A    -20.600876     2A    -20.544299     3A    -11.371295
       4A    -11.284791     5A    -11.237560     6A    -11.222325
       7A    -11.215769     8A     -1.467537     9A     -1.361904
      10A     -1.069990    11A     -1.031800    12A     -0.910729
      13A     -0.847325    14A     -0.772766    15A     -0.695470
      16A     -0.689737    17A     -0.664324    18A     -0.629885
      19A     -0.582113    20A     -0.572204    21A     -0.558439
      22A     -0.523441    23A     -0.518954    24A     -0.514677
      25A     -0.504650    26A     -0.492636    27A     -0.452602
      28A     -0.436123

  @DF-RHF Final Energy:  -344.91198417824216

   => Energetics <=

    Nuclear Repulsion Energy =            314.6839558772269356
    One-Electron Energy =               -1093.6434398571286692
    Two-Electron Energy =                 434.0474998016596828
    DFT Exchange-Correlation Energy =       0.0000000000000000
    Empirical Dispersion Energy =           0.0000000000000000
    PCM Polarization Energy =               0.0000000000000000
    EFP Energy =                            0.0000000000000000
    Total Energy =                       -344.9119841782420508
    Molecular point group: c1
  Basis Set: 6-31G*
  Basis Set:

  -Total Gradient:
     Atom            X                  Y                   Z
    ------   -----------------  -----------------  -----------------
       1        0.000000981600     0.000003626434     0.000012904615
       2       -0.000005530664    -0.000004618241    -0.000045392094
       3        0.000000172135    -0.000000591093     0.000015470537
       4        0.000006116713    -0.000000159646     0.000006981993
       5        0.000001641660     0.000000847649    -0.000000912210
       6       -0.000002204664     0.000002284947    -0.000000453405
       7        0.000001984354    -0.000002465251    -0.000000927650
       8       -0.000000498772    -0.000000820501     0.000000749285
       9       -0.000000158460    -0.000000229150    -0.000000071359
      10        0.000000137590     0.000000504951     0.000000711034
      11       -0.000001808024     0.000003148143     0.000037706874
      12        0.000000478365     0.000000497650    -0.000008151296
      13        0.000004648460    -0.000001095671    -0.000005389082
      14       -0.000005027451    -0.000000662414    -0.000009237327
      15       -0.000002947894    -0.000003758240    -0.000001128138
      16       -0.000000934710     0.000000087850    -0.000001270453
      17        0.000002949762     0.000003402578    -0.000001591324

  **** Optimization is complete! (in 4 steps) ****
    Final optimized geometry and variables:
    Molecular point group: c1

    Geometry (in Angstrom), charge = 0, multiplicity = 1:

    O            0.625776025928     1.350064188005    -0.000169083509
    C            0.486309212368     0.169279625204    -0.000103180328
    C            1.608084660238    -0.841630530397    -0.000441226361
    O           -0.698254589520    -0.426128253792     0.000538572526
    C            2.990154315225    -0.200546964968    -0.000683144828
    H            1.468892868664    -1.481259553081    -0.866895346623
    H            1.469276796049    -1.481486995162     0.865900120735
    H            3.130194344433     0.423405465017    -0.874982433299
    H            3.757849997547    -0.967000210187    -0.000959148374
    H            3.130607488564     0.423186403102     0.873711238192
    C           -1.853064840531     0.406746899002     0.000921472896
    C           -3.066068276341    -0.499328035855    -0.000068747738
    H           -1.828904528071     1.043335460711    -0.872989961008
    H           -1.829339679632     1.042083304790     0.875745657248
    H           -3.072343429849    -1.132935285906    -0.879686169998
    H           -3.972690166840     0.097077076860     0.000091421694
    H           -3.072825201872    -1.134146291703     0.878663555842

  Mulliken Charges: (a.u.)
   Center  Symbol    Alpha    Beta     Spin     Total
       1     O     4.28638  4.28638  0.00000 -0.57275
       2     C     2.60570  2.60570  0.00000  0.78861
       3     C     3.20499  3.20499  0.00000 -0.40998
       4     O     4.31323  4.31323  0.00000 -0.62645
       5     C     3.23876  3.23876  0.00000 -0.47751
       6     H     0.40078  0.40078  0.00000  0.19844
       7     H     0.40077  0.40077  0.00000  0.19846
       8     H     0.40997  0.40997  0.00000  0.18005
       9     H     0.41823  0.41823  0.00000  0.16355
      10     H     0.40998  0.40998  0.00000  0.18004
      11     C     3.00211  3.00211  0.00000 -0.00422
      12     C     3.24842  3.24842  0.00000 -0.49684
      13     H     0.41030  0.41030  0.00000  0.17940
      14     H     0.41032  0.41032  0.00000  0.17935
      15     H     0.41188  0.41188  0.00000  0.17623
      16     H     0.41630  0.41630  0.00000  0.16739
      17     H     0.41188  0.41188  0.00000  0.17623

   Total alpha = 28.00000, Total beta = 28.00000, Total charge =  0.00000
