                              Psi4 1.0.54 Driver

  ==> Input File <==

--------------------------------------------------------------------------
set {
	reference rhf
	basis cc-pvtz
}

set_num_threads( 4 )
memory 2 gb

molecule MOL {
0 1

H	 -3.822262	 -2.256663	 0.327743
C	 -2.752273	 -2.172261	 0.340986
C	 -1.981284	 -3.237948	 0.769389
C	 -2.148819	 -0.998887	 -0.070137
H	 -2.450371	 -4.148398	 1.088353
C	 -0.606407	 -3.128738	 0.786121
H	 -2.747616	 -0.173019	 -0.402187
C	 -0.772252	 -0.887993	 -0.053959
H	 0.005619	 -3.943900	 1.114744
C	 0.003190	 -1.953609	 0.374602
H	 -0.301760	 0.019317	 -0.371697
C	 1.492134	 -1.885755	 0.411473
O	 1.968286	 -0.725612	 -0.000027
O	 2.184173	 -2.778043	 0.772144
C	 3.373556	 -0.568203	 0.000011
H	 3.695416	 -0.031588	 -0.879663
H	 3.782700	 -1.565294	 -0.000152
H	 3.695405	 -0.031851	 0.879862

	symmetry c1
}
set optking {
	frozen_dihedral = ("
		12 13 15 16
	")
}

ee,wfn = optimize('scf', return_wfn=True)
oeprop( wfn, 'DIPOLE', 'QUADRUPOLE', 'MULLIKEN_CHARGES')
f=open( 'psi4out.xyz', 'w' )
f.write( "18  " )
f.write( str(ee) + "\n" )
f.write( MOL.save_string_xyz() )
f.close()
--------------------------------------------------------------------------

    Molecular point group: c1
  Charge       = 0
  Multiplicity = 1
  Basis Set: CC-PVTZ
  Basis Set:
  @DF-RHF Final Energy:  -457.50669092924716
    Total Energy =                       -457.5066909292472701
    Molecular point group: c1
  Basis Set: CC-PVTZ
  Basis Set:
  Basis Set: CC-PVTZ
  Basis Set:
  @DF-RHF Final Energy:  -457.50756298434493
    Total Energy =                       -457.5075629843452134
  Basis Set: CC-PVTZ
  Basis Set:
  Basis Set: CC-PVTZ
  Basis Set:
  @DF-RHF Final Energy:  -457.50841111216704
    Total Energy =                       -457.5084111121666410
  Basis Set: CC-PVTZ
  Basis Set:
  Basis Set: CC-PVTZ
  Basis Set:
  @DF-RHF Final Energy:  -457.50826918376418
    Total Energy =                       -457.5082691837641278
  Basis Set: CC-PVTZ
  Basis Set:
  Basis Set: CC-PVTZ
  Basis Set:
  @DF-RHF Final Energy:  -457.50854823428028
    Total Energy =                       -457.5085482342805108
  Basis Set: CC-PVTZ
  Basis Set:
  Basis Set: CC-PVTZ
  Basis Set:
  @DF-RHF Final Energy:  -457.50855068115987
    Total Energy =                       -457.5085506811598179
  Basis Set: CC-PVTZ
  Basis Set:
  Charge       = 0
  Multiplicity = 1
  Basis Set: CC-PVTZ
  Basis Set:

    Orbital Energies (a.u.)
    -----------------------

    Doubly Occupied:

       1A    -20.600120     2A    -20.533807     3A    -11.372922
       4A    -11.280207     5A    -11.244639     6A    -11.243232
       7A    -11.242327     8A    -11.239698     9A    -11.235753
      10A    -11.234989    11A     -1.474928    12A     -1.368978
      13A     -1.170414    14A     -1.051597    15A     -1.028725
      16A     -0.981433    17A     -0.862838    18A     -0.838114
      19A     -0.780620    20A     -0.744993    21A     -0.688272
      22A     -0.680027    23A     -0.676069    24A     -0.634181
      25A     -0.629781    26A     -0.600954    27A     -0.587451
      28A     -0.570299    29A     -0.527056    30A     -0.519990
      31A     -0.509985    32A     -0.501617    33A     -0.461464
      34A     -0.449610    35A     -0.350029    36A     -0.345927

  @DF-RHF Final Energy:  -457.50855125101378

   => Energetics <=

    Nuclear Repulsion Energy =            493.6777599070232441
    One-Electron Energy =               -1601.8465371670504283
    Two-Electron Energy =                 650.6602260090130585
    DFT Exchange-Correlation Energy =       0.0000000000000000
    Empirical Dispersion Energy =           0.0000000000000000
    PCM Polarization Energy =               0.0000000000000000
    EFP Energy =                            0.0000000000000000
    Total Energy =                       -457.5085512510140688
    Molecular point group: c1
  Basis Set: CC-PVTZ
  Basis Set:

  -Total Gradient:
     Atom            X                  Y                   Z
    ------   -----------------  -----------------  -----------------
       1        0.000001115343     0.000001041644    -0.000000216866
       2        0.000002356350    -0.000003421796     0.000001717782
       3       -0.000005327013     0.000003270048    -0.000001783678
       4        0.000001593552     0.000001801144    -0.000000872446
       5        0.000000008205     0.000001077387    -0.000000672518
       6        0.000001420255    -0.000001243505     0.000001194195
       7       -0.000001927456    -0.000000855546     0.000000182678
       8       -0.000006940291     0.000007211347     0.000000195031
       9       -0.000000521713     0.000002983978    -0.000001647990
      10        0.000016004486    -0.000014657848    -0.000000944789
      11       -0.000001411253    -0.000004162607     0.000000449775
      12       -0.000009189798    -0.000381138361    -0.001116711544
      13        0.000012498382     0.000322452254     0.001486736051
      14        0.000008859927    -0.000008322195     0.000002005738
      15       -0.000139929117     0.001204458674     0.000305192029
      16        0.000134902495    -0.001137494928    -0.000669172062
      17       -0.000004100467     0.000008395444    -0.000001961281
      18       -0.000009411881    -0.000001395137    -0.000003690107

  **** Optimization is complete! (in 7 steps) ****
    Final optimized geometry and variables:
    Molecular point group: c1

    Geometry (in Angstrom), charge = 0, multiplicity = 1:

    H           -4.026560009629    -0.417049851483    -0.025524914791
    C           -2.955961589663    -0.341899615293    -0.004713016911
    C           -2.197078628015    -1.415024280778     0.426905536049
    C           -2.339360464047     0.826905171036    -0.409071100957
    H           -2.676130324431    -2.322092273131     0.740854217786
    C           -0.821477259654    -1.317649016208     0.453524115954
    H           -2.928450162708     1.658803328136    -0.743552043837
    C           -0.961881297540     0.925870934028    -0.383107622280
    H           -0.219097828974    -2.138812344707     0.785004292932
    C           -0.198515376321    -0.147139579168     0.048465634730
    H           -0.481768971724     1.829925960704    -0.695494814869
    C            1.291910114347    -0.094111537987     0.096153618910
    O            1.774005228443     1.067187850613    -0.307038269360
    O            1.967280755104    -0.997816644626     0.458693475026
    C            3.175960514171     1.255966002404    -0.344620805246
    H            3.392818772992     1.812860263323    -1.242893450579
    H            3.690068337484     0.310496812510    -0.362473234750
    H            3.482591235002     1.821268560894     0.523914387130

  Mulliken Charges: (a.u.)
   Center  Symbol    Alpha    Beta     Spin     Total
       1     H     0.42034  0.42034  0.00000  0.15933
       2     C     3.06974  3.06974  0.00000 -0.13947
       3     C     3.07556  3.07556  0.00000 -0.15111
       4     C     3.07488  3.07488  0.00000 -0.14975
       5     H     0.42047  0.42047  0.00000  0.15906
       6     C     3.07591  3.07591  0.00000 -0.15182
       7     H     0.42197  0.42197  0.00000  0.15607
       8     C     3.08197  3.08197  0.00000 -0.16394
       9     H     0.40641  0.40641  0.00000  0.18718
      10     C     3.01795  3.01795  0.00000 -0.03590
      11     H     0.41118  0.41118  0.00000  0.17764
      12     C     2.77554  2.77554  0.00000  0.44892
      13     O     4.14995  4.14995  0.00000 -0.29991
      14     O     4.21142  4.21142  0.00000 -0.42283
      15     C     3.04059  3.04059  0.00000 -0.08118
      16     H     0.44936  0.44936  0.00000  0.10128
      17     H     0.44214  0.44214  0.00000  0.11572
      18     H     0.45464  0.45464  0.00000  0.09073

   Total alpha = 36.00000, Total beta = 36.00000, Total charge = -0.00000

*** Psi4 exiting successfully. Buy a developer a beer!
