  ==> Input File <==

--------------------------------------------------------------------------
set {
	reference rhf
	basis cc-pvtz
}

set_num_threads( 4 )
memory 2 gb

molecule MOL {
0 1

O	 0.074770	 1.259872	 0.000487
C	 0.029490	 0.077183	 0.000078
C	 -1.232113	 -0.748027	 0.000015
O	 1.106773	 -0.690081	 -0.000204
C	 -2.501422	 0.088592	 -0.000052
H	 -1.188777	 -1.400384	 -0.865133
H	 -1.188857	 -1.400312	 0.865225
H	 -2.548170	 0.725504	 -0.873205
H	 -3.371613	 -0.556398	 -0.000040
H	 -2.548215	 0.725571	 0.873047
C	 1.386065	 -1.416048	 -1.180293
H	 0.576831	 -2.092491	 -1.412243
H	 2.289199	 -1.970127	 -0.982380
H	 1.534940	 -0.745760	 -2.013838

	symmetry c1
}
set optking {
	frozen_dihedral = ("
		11 4 2 3
	")
}

ee = optimize('scf')
oeprop('DIPOLE', 'QUADRUPOLE', 'MULLIKEN_CHARGES')
f=open( 'psi4out.xyz', 'w' )
f.write( "14  " )
f.write( str(ee) + "\n" )
f.write( MOL.save_string_xyz() )
f.close()
--------------------------------------------------------------------------

    Molecular point group: c1
  Charge       = 0
  Multiplicity = 1
  Basis Set: CC-PVTZ
  Basis Set:
  @DF-RHF Final Energy:  -305.96437535221776
    Total Energy =                       -305.9643753522178713
    Molecular point group: c1
  Basis Set: CC-PVTZ
  Basis Set:
  Basis Set: CC-PVTZ
  Basis Set:
  @DF-RHF Final Energy:  -305.96616954599949
    Total Energy =                       -305.9661695459993780
  Basis Set: CC-PVTZ
  Basis Set:
  Basis Set: CC-PVTZ
  Basis Set:
  @DF-RHF Final Energy:  -305.96677240656197
    Total Energy =                       -305.9667724065618586
  Basis Set: CC-PVTZ
  Basis Set:
  Basis Set: CC-PVTZ
  Basis Set:
  @DF-RHF Final Energy:  -305.96752202551181
    Total Energy =                       -305.9675220255114141
  Basis Set: CC-PVTZ
  Basis Set:
  Basis Set: CC-PVTZ
  Basis Set:
  @DF-RHF Final Energy:  -305.96755379145168
    Total Energy =                       -305.9675537914516781
  Basis Set: CC-PVTZ
  Basis Set:
  Basis Set: CC-PVTZ
  Basis Set:
  @DF-RHF Final Energy:  -305.96755757203880
    Total Energy =                       -305.9675575720384018
  Basis Set: CC-PVTZ
  Basis Set:
  Charge       = 0
  Multiplicity = 1
  Basis Set: CC-PVTZ
  Basis Set:

    Orbital Energies (a.u.)
    -----------------------

    Doubly Occupied:

       1A    -20.581296     2A    -20.543854     3A    -11.368109
       4A    -11.291847     5A    -11.243244     6A    -11.218586
       7A     -1.462462     8A     -1.371128     9A     -1.063566
      10A     -0.979153    11A     -0.896108    12A     -0.768062
      13A     -0.703600    14A     -0.680554    15A     -0.676613
      16A     -0.629340    17A     -0.613755    18A     -0.559129
      19A     -0.547852    20A     -0.526085    21A     -0.512415
      22A     -0.492418    23A     -0.460289    24A     -0.439557

  @DF-RHF Final Energy:  -305.96755781694969

   => Energetics <=

    Nuclear Repulsion Energy =            247.1480637819711603
    One-Electron Energy =                -906.9732035783451920
    Two-Electron Energy =                 353.8575819794245945
    DFT Exchange-Correlation Energy =       0.0000000000000000
    Empirical Dispersion Energy =           0.0000000000000000
    PCM Polarization Energy =               0.0000000000000000
    EFP Energy =                            0.0000000000000000
    Total Energy =                       -305.9675578169494656
    Molecular point group: c1
  Basis Set: CC-PVTZ
  Basis Set:

  -Total Gradient:
     Atom            X                  Y                   Z
    ------   -----------------  -----------------  -----------------
       1        0.000019436476    -0.000003811638     0.000011927691
       2        0.000367069861     0.000468524824    -0.001966361391
       3       -0.000022983458     0.000027062824     0.001166041098
       4       -0.001039190727    -0.001527567933     0.001198663436
       5        0.000002888469    -0.000008246420     0.000003045856
       6       -0.000003062480    -0.000006943473     0.000000312238
       7       -0.000002456875    -0.000002931968     0.000001595011
       8        0.000002272070    -0.000000149344    -0.000003102907
       9        0.000006839924    -0.000000434618    -0.000000546803
      10       -0.000000968559     0.000001540715     0.000001954326
      11        0.000673031005     0.001063723342    -0.000413045008
      12       -0.000007506881    -0.000003610589     0.000011559654
      13        0.000001178698    -0.000003202507     0.000004750381
      14        0.000003452479    -0.000003953214    -0.000016793584

  **** Optimization is complete! (in 7 steps) ****
    Final optimized geometry and variables:
    Molecular point group: c1

    Geometry (in Angstrom), charge = 0, multiplicity = 1:

    O            0.238137822449     1.474075706877     0.230421838766
    C            0.178245359099     0.301293801078     0.172843167664
    C           -1.111529310895    -0.484901505395     0.171850672438
    O            1.300619997464    -0.444247088483     0.194539548479
    C           -2.353685466868     0.388281202232     0.254327435181
    H           -1.138054515446    -1.101503937658    -0.720159296628
    H           -1.056281821867    -1.174634371181     1.007549062817
    H           -2.410106575102     1.064649559839    -0.587992417241
    H           -3.243483836575    -0.229418625356     0.258010332691
    H           -2.347866289258     0.986536328074     1.155138693923
    C            1.648801900340    -1.190119886567    -0.947532275951
    H            0.967449845138    -2.015368746692    -1.113867703110
    H            2.635965956619    -1.583135445840    -0.766669930705
    H            1.676553981312    -0.557710936654    -1.826793564870

  Mulliken Charges: (a.u.)
   Center  Symbol    Alpha    Beta     Spin     Total
       1     O     4.16657  4.16657  0.00000 -0.33314
       2     C     2.79536  2.79536  0.00000  0.40927
       3     C     3.11225  3.11225  0.00000 -0.22450
       4     O     4.15766  4.15766  0.00000 -0.31532
       5     C     3.13864  3.13864  0.00000 -0.27728
       6     H     0.44743  0.44743  0.00000  0.10514
       7     H     0.43771  0.43771  0.00000  0.12459
       8     H     0.44814  0.44814  0.00000  0.10373
       9     H     0.45090  0.45090  0.00000  0.09819
      10     H     0.44542  0.44542  0.00000  0.10915
      11     C     3.04072  3.04072  0.00000 -0.08143
      12     H     0.46252  0.46252  0.00000  0.07496
      13     H     0.43845  0.43845  0.00000  0.12310
      14     H     0.45824  0.45824  0.00000  0.08352

   Total alpha = 24.00000, Total beta = 24.00000, Total charge = -0.00000
