                              Psi4 1.0.54 Driver

  ==> Input File <==

--------------------------------------------------------------------------
set {
	reference rhf
	basis cc-pvtz
}

set_num_threads( 4 )
memory 2 gb

molecule MOL {
0 1

H	 2.141179	 -1.149246	 -2.391218
O	 2.534182	 -0.522216	 -1.810611
C	 1.637132	 -0.028286	 -0.938880
C	 2.086081	 0.910762	 -0.021409
C	 0.315765	 -0.421121	 -0.933414
H	 3.117476	 1.202160	 -0.043055
C	 1.213157	 1.450970	 0.894850
H	 -0.057584	 -1.143310	 -1.629367
C	 -0.532034	 0.141680	 0.000000
H	 1.569058	 2.176041	 1.600083
C	 -0.118716	 1.072257	 0.920041
N	 -1.937041	 -0.281114	 0.000000
H	 -0.807642	 1.482963	 1.625324
O	 -2.159542	 -1.446261	 0.000000
O	 -2.764978	 0.565773	 0.000000

	symmetry c1
}
set optking {
	frozen_dihedral = ("
		11 9 12 14
	")
}

ee,wfn = optimize('scf', return_wfn=True)
oeprop( wfn, 'DIPOLE', 'QUADRUPOLE', 'MULLIKEN_CHARGES')
f=open( 'psi4out.xyz', 'w' )
f.write( "15  " )
f.write( str(ee) + "\n" )
f.write( MOL.save_string_xyz() )
f.close()
--------------------------------------------------------------------------

    Molecular point group: c1
  Charge       = 0
  Multiplicity = 1
  Basis Set: CC-PVTZ
  Basis Set:
  @DF-RHF Final Energy:  -509.21417253295391
    Total Energy =                       -509.2141725329538531
    Molecular point group: c1
  Basis Set: CC-PVTZ
  Basis Set:
  Basis Set: CC-PVTZ
  Basis Set:
  @DF-RHF Final Energy:  -509.20794294619992
    Total Energy =                       -509.2079429462003191
  Basis Set: CC-PVTZ
  Basis Set:
  Basis Set: CC-PVTZ
  Basis Set:
  @DF-RHF Final Energy:  -509.21371614242810
    Total Energy =                       -509.2137161424282112
  Basis Set: CC-PVTZ
  Basis Set:
  Basis Set: CC-PVTZ
  Basis Set:
  @DF-RHF Final Energy:  -509.21461876631946
    Total Energy =                       -509.2146187663198589
  Basis Set: CC-PVTZ
  Basis Set:
  Basis Set: CC-PVTZ
  Basis Set:
  @DF-RHF Final Energy:  -509.21462887449132
    Total Energy =                       -509.2146288744911544
  Basis Set: CC-PVTZ
  Basis Set:
  Basis Set: CC-PVTZ
  Basis Set:
  @DF-RHF Final Energy:  -509.21465459712789
    Total Energy =                       -509.2146545971274918
  Basis Set: CC-PVTZ
  Basis Set:
  Charge       = 0
  Multiplicity = 1
  Basis Set: CC-PVTZ
  Basis Set:

    Orbital Energies (a.u.)
    -----------------------

    Doubly Occupied:

       1A    -20.609829     2A    -20.598044     3A    -20.597680
       4A    -15.850281     5A    -11.329618     6A    -11.311872
       7A    -11.264516     8A    -11.263829     9A    -11.258755
      10A    -11.253433    11A     -1.645852    12A     -1.442639
      13A     -1.428923    14A     -1.204122    15A     -1.096605
      16A     -1.049494    17A     -0.966957    18A     -0.885082
      19A     -0.832866    20A     -0.793991    21A     -0.764465
      22A     -0.740744    23A     -0.725305    24A     -0.712340
      25A     -0.674532    26A     -0.636235    27A     -0.623047
      28A     -0.597501    29A     -0.564243    30A     -0.549054
      31A     -0.531305    32A     -0.494921    33A     -0.490861
      34A     -0.459585    35A     -0.377846    36A     -0.346632

  @DF-RHF Final Energy:  -509.21465486765214

   => Energetics <=

    Nuclear Repulsion Energy =            504.4202350085338367
    One-Electron Energy =               -1695.3237683101692710
    Two-Electron Energy =                 681.6888784339834046
    DFT Exchange-Correlation Energy =       0.0000000000000000
    Empirical Dispersion Energy =           0.0000000000000000
    PCM Polarization Energy =               0.0000000000000000
    EFP Energy =                            0.0000000000000000
    Total Energy =                       -509.2146548676520297
    Molecular point group: c1
  Basis Set: CC-PVTZ
  Basis Set:

  -Total Gradient:
     Atom            X                  Y                   Z
    ------   -----------------  -----------------  -----------------
       1       -0.000002425421     0.000007934203    -0.000006707594
       2        0.000004485221     0.000001338605    -0.000016009934
       3        0.000008635552    -0.000035260355     0.000047045866
       4        0.000000252904     0.000002438131    -0.000025895789
       5        0.000000711956    -0.000003102659    -0.000002685810
       6        0.000000422945    -0.000005342032     0.000006359166
       7       -0.000026771335     0.000039625424    -0.000026761757
       8        0.000002234935     0.000002656406     0.000002347502
       9       -0.001704689020     0.004752180099    -0.002126114080
      10       -0.000002370729    -0.000002007552     0.000001375864
      11        0.001228802522    -0.003357325683     0.002814235651
      12        0.000194115440    -0.001395564455    -0.005778633585
      13        0.000003684029    -0.000000630891    -0.000004571951
      14        0.000295554134    -0.000090326580     0.005110240531
      15       -0.000002643141     0.000083387338     0.000005775922

  **** Optimization is complete! (in 7 steps) ****
    Final optimized geometry and variables:
    Molecular point group: c1

    Geometry (in Angstrom), charge = 0, multiplicity = 1:

    H            2.159258727775    -1.216328421106    -2.202860928479
    O            2.547051437048    -0.579866115584    -1.629133011806
    C            1.653963691863    -0.100066427603    -0.747344734724
    C            2.102211394058     0.836435796669     0.173631782629
    C            0.337178790997    -0.511827127655    -0.726704384100
    H            3.131677476307     1.133597519591     0.148160554974
    C            1.232900632486     1.361426542954     1.101711646729
    H           -0.028872594741    -1.258938038455    -1.402700137081
    C           -0.508302685553     0.060999238923     0.198645941734
    H            1.591922954044     2.075467101658     1.816695764359
    C           -0.099713220995     0.982255668945     1.126371050976
    N           -1.893777997004    -0.408638881700     0.243395629831
    H           -0.791534214316     1.392489134273     1.831711684030
    O           -2.068251707011    -1.581204549561     0.223495057863
    O           -2.742646826941     0.412301757484     0.335515065748

  Mulliken Charges: (a.u.)
   Center  Symbol    Alpha    Beta     Spin     Total
       1     H     0.38447  0.38447  0.00000  0.23107
       2     O     4.16750  4.16750  0.00000 -0.33499
       3     C     2.84379  2.84379  0.00000  0.31243
       4     C     3.10213  3.10213  0.00000 -0.20425
       5     C     3.14048  3.14048  0.00000 -0.28097
       6     H     0.41376  0.41376  0.00000  0.17248
       7     C     3.05300  3.05300  0.00000 -0.10600
       8     H     0.41767  0.41767  0.00000  0.16467
       9     C     2.93405  2.93405  0.00000  0.13190
      10     H     0.41622  0.41622  0.00000  0.16757
      11     C     3.10711  3.10711  0.00000 -0.21422
      12     N     3.27613  3.27613  0.00000  0.44774
      13     H     0.40760  0.40760  0.00000  0.18479
      14     O     4.16852  4.16852  0.00000 -0.33704
      15     O     4.16759  4.16759  0.00000 -0.33517

   Total alpha = 36.00000, Total beta = 36.00000, Total charge = -0.00000

*** Psi4 exiting successfully. Buy a developer a beer!
