  ==> Input File <==

--------------------------------------------------------------------------
set {
	reference rhf
	basis 6-31G*
}

set_num_threads( 4 )
memory 2 gb

molecule MOL {
0 1

H	 3.774650	 -0.411221	 0.652467
O	 2.873665	 -0.616721	 0.882144
C	 2.077727	 -0.067559	 -0.035091
C	 0.624473	 -0.343591	 0.253101
O	 2.506115	 0.555369	 -0.951311
C	 -0.265902	 0.883932	 0.072916
H	 0.324016	 -1.163849	 -0.390541
H	 0.565024	 -0.726111	 1.268924
C	 -1.728698	 0.646073	 0.462102
H	 -0.209144	 1.219470	 -0.958188
H	 0.135059	 1.692851	 0.673903
C	 -2.482460	 -0.343073	 -0.431425
H	 -2.245265	 1.602650	 0.432430
H	 -1.779332	 0.308348	 1.496285
C	 -3.960546	 -0.461025	 -0.060175
H	 -2.395034	 -0.026811	 -1.468912
H	 -2.024850	 -1.327147	 -0.371646
H	 -4.472726	 -1.168004	 -0.705284
H	 -4.465146	 0.496508	 -0.151489
H	 -4.081218	 -0.800940	 0.964585

	symmetry c1
}
set optking {
	frozen_dihedral = ("
		5 3 4 7
	")
}

ee = optimize('scf')
oeprop('DIPOLE', 'QUADRUPOLE', 'MULLIKEN_CHARGES')
f=open( 'psi4out.xyz', 'w' )
f.write( "20  " )
f.write( str(ee) + "\n" )
f.write( MOL.save_string_xyz() )
f.close()
--------------------------------------------------------------------------

    Molecular point group: c1
  Charge       = 0
  Multiplicity = 1
  Basis Set: 6-31G*
  Basis Set:
  @DF-RHF Final Energy:  -383.94704696551105
    Total Energy =                       -383.9470469655112765
    Molecular point group: c1
  Basis Set: 6-31G*
  Basis Set:
  Basis Set: 6-31G*
  Basis Set:
  @DF-RHF Final Energy:  -383.94717313672220
    Total Energy =                       -383.9471731367221992
  Basis Set: 6-31G*
  Basis Set:
  Basis Set: 6-31G*
  Basis Set:
  @DF-RHF Final Energy:  -383.94752781611027
    Total Energy =                       -383.9475278161104370
  Basis Set: 6-31G*
  Basis Set:
  Basis Set: 6-31G*
  Basis Set:
  @DF-RHF Final Energy:  -383.94761442176713
    Total Energy =                       -383.9476144217674118
  Basis Set: 6-31G*
  Basis Set:
  Basis Set: 6-31G*
  Basis Set:
  @DF-RHF Final Energy:  -383.94759665098201
    Total Energy =                       -383.9475966509822342
  Basis Set: 6-31G*
  Basis Set:
  Basis Set: 6-31G*
  Basis Set:
  @DF-RHF Final Energy:  -383.94761692669482
    Total Energy =                       -383.9476169266947636
  Basis Set: 6-31G*
  Basis Set:
  Charge       = 0
  Multiplicity = 1
  Basis Set: 6-31G*
  Basis Set:

    Orbital Energies (a.u.)
    -----------------------

    Doubly Occupied:

       1A    -20.614279     2A    -20.549167     3A    -11.380917
       4A    -11.239365     5A    -11.226418     6A    -11.221635
       7A    -11.220611     8A    -11.212668     9A     -1.474942
      10A     -1.364751    11A     -1.096843    12A     -1.040839
      13A     -0.960832    14A     -0.868072    15A     -0.818842
      16A     -0.779833    17A     -0.700758    18A     -0.689376
      19A     -0.658095    20A     -0.632797    21A     -0.610187
      22A     -0.593923    23A     -0.575955    24A     -0.556704
      25A     -0.538717    26A     -0.515269    27A     -0.495882
      28A     -0.481535    29A     -0.469703    30A     -0.466854
      31A     -0.459352    32A     -0.439895

  @DF-RHF Final Energy:  -383.94761692866842

   => Energetics <=

    Nuclear Repulsion Energy =            375.9893384271508125
    One-Electron Energy =               -1267.9638777965919871
    Two-Electron Energy =                 508.0269224407729780
    DFT Exchange-Correlation Energy =       0.0000000000000000
    Empirical Dispersion Energy =           0.0000000000000000
    PCM Polarization Energy =               0.0000000000000000
    EFP Energy =                            0.0000000000000000
    Total Energy =                       -383.9476169286681397
    Molecular point group: c1
  Basis Set: 6-31G*
  Basis Set:

  -Total Gradient:
     Atom            X                  Y                   Z
    ------   -----------------  -----------------  -----------------
       1        0.000002164103    -0.000000350491     0.000000661346
       2        0.000005674355    -0.000007277408     0.000012482037
       3       -0.000127808986     0.001536935413     0.000734054146
       4        0.000388953420    -0.001284761119     0.000593817870
       5        0.000024284050    -0.000955155787    -0.000619403807
       6        0.000017381184     0.000010635729     0.000016337952
       7       -0.000319861267     0.000694927240    -0.000731185470
       8        0.000002738531    -0.000001675566     0.000005751280
       9       -0.000012242143     0.000007741402    -0.000024900512
      10        0.000001157977     0.000011722849     0.000001357130
      11       -0.000003787451    -0.000004561461    -0.000003286328
      12        0.000011249455    -0.000012932367     0.000016579455
      13       -0.000014292772    -0.000002237808    -0.000000907492
      14        0.000011509299     0.000000712582    -0.000003971635
      15       -0.000001992643     0.000010626215    -0.000002881067
      16        0.000007380425    -0.000001422335     0.000008202529
      17        0.000009515353    -0.000006183519    -0.000000674380
      18        0.000000356850     0.000002988074    -0.000002715138
      19       -0.000003462320     0.000002091181     0.000003111275
      20        0.000001082579    -0.000001822828    -0.000002429191

  **** Optimization is complete! (in 7 steps) ****
    Final optimized geometry and variables:
    Molecular point group: c1

    Geometry (in Angstrom), charge = 0, multiplicity = 1:

    H            3.806147476445    -0.474545533938     0.479341448839
    O            2.923179987261    -0.663211063370     0.782913196781
    C            2.067128627658    -0.083425673641    -0.055253771661
    C            0.627796260884    -0.360789317623     0.298912706783
    O            2.432428750407     0.551420658819    -0.991572291995
    C           -0.265010572416     0.865069327913     0.080398558766
    H            0.313338313305    -1.176135168916    -0.346157933501
    H            0.571937671082    -0.715872543362     1.320569212940
    C           -1.735280155312     0.629427824976     0.441289990674
    H           -0.180951773353     1.182283513452    -0.953101723941
    H            0.115360473858     1.684568744947     0.684284338263
    C           -2.467252407261    -0.371479268681    -0.457112895965
    H           -2.251820309379     1.585030278765     0.387683330823
    H           -1.808329577822     0.304860970748     1.478123158524
    C           -3.954307297965    -0.482253617410    -0.120906011841
    H           -2.353100407799    -0.070245295671    -1.496277496080
    H           -2.013210602970    -1.355234028180    -0.371574983241
    H           -4.451059857536    -1.198049203352    -0.768282508164
    H           -4.455190444279     0.474315600358    -0.238884507543
    H           -4.100996756245    -0.807061042003     0.905359653301

  Mulliken Charges: (a.u.)
   Center  Symbol    Alpha    Beta     Spin     Total
       1     H     0.26833  0.26833  0.00000  0.46333
       2     O     4.34973  4.34973  0.00000 -0.69947
       3     C     2.62204  2.62204  0.00000  0.75591
       4     C     3.21184  3.21184  0.00000 -0.42368
       5     O     4.28040  4.28040  0.00000 -0.56080
       6     C     3.16022  3.16022  0.00000 -0.32044
       7     H     0.39656  0.39656  0.00000  0.20688
       8     H     0.39935  0.39935  0.00000  0.20130
       9     C     3.15437  3.15437  0.00000 -0.30874
      10     H     0.40397  0.40397  0.00000  0.19206
      11     H     0.41471  0.41471  0.00000  0.17058
      12     C     3.15513  3.15513  0.00000 -0.31026
      13     H     0.41790  0.41790  0.00000  0.16420
      14     H     0.42304  0.42304  0.00000  0.15393
      15     C     3.23935  3.23935  0.00000 -0.47870
      16     H     0.42019  0.42019  0.00000  0.15963
      17     H     0.42283  0.42283  0.00000  0.15434
      18     H     0.41808  0.41808  0.00000  0.16384
      19     H     0.42063  0.42063  0.00000  0.15873
      20     H     0.42132  0.42132  0.00000  0.15736

   Total alpha = 32.00000, Total beta = 32.00000, Total charge =  0.00000
