  ==> Input File <==

--------------------------------------------------------------------------
set {
	reference rhf
	basis 6-31G*
}

set_num_threads( 4 )
memory 2 gb

molecule MOL {
0 1

O	 0.749854	 1.307668	 -0.000040
C	 0.576249	 0.131685	 -0.000108
C	 -0.766779	 -0.556801	 -0.000461
O	 1.568443	 -0.749345	 -0.000005
C	 -1.945214	 0.412366	 0.000161
H	 -0.796911	 -1.211249	 -0.867467
H	 -0.796854	 -1.212390	 0.865687
C	 -3.214258	 -0.228005	 0.560535
H	 -2.122327	 0.761263	 -1.011523
H	 -1.686077	 1.290590	 0.581664
H	 -3.512734	 -1.093206	 -0.024949
H	 -4.039517	 0.476463	 0.551825
H	 -3.072016	 -0.556974	 1.586216
C	 2.886820	 -0.232538	 0.000322
H	 3.059106	 0.369571	 -0.880203
H	 3.540187	 -1.091012	 0.000050
H	 3.059019	 0.368956	 0.881266

	symmetry c1
}
set optking {
	frozen_dihedral = ("
		9 5 3 6
	")
}

ee = optimize('scf')
oeprop('DIPOLE', 'QUADRUPOLE', 'MULLIKEN_CHARGES')
f=open( 'psi4out.xyz', 'w' )
f.write( "17  " )
f.write( str(ee) + "\n" )
f.write( MOL.save_string_xyz() )
f.close()
--------------------------------------------------------------------------

    Molecular point group: c1
  Charge       = 0
  Multiplicity = 1
  Basis Set: 6-31G*
  Basis Set:
  @DF-RHF Final Energy:  -344.90512840773306
    Total Energy =                       -344.9051284077329456
    Molecular point group: c1
  Basis Set: 6-31G*
  Basis Set:
  Basis Set: 6-31G*
  Basis Set:
  @DF-RHF Final Energy:  -344.90531109497653
    Total Energy =                       -344.9053110949764687
  Basis Set: 6-31G*
  Basis Set:
  Basis Set: 6-31G*
  Basis Set:
  @DF-RHF Final Energy:  -344.90531709076487
    Total Energy =                       -344.9053170907650383
  Basis Set: 6-31G*
  Basis Set:
  Basis Set: 6-31G*
  Basis Set:
  @DF-RHF Final Energy:  -344.90528176865860
    Total Energy =                       -344.9052817686582557
  Basis Set: 6-31G*
  Basis Set:
  Basis Set: 6-31G*
  Basis Set:
  @DF-RHF Final Energy:  -344.90535095915413
    Total Energy =                       -344.9053509591539637
  Basis Set: 6-31G*
  Basis Set:
  Charge       = 0
  Multiplicity = 1
  Basis Set: 6-31G*
  Basis Set:

    Orbital Energies (a.u.)
    -----------------------

    Doubly Occupied:

       1A    -20.603940     2A    -20.545936     3A    -11.372660
       4A    -11.281092     5A    -11.236227     6A    -11.221536
       7A    -11.214164     8A     -1.469729     9A     -1.363148
      10A     -1.079708    11A     -1.001456    12A     -0.939382
      13A     -0.827182    14A     -0.766994    15A     -0.699858
      16A     -0.683392    17A     -0.672364    18A     -0.636350
      19A     -0.596070    20A     -0.573844    21A     -0.569800
      22A     -0.527909    23A     -0.522978    24A     -0.495308
      25A     -0.486909    26A     -0.478619    27A     -0.456676
      28A     -0.438110

  @DF-RHF Final Energy:  -344.90535107511636

   => Energetics <=

    Nuclear Repulsion Energy =            312.4838669452456656
    One-Electron Energy =               -1089.2557587714109104
    Two-Electron Energy =                 431.8665407510489445
    DFT Exchange-Correlation Energy =       0.0000000000000000
    Empirical Dispersion Energy =           0.0000000000000000
    PCM Polarization Energy =               0.0000000000000000
    EFP Energy =                            0.0000000000000000
    Total Energy =                       -344.9053510751163572
    Molecular point group: c1
  Basis Set: 6-31G*
  Basis Set:

  -Total Gradient:
     Atom            X                  Y                   Z
    ------   -----------------  -----------------  -----------------
       1       -0.000005014158     0.000009614880     0.000000707846
       2        0.000015156244    -0.000037333147    -0.000014282553
       3       -0.002876341382    -0.003475393208     0.002132337079
       4       -0.000005439448     0.000010458749     0.000012109770
       5        0.003116168598     0.003791692060     0.000217409814
       6        0.001905434570     0.002288889715    -0.001781103620
       7        0.000002311355    -0.000009335695    -0.000009929367
       8        0.000006347713     0.000016906305    -0.000015958108
       9       -0.002157177664    -0.002612187922    -0.000528191577
      10       -0.000004192864     0.000013636642    -0.000004695127
      11       -0.000004000465    -0.000005112100    -0.000002920455
      12       -0.000004745453     0.000001989994     0.000005354755
      13        0.000011079241     0.000003648348    -0.000007767269
      14        0.000004598921     0.000003153597    -0.000003627259
      15        0.000000196016     0.000000119960    -0.000000205659
      16       -0.000002865698    -0.000000321939     0.000000322197
      17       -0.000001515530    -0.000000426237     0.000000439534

  **** Optimization is complete! (in 6 steps) ****
    Final optimized geometry and variables:
    Molecular point group: c1

    Geometry (in Angstrom), charge = 0, multiplicity = 1:

    O            0.751282458020     1.297381100758    -0.081224366857
    C            0.569608296188     0.122692185953    -0.071865524901
    C           -0.776450030578    -0.564108374086    -0.045641241440
    O            1.557009961035    -0.763955439327    -0.086083749842
    C           -1.957233971599     0.407846474718    -0.058556526537
    H           -0.797975972535    -1.219162232468    -0.911744852763
    H           -0.793748352724    -1.206769656033     0.829674537048
    C           -3.242895701904    -0.249030899030     0.446532807594
    H           -2.121931162019     0.754495553730    -1.073916529319
    H           -1.722480226075     1.277653382214     0.541660107830
    H           -3.502235358494    -1.121951968314    -0.146346173384
    H           -4.077253516801     0.442979405647     0.395903285565
    H           -3.141643190614    -0.569995479122     1.479492233956
    C            2.878084877684    -0.254752809867    -0.111415272833
    H            3.038354117064     0.341946503247    -0.997842971472
    H            3.526519946755    -1.116975369029    -0.118716312414
    H            3.069136614211     0.350102657809     0.763306289960

  Mulliken Charges: (a.u.)
   Center  Symbol    Alpha    Beta     Spin     Total
       1     O     4.28540  4.28540  0.00000 -0.57080
       2     C     2.60937  2.60937  0.00000  0.78125
       3     C     3.20600  3.20600  0.00000 -0.41201
       4     O     4.30639  4.30639  0.00000 -0.61277
       5     C     3.15405  3.15405  0.00000 -0.30810
       6     H     0.39970  0.39970  0.00000  0.20060
       7     H     0.40025  0.40025  0.00000  0.19949
       8     C     3.24317  3.24317  0.00000 -0.48634
       9     H     0.41543  0.41543  0.00000  0.16914
      10     H     0.40283  0.40283  0.00000  0.19433
      11     H     0.42182  0.42182  0.00000  0.15636
      12     H     0.41581  0.41581  0.00000  0.16839
      13     H     0.42097  0.42097  0.00000  0.15807
      14     C     3.09230  3.09230  0.00000 -0.18461
      15     H     0.40901  0.40901  0.00000  0.18198
      16     H     0.40843  0.40843  0.00000  0.18315
      17     H     0.40906  0.40906  0.00000  0.18187

   Total alpha = 28.00000, Total beta = 28.00000, Total charge = -0.00000
