  ==> Input File <==

--------------------------------------------------------------------------
set {
	reference rhf
	basis cc-pvtz
}

set_num_threads( 4 )
memory 2 gb

molecule MOL {
0 1

H	 3.273419	 0.176595	 -0.102789
N	 2.433987	 -0.362316	 -0.080024
C	 1.263552	 0.494993	 0.021953
H	 2.497638	 -0.973615	 0.707122
C	 -0.016533	 -0.325589	 -0.026925
H	 1.280915	 1.180773	 -0.818522
H	 1.263064	 1.106893	 0.925038
C	 -1.280353	 0.525521	 0.047747
H	 -0.016686	 -0.912532	 -0.939714
H	 -0.014099	 -1.037598	 0.796369
C	 -1.565767	 1.284492	 -1.243955
H	 -1.188114	 1.233784	 0.866783
H	 -2.130582	 -0.107380	 0.287372
H	 -0.748035	 1.952094	 -1.493656
H	 -2.466237	 1.881766	 -1.158122
H	 -1.699576	 0.602354	 -2.077000

	symmetry c1
}
set optking {
	frozen_dihedral = ("
		12 8 5 9
	")
}

ee = optimize('scf')
oeprop('DIPOLE', 'QUADRUPOLE', 'MULLIKEN_CHARGES')
f=open( 'psi4out.xyz', 'w' )
f.write( "16  " )
f.write( str(ee) + "\n" )
f.write( MOL.save_string_xyz() )
f.close()
--------------------------------------------------------------------------

    Molecular point group: c1
  Charge       = 0
  Multiplicity = 1
  Basis Set: CC-PVTZ
  Basis Set:
  @DF-RHF Final Energy:  -212.39820606930169
    Total Energy =                       -212.3982060693017502
    Molecular point group: c1
  Basis Set: CC-PVTZ
  Basis Set:
  Basis Set: CC-PVTZ
  Basis Set:
  @DF-RHF Final Energy:  -212.39838702183877
    Total Energy =                       -212.3983870218388006
  Basis Set: CC-PVTZ
  Basis Set:
  Basis Set: CC-PVTZ
  Basis Set:
  @DF-RHF Final Energy:  -212.39844407810804
    Total Energy =                       -212.3984440781078433
  Basis Set: CC-PVTZ
  Basis Set:
  Basis Set: CC-PVTZ
  Basis Set:
  @DF-RHF Final Energy:  -212.39844532328812
    Total Energy =                       -212.3984453232880583
  Basis Set: CC-PVTZ
  Basis Set:
  Charge       = 0
  Multiplicity = 1
  Basis Set: CC-PVTZ
  Basis Set:

    Orbital Energies (a.u.)
    -----------------------

    Doubly Occupied:

       1A    -15.526485     2A    -11.237728     3A    -11.213180
       4A    -11.208154     5A    -11.205429     6A     -1.178309
       7A     -1.059551     8A     -0.956205     9A     -0.856256
      10A     -0.782463    11A     -0.665198    12A     -0.629054
      13A     -0.611441    14A     -0.594823    15A     -0.548322
      16A     -0.521179    17A     -0.516569    18A     -0.468261
      19A     -0.466459    20A     -0.454954    21A     -0.384090

  @DF-RHF Final Energy:  -212.39844542366501

   => Energetics <=

    Nuclear Repulsion Energy =            188.6787940812945976
    One-Electron Energy =                -659.9862585911580481
    Two-Electron Energy =                 258.9090190861983842
    DFT Exchange-Correlation Energy =       0.0000000000000000
    Empirical Dispersion Energy =           0.0000000000000000
    PCM Polarization Energy =               0.0000000000000000
    EFP Energy =                            0.0000000000000000
    Total Energy =                       -212.3984454236650663
    Molecular point group: c1
  Basis Set: CC-PVTZ
  Basis Set:

  -Total Gradient:
     Atom            X                  Y                   Z
    ------   -----------------  -----------------  -----------------
       1        0.000004107550    -0.000002728031     0.000001097749
       2        0.000005946640     0.000011435685    -0.000000432684
       3       -0.000010816197    -0.000021046445     0.000002061610
       4       -0.000002856039     0.000003041322    -0.000001577391
       5       -0.000652032686    -0.001041413913     0.000609654881
       6       -0.000000175714     0.000001039496    -0.000001983132
       7        0.000004940575     0.000002692247     0.000000465284
       8       -0.000529887440    -0.000867531294     0.000870713683
       9        0.000633519310     0.001011440932    -0.000644708474
      10        0.000004737066    -0.000002289049     0.000000674502
      11       -0.000006632297    -0.000002808723     0.000007929888
      12        0.000552702950     0.000899279943    -0.000839267560
      13       -0.000003726179     0.000002503245    -0.000000070715
      14        0.000003482823    -0.000002456251     0.000000409171
      15       -0.000004737118     0.000006446061    -0.000005638550
      16        0.000001426752     0.000002394772     0.000000671737

  **** Optimization is complete! (in 5 steps) ****
    Final optimized geometry and variables:
    Molecular point group: c1

    Geometry (in Angstrom), charge = 0, multiplicity = 1:

    H            3.084277718094    -0.185647125987     0.172324336929
    N            2.235344191298    -0.709610112025     0.190742088771
    C            1.078539915820     0.167899013212     0.273923280831
    H            2.280426921143    -1.316552880833     0.982524989967
    C           -0.212037647777    -0.640344498993     0.221222423588
    H            1.123358743810     0.848185801257    -0.568193138400
    H            1.076152287112     0.782969254042     1.175095749051
    C           -1.484030840975     0.206930853942     0.293211308743
    H           -0.207316149599    -1.227930916801    -0.691118890685
    H           -0.207925444588    -1.346121196552     1.048095419970
    C           -1.802814897307     0.966348989210    -0.993336147550
    H           -1.399616287025     0.917337685068     1.111444598450
    H           -2.322469937578    -0.438607652178     0.532719287787
    H           -1.022379005441     1.672840412240    -1.250702800410
    H           -2.726643340771     1.524788220462    -0.893248627179
    H           -1.917905613505     0.283595220840    -1.828526880894

  Mulliken Charges: (a.u.)
   Center  Symbol    Alpha    Beta     Spin     Total
       1     H     0.43008  0.43008  0.00000  0.13984
       2     N     3.68923  3.68923  0.00000 -0.37846
       3     C     3.02567  3.02567  0.00000 -0.05135
       4     H     0.43097  0.43097  0.00000  0.13807
       5     C     3.08674  3.08674  0.00000 -0.17348
       6     H     0.45627  0.45627  0.00000  0.08746
       7     H     0.46870  0.46870  0.00000  0.06260
       8     C     3.09473  3.09473  0.00000 -0.18947
       9     H     0.45060  0.45060  0.00000  0.09881
      10     H     0.45505  0.45505  0.00000  0.08990
      11     C     3.14925  3.14925  0.00000 -0.29849
      12     H     0.45712  0.45712  0.00000  0.08576
      13     H     0.44821  0.44821  0.00000  0.10357
      14     H     0.45546  0.45546  0.00000  0.08909
      15     H     0.44790  0.44790  0.00000  0.10421
      16     H     0.45402  0.45402  0.00000  0.09195

   Total alpha = 21.00000, Total beta = 21.00000, Total charge =  0.00000
