  ==> Input File <==

--------------------------------------------------------------------------
set {
	reference rhf
	basis cc-pvtz
}

set_num_threads( 4 )
memory 2 gb

molecule MOL {
0 1

O	 1.026833	 -0.195625	 -0.575843
C	 0.029490	 0.077183	 0.000078
C	 -1.232113	 -0.748027	 0.000015
O	 -0.108609	 1.167971	 0.735158
C	 -2.501422	 0.088592	 -0.000052
H	 -1.188777	 -1.400384	 -0.865133
H	 -1.188857	 -1.400312	 0.865225
H	 -2.548170	 0.725504	 -0.873205
H	 -3.371613	 -0.556398	 -0.000040
H	 -2.548215	 0.725571	 0.873047
C	 1.003174	 2.036207	 0.823164
H	 1.850788	 1.527335	 1.257714
H	 0.694403	 2.852245	 1.456069
H	 1.276819	 2.405240	 -0.154169

	symmetry c1
}
set optking {
	frozen_dihedral = ("
		4 2 3 6
	")
}

ee = optimize('scf')
oeprop('DIPOLE', 'QUADRUPOLE', 'MULLIKEN_CHARGES')
f=open( 'psi4out.xyz', 'w' )
f.write( "14  " )
f.write( str(ee) + "\n" )
f.write( MOL.save_string_xyz() )
f.close()
--------------------------------------------------------------------------

    Molecular point group: c1
  Charge       = 0
  Multiplicity = 1
  Basis Set: CC-PVTZ
  Basis Set:
  @DF-RHF Final Energy:  -305.98507499502523
    Total Energy =                       -305.9850749950248883
    Molecular point group: c1
  Basis Set: CC-PVTZ
  Basis Set:
  Basis Set: CC-PVTZ
  Basis Set:
  @DF-RHF Final Energy:  -305.98531733549407
    Total Energy =                       -305.9853173354939599
  Basis Set: CC-PVTZ
  Basis Set:
  Basis Set: CC-PVTZ
  Basis Set:
  @DF-RHF Final Energy:  -305.98461275061470
    Total Energy =                       -305.9846127506148719
  Basis Set: CC-PVTZ
  Basis Set:
  Basis Set: CC-PVTZ
  Basis Set:
  @DF-RHF Final Energy:  -305.98566264052778
    Total Energy =                       -305.9856626405277211
  Basis Set: CC-PVTZ
  Basis Set:
  Basis Set: CC-PVTZ
  Basis Set:
  @DF-RHF Final Energy:  -305.98567533197320
    Total Energy =                       -305.9856753319730842
  Basis Set: CC-PVTZ
  Basis Set:
  Charge       = 0
  Multiplicity = 1
  Basis Set: CC-PVTZ
  Basis Set:

    Orbital Energies (a.u.)
    -----------------------

    Doubly Occupied:

       1A    -20.598930     2A    -20.532304     3A    -11.365053
       4A    -11.279760     5A    -11.237171     6A    -11.221213
       7A     -1.473641     8A     -1.365404     9A     -1.067747
      10A     -0.976131    11A     -0.887701    12A     -0.776986
      13A     -0.697680    14A     -0.684468    15A     -0.676496
      16A     -0.622142    17A     -0.587749    18A     -0.565504
      19A     -0.547474    20A     -0.523015    21A     -0.516172
      22A     -0.500036    23A     -0.460150    24A     -0.437317

  @DF-RHF Final Energy:  -305.98567581049781

   => Energetics <=

    Nuclear Repulsion Energy =            248.8235904678459463
    One-Electron Energy =                -910.4180450387816563
    Two-Electron Energy =                 355.6087787604382129
    DFT Exchange-Correlation Energy =       0.0000000000000000
    Empirical Dispersion Energy =           0.0000000000000000
    PCM Polarization Energy =               0.0000000000000000
    EFP Energy =                            0.0000000000000000
    Total Energy =                       -305.9856758104974688
    Molecular point group: c1
  Basis Set: CC-PVTZ
  Basis Set:

  -Total Gradient:
     Atom            X                  Y                   Z
    ------   -----------------  -----------------  -----------------
       1       -0.000056659585     0.000036841484     0.000020953909
       2        0.000297291848    -0.000441436513     0.000524099063
       3        0.000366706915    -0.000538806238     0.000351584352
       4       -0.000216275019     0.000428324476    -0.000472363816
       5       -0.000014033089     0.000009062487    -0.000014163618
       6       -0.000365448547     0.000541987884    -0.000406993061
       7       -0.000010104885     0.000010747311    -0.000004699622
       8        0.000002364486     0.000002822199    -0.000004584872
       9       -0.000006336737    -0.000008466137     0.000001099028
      10        0.000016912762    -0.000010259141    -0.000003313392
      11       -0.000028310936    -0.000056524558     0.000015936122
      12        0.000010980789     0.000014460014     0.000001391971
      13       -0.000000145216     0.000004732126    -0.000002132038
      14        0.000003057217     0.000006514606    -0.000006814023

  **** Optimization is complete! (in 6 steps) ****
    Final optimized geometry and variables:
    Molecular point group: c1

    Geometry (in Angstrom), charge = 0, multiplicity = 1:

    O            1.300206901340    -0.636212143811    -0.731689210415
    C            0.303372564755    -0.332564548296    -0.169119262082
    C           -0.954236443144    -1.167193920802    -0.173519575466
    O            0.189051757904     0.767516363169     0.553878423191
    C           -2.261796491329    -0.381412143387    -0.172049519425
    H           -0.888773825214    -1.812692846443    -1.037304852968
    H           -0.901590506432    -1.803024434238     0.705143510412
    H           -2.325366836292     0.275153532145    -1.031741377311
    H           -3.100068851235    -1.065772877742    -0.213857092880
    H           -2.359937748679     0.222931652774     0.718333359496
    C            1.327523531427     1.599909191863     0.651612561633
    H            2.150567992155     1.067572402306     1.104617318866
    H            1.035202646623     2.431989812119     1.271342574460
    H            1.628304252230     1.948881063424    -0.324880260257

  Mulliken Charges: (a.u.)
   Center  Symbol    Alpha    Beta     Spin     Total
       1     O     4.20043  4.20043  0.00000 -0.40085
       2     C     2.80500  2.80500  0.00000  0.38999
       3     C     3.08730  3.08730  0.00000 -0.17459
       4     O     4.14640  4.14640  0.00000 -0.29280
       5     C     3.14441  3.14441  0.00000 -0.28882
       6     H     0.43530  0.43530  0.00000  0.12940
       7     H     0.44646  0.44646  0.00000  0.10708
       8     H     0.45146  0.45146  0.00000  0.09708
       9     H     0.44891  0.44891  0.00000  0.10218
      10     H     0.44648  0.44648  0.00000  0.10703
      11     C     3.03457  3.03457  0.00000 -0.06913
      12     H     0.45352  0.45352  0.00000  0.09296
      13     H     0.44614  0.44614  0.00000  0.10771
      14     H     0.45361  0.45361  0.00000  0.09277

   Total alpha = 24.00000, Total beta = 24.00000, Total charge =  0.00000
