  ==> Input File <==

--------------------------------------------------------------------------
set {
	reference rhf
	basis cc-pvtz
}

set_num_threads( 4 )
memory 2 gb

molecule MOL {
0 1

H	 3.460096	 0.985663	 -1.163571
N	 2.690330	 0.350780	 -1.165026
C	 1.860978	 0.530248	 0.016256
H	 3.070031	 -0.572344	 -1.196919
C	 0.644130	 -0.381765	 -0.031064
H	 1.532582	 1.564003	 0.036579
H	 2.403907	 0.356118	 0.946236
C	 -0.678115	 0.376691	 0.025731
H	 0.693998	 -0.977147	 -0.936845
H	 0.693309	 -1.082142	 0.800523
C	 -1.900706	 -0.535531	 -0.022488
H	 -0.725296	 1.079516	 -0.802982
H	 -0.715474	 0.974884	 0.933278
C	 -3.220513	 0.226854	 0.028039
H	 -1.865036	 -1.134397	 -0.928236
H	 -1.857948	 -1.236381	 0.806820
H	 -3.309098	 0.911849	 -0.808725
H	 -4.066838	 -0.449485	 -0.008086
H	 -3.301685	 0.809374	 0.939860

	symmetry c1
}
set optking {
	frozen_dihedral = ("
		6 3 5 9
	")
}

ee = optimize('scf')
oeprop('DIPOLE', 'QUADRUPOLE', 'MULLIKEN_CHARGES')
f=open( 'psi4out.xyz', 'w' )
f.write( "19  " )
f.write( str(ee) + "\n" )
f.write( MOL.save_string_xyz() )
f.close()
--------------------------------------------------------------------------

    Molecular point group: c1
  Charge       = 0
  Multiplicity = 1
  Basis Set: CC-PVTZ
  Basis Set:
  @DF-RHF Final Energy:  -251.44205916058408
    Total Energy =                       -251.4420591605840514
    Molecular point group: c1
  Basis Set: CC-PVTZ
  Basis Set:
  Basis Set: CC-PVTZ
  Basis Set:
  @DF-RHF Final Energy:  -251.44233480128605
    Total Energy =                       -251.4423348012861652
  Basis Set: CC-PVTZ
  Basis Set:
  Basis Set: CC-PVTZ
  Basis Set:
  @DF-RHF Final Energy:  -251.44241798795449
    Total Energy =                       -251.4424179879543431
  Basis Set: CC-PVTZ
  Basis Set:
  Charge       = 0
  Multiplicity = 1
  Basis Set: CC-PVTZ
  Basis Set:

    Orbital Energies (a.u.)
    -----------------------

    Doubly Occupied:

       1A    -15.527030     2A    -11.238006     3A    -11.210216
       4A    -11.208778     5A    -11.207455     6A    -11.204181
       7A     -1.177234     8A     -1.072230     9A     -0.996875
      10A     -0.899943    11A     -0.814201    12A     -0.788855
      13A     -0.657656    14A     -0.649797    15A     -0.614246
      16A     -0.591713    17A     -0.552597    18A     -0.550419
      19A     -0.539774    20A     -0.488959    21A     -0.484091
      22A     -0.461994    23A     -0.459089    24A     -0.453340
      25A     -0.381535

  @DF-RHF Final Energy:  -251.44241876960604

   => Energetics <=

    Nuclear Repulsion Energy =            246.4769980145807722
    One-Electron Energy =                -827.3783972627444427
    Two-Electron Energy =                 329.4589804785575211
    DFT Exchange-Correlation Energy =       0.0000000000000000
    Empirical Dispersion Energy =           0.0000000000000000
    PCM Polarization Energy =               0.0000000000000000
    EFP Energy =                            0.0000000000000000
    Total Energy =                       -251.4424187696061495
    Molecular point group: c1
  Basis Set: CC-PVTZ
  Basis Set:

  -Total Gradient:
     Atom            X                  Y                   Z
    ------   -----------------  -----------------  -----------------
       1        0.000012150122     0.000005760211    -0.000017470756
       2       -0.000011384413     0.000049017204     0.000070104702
       3        0.000085530955    -0.000138372386    -0.000465506479
       4       -0.000030732301     0.000018595397     0.000027268958
       5       -0.000248723657     0.000327804387    -0.000099334989
       6        0.000012341341    -0.000005859017     0.000289192938
       7        0.000006927243     0.000014258136     0.000026568144
       8        0.000037253955    -0.000034260853     0.000029932917
       9        0.000170426343    -0.000238907655     0.000137389773
      10        0.000000231330    -0.000002565553    -0.000002332536
      11       -0.000008317870     0.000008771076    -0.000003247411
      12        0.000008083806     0.000000038557     0.000009395467
      13       -0.000006233291     0.000007840802     0.000007992869
      14       -0.000009011136    -0.000013389448    -0.000005143403
      15       -0.000002370701    -0.000004445445     0.000001370254
      16       -0.000003458046     0.000004953820    -0.000005125098
      17        0.000000032844    -0.000001972174     0.000003043502
      18       -0.000016079479     0.000005975424    -0.000000477445
      19        0.000003332946    -0.000003242482    -0.000003621408

  **** Optimization is complete! (in 4 steps) ****
    Final optimized geometry and variables:
    Molecular point group: c1

    Geometry (in Angstrom), charge = 0, multiplicity = 1:

    H            3.542021074334     0.889492006153    -0.960024803726
    N            2.765222672487     0.262464170280    -0.972136076968
    C            1.943039135344     0.429861385698     0.218835880735
    H            3.137829372806    -0.663181051918    -1.017911801141
    C            0.707153930532    -0.485578234709     0.180273149260
    H            1.627059651374     1.465997054935     0.249068509103
    H            2.500233315303     0.253431407891     1.137928640055
    C           -0.617181138192     0.271977395065     0.227784089067
    H            0.744921283051    -1.074778698608    -0.729631982517
    H            0.742424782568    -1.190245436144     1.005728616588
    C           -1.839585604872    -0.639343782120     0.181421731045
    H           -0.654729152156     0.968584142994    -0.605898728265
    H           -0.654796072309     0.875458105598     1.132262253414
    C           -3.159077020645     0.124279253607     0.224416969318
    H           -1.801879479256    -1.242341613968    -0.721686987903
    H           -1.800044476456    -1.336436099169     1.014273835590
    H           -3.244118835877     0.805403221567    -0.615750487351
    H           -4.006071419029    -0.551376154580     0.188941451317
    H           -3.242327631075     0.711031829634     1.133339796632

  Mulliken Charges: (a.u.)
   Center  Symbol    Alpha    Beta     Spin     Total
       1     H     0.42995  0.42995  0.00000  0.14010
       2     N     3.68762  3.68762  0.00000 -0.37523
       3     C     3.03377  3.03377  0.00000 -0.06754
       4     H     0.43084  0.43084  0.00000  0.13833
       5     C     3.08609  3.08609  0.00000 -0.17219
       6     H     0.45879  0.45879  0.00000  0.08243
       7     H     0.46366  0.46366  0.00000  0.07269
       8     C     3.08996  3.08996  0.00000 -0.17991
       9     H     0.45441  0.45441  0.00000  0.09117
      10     H     0.45370  0.45370  0.00000  0.09261
      11     C     3.08523  3.08523  0.00000 -0.17045
      12     H     0.45093  0.45093  0.00000  0.09813
      13     H     0.45581  0.45581  0.00000  0.08838
      14     C     3.15003  3.15003  0.00000 -0.30006
      15     H     0.45391  0.45391  0.00000  0.09217
      16     H     0.45575  0.45575  0.00000  0.08851
      17     H     0.45475  0.45475  0.00000  0.09050
      18     H     0.44898  0.44898  0.00000  0.10203
      19     H     0.45583  0.45583  0.00000  0.08834

   Total alpha = 25.00000, Total beta = 25.00000, Total charge = -0.00000
