  ==> Input File <==

--------------------------------------------------------------------------
set {
	reference rhf
	basis 6-31G*
}

set_num_threads( 1 )
memory 2 gb

molecule MOL {
0 1

O	 1.214711	 1.306902	 -0.000018
C	 1.122059	 0.121804	 -0.000188
C	 -0.170150	 -0.657997	 -0.000612
O	 2.172624	 -0.688929	 0.000216
C	 -1.412532	 0.227344	 -0.000452
H	 -0.153702	 -1.313099	 -0.867402
H	 -0.153924	 -1.313811	 0.865644
C	 -1.227688	 1.488388	 0.845105
H	 -2.258975	 -0.342980	 0.369371
H	 -1.657150	 0.501746	 -1.021906
C	 -2.467331	 2.381847	 0.849767
H	 -0.981988	 1.207773	 1.867339
H	 -0.376786	 2.054736	 0.471894
H	 -3.328392	 1.854574	 1.250031
H	 -2.310063	 3.268207	 1.456321
H	 -2.718491	 2.708084	 -0.155285
C	 3.452279	 -0.082609	 0.000533
H	 3.583069	 0.529321	 -0.880332
H	 4.163299	 -0.894027	 0.001117
H	 3.582335	 0.529955	 0.881077

	symmetry c1
}
set optking {
	frozen_dihedral = ("
		9 5 8 12,
		1 2 3 6,
		1 2 4 17
	")
}

ee = energy('scf')
oeprop('DIPOLE', 'QUADRUPOLE', 'MULLIKEN_CHARGES')
f=open( 'psi4out.xyz', 'w' )
f.write( "20  " )
f.write( str(ee) + "\n" )
f.write( MOL.save_string_xyz() )
f.close()
--------------------------------------------------------------------------

    Molecular point group: c1

    Geometry (in Angstrom), charge = 0, multiplicity = 1:

       Center              X                  Y                   Z               Mass
    ------------   -----------------  -----------------  -----------------  -----------------
           O          0.843353352299     0.785821101340    -0.211968749116    15.994914619560
           C          0.750701352299    -0.399276898660    -0.212138749116    12.000000000000
           C         -0.541507647701    -1.179077898660    -0.212562749116    12.000000000000
           O          1.801266352299    -1.210009898660    -0.211734749116    15.994914619560
           C         -1.783889647701    -0.293736898660    -0.212402749116    12.000000000000
           H         -0.525059647701    -1.834179898660    -1.079352749116     1.007825032070
           H         -0.525281647701    -1.834891898660     0.653693250884     1.007825032070
           C         -1.599045647701     0.967307101340     0.633154250884    12.000000000000
           H         -2.630332647701    -0.864060898660     0.157420250884     1.007825032070
           H         -2.028507647701    -0.019334898660    -1.233856749116     1.007825032070
           C         -2.838688647701     1.860766101340     0.637816250884    12.000000000000
           H         -1.353345647701     0.686692101340     1.655388250884     1.007825032070
           H         -0.748143647701     1.533655101340     0.259943250884     1.007825032070
           H         -3.699749647701     1.333493101340     1.038080250884     1.007825032070
           H         -2.681420647701     2.747126101340     1.244370250884     1.007825032070
           H         -3.089848647701     2.187003101340    -0.367235749116     1.007825032070
           C          3.080921352299    -0.603689898660    -0.211417749116    12.000000000000
           H          3.211711352299     0.008240101340    -1.092282749116     1.007825032070
           H          3.791941352299    -1.415107898660    -0.210833749116     1.007825032070
           H          3.210977352299     0.008874101340     0.669126250884     1.007825032070

  Charge       = 0
  Multiplicity = 1
  Basis Set: 6-31G*
  Basis Set:

    Orbital Energies (a.u.)
    -----------------------

    Doubly Occupied:

       1A    -20.607211     2A    -20.547482     3A    -11.377518
       4A    -11.283338     5A    -11.236797     6A    -11.217625
       7A    -11.196279     8A    -11.191669     9A     -1.474324
      10A     -1.370213    11A     -1.083997    12A     -1.017746
      13A     -0.966943    14A     -0.880125    15A     -0.799695
      16A     -0.774119    17A     -0.699529    18A     -0.685460
      19A     -0.675499    20A     -0.635131    21A     -0.604907
      22A     -0.580110    23A     -0.571653    24A     -0.541918
      25A     -0.536943    26A     -0.519425    27A     -0.504002
      28A     -0.488306    29A     -0.465353    30A     -0.458071
      31A     -0.454662    32A     -0.406896

  @DF-RHF Final Energy:  -383.92180657917811

   => Energetics <=

    Nuclear Repulsion Energy =            395.4821436317072312
    One-Electron Energy =               -1307.1018289295157047
    Two-Electron Energy =                 527.6978787186311592
    DFT Exchange-Correlation Energy =       0.0000000000000000
    Empirical Dispersion Energy =           0.0000000000000000
    PCM Polarization Energy =               0.0000000000000000
    EFP Energy =                            0.0000000000000000
    Total Energy =                       -383.9218065791773142

  Mulliken Charges: (a.u.)
   Center  Symbol    Alpha    Beta     Spin     Total
       1     O     4.28888  4.28888  0.00000 -0.57777
       2     C     2.60067  2.60067  0.00000  0.79866
       3     C     3.21122  3.21122  0.00000 -0.42243
       4     O     4.30730  4.30730  0.00000 -0.61460
       5     C     3.15355  3.15355  0.00000 -0.30711
       6     H     0.39728  0.39728  0.00000  0.20545
       7     H     0.39871  0.39871  0.00000  0.20257
       8     C     3.17211  3.17211  0.00000 -0.34422
       9     H     0.41792  0.41792  0.00000  0.16415
      10     H     0.41802  0.41802  0.00000  0.16396
      11     C     3.23746  3.23746  0.00000 -0.47493
      12     H     0.43159  0.43159  0.00000  0.13681
      13     H     0.37310  0.37310  0.00000  0.25379
      14     H     0.42870  0.42870  0.00000  0.14261
      15     H     0.42067  0.42067  0.00000  0.15867
      16     H     0.42453  0.42453  0.00000  0.15095
      17     C     3.09285  3.09285  0.00000 -0.18571
      18     H     0.40884  0.40884  0.00000  0.18232
      19     H     0.40774  0.40774  0.00000  0.18452
      20     H     0.40885  0.40885  0.00000  0.18230

   Total alpha = 32.00000, Total beta = 32.00000, Total charge =  0.00000
