  ==> Input File <==

--------------------------------------------------------------------------
set {
	reference rhf
	basis 6-31G*
}

set_num_threads( 4 )
memory 2 gb

molecule MOL {
0 1

H	 2.278265	 -2.684377	 -0.116690
O	 3.035921	 -2.419834	 -0.617735
C	 2.725222	 -2.431525	 -1.987911
C	 1.813570	 -1.283631	 -2.407385
H	 3.672825	 -2.353468	 -2.505240
H	 2.280837	 -3.385395	 -2.269750
C	 0.424223	 -1.326179	 -1.766470
H	 2.302481	 -0.345770	 -2.156888
H	 1.712831	 -1.309344	 -3.491155
C	 -0.484533	 -0.192067	 -2.248936
H	 0.527551	 -1.273718	 -0.686222
H	 -0.048657	 -2.282537	 -1.990311
C	 -1.916244	 -0.237445	 -1.702597
H	 -0.031430	 0.763695	 -1.991911
H	 -0.529605	 -0.223170	 -3.335536
C	 -2.037799	 -0.007733	 -0.193645
H	 -2.502495	 0.521156	 -2.217038
H	 -2.368803	 -1.194017	 -1.959494
C	 -3.489788	 0.042957	 0.286558
H	 -1.540943	 0.925248	 0.068637
H	 -1.516243	 -0.793334	 0.347755
C	 -4.216917	 1.317354	 -0.141063
H	 -4.025645	 -0.823308	 -0.095450
H	 -3.513059	 -0.038752	 1.371301
H	 -4.239342	 1.411634	 -1.223113
H	 -5.243387	 1.322503	 0.212445
H	 -3.726170	 2.201406	 0.256408

	symmetry c1
}
set optking {
	frozen_dihedral = ("
		20 16 19 22
	")
}

ee = optimize('scf')
oeprop('DIPOLE', 'QUADRUPOLE', 'MULLIKEN_CHARGES')
f=open( 'psi4out.xyz', 'w' )
f.write( "27  " )
f.write( str(ee) + "\n" )
f.write( MOL.save_string_xyz() )
f.close()
--------------------------------------------------------------------------

    Molecular point group: c1
  Charge       = 0
  Multiplicity = 1
  Basis Set: 6-31G*
  Basis Set:
  @DF-RHF Final Energy:  -388.27954597606879
    Total Energy =                       -388.2795459760685617
    Molecular point group: c1
  Basis Set: 6-31G*
  Basis Set:
  Basis Set: 6-31G*
  Basis Set:
  @DF-RHF Final Energy:  -388.27976878856367
    Total Energy =                       -388.2797687885641835
  Basis Set: 6-31G*
  Basis Set:
  Basis Set: 6-31G*
  Basis Set:
  @DF-RHF Final Energy:  -388.27983772020661
    Total Energy =                       -388.2798377202066149
  Basis Set: 6-31G*
  Basis Set:
  Basis Set: 6-31G*
  Basis Set:
  @DF-RHF Final Energy:  -388.27989628873786
    Total Energy =                       -388.2798962887380867
  Basis Set: 6-31G*
  Basis Set:
  Basis Set: 6-31G*
  Basis Set:
  @DF-RHF Final Energy:  -388.27990055828320
    Total Energy =                       -388.2799005582832024
  Basis Set: 6-31G*
  Basis Set:
  Charge       = 0
  Multiplicity = 1
  Basis Set: 6-31G*
  Basis Set:

    Orbital Energies (a.u.)
    -----------------------

    Doubly Occupied:

       1A    -20.552290     2A    -11.267029     3A    -11.219725
       4A    -11.217298     5A    -11.216541     6A    -11.215356
       7A    -11.215184     8A    -11.214536     9A    -11.209048
      10A     -1.359049    11A     -1.094938    12A     -1.060840
      13A     -1.009761    14A     -0.946811    15A     -0.892735
      16A     -0.826618    17A     -0.798527    18A     -0.772053
      19A     -0.693688    20A     -0.646289    21A     -0.632101
      22A     -0.618084    23A     -0.608301    24A     -0.588405
      25A     -0.579145    26A     -0.553677    27A     -0.539070
      28A     -0.528337    29A     -0.505681    30A     -0.495615
      31A     -0.486523    32A     -0.474034    33A     -0.469445
      34A     -0.461062    35A     -0.448229    36A     -0.440579
      37A     -0.423107

  @DF-RHF Final Energy:  -388.27990088762061

   => Energetics <=

    Nuclear Repulsion Energy =            461.2765813968612179
    One-Electron Energy =               -1440.5535434014266229
    Two-Electron Energy =                 590.9970611169446784
    DFT Exchange-Correlation Energy =       0.0000000000000000
    Empirical Dispersion Energy =           0.0000000000000000
    PCM Polarization Energy =               0.0000000000000000
    EFP Energy =                            0.0000000000000000
    Total Energy =                       -388.2799008876206699
    Molecular point group: c1
  Basis Set: 6-31G*
  Basis Set:

  -Total Gradient:
     Atom            X                  Y                   Z
    ------   -----------------  -----------------  -----------------
       1       -0.000020274141     0.000007234453     0.000002402309
       2       -0.000011868682    -0.000000277159     0.000001235440
       3        0.000027694707     0.000037397501     0.000009526965
       4        0.000005804462    -0.000012622213     0.000028063736
       5        0.000004379711     0.000000649636    -0.000001874901
       6       -0.000006442856     0.000008850102    -0.000001834580
       7       -0.000009950636    -0.000048244028    -0.000000822331
       8        0.000000018985     0.000008393582    -0.000019040666
       9        0.000004475620    -0.000026318953     0.000005798354
      10       -0.000018510914     0.000117033760     0.000005115043
      11        0.000007044427    -0.000042125691    -0.000032834526
      12        0.000013795797    -0.000027341445    -0.000040962205
      13        0.000084328191    -0.000133611611    -0.000010724996
      14        0.000010663167     0.000039220680    -0.000064603179
      15       -0.000011254643    -0.000040792907     0.000022328147
      16        0.000381888915    -0.000232772300     0.001163233503
      17        0.000033567997    -0.000000627318     0.000050947208
      18        0.000006371639     0.000000932692    -0.000067012471
      19       -0.000307649198    -0.000356197960    -0.000913318769
      20       -0.000205891109     0.000308790787    -0.000726014470
      21        0.000001725813     0.000054358449    -0.000032525459
      22        0.000114264621     0.000297710177     0.000588573794
      23       -0.000018215958     0.000016901590     0.000022264555
      24       -0.000069578266    -0.000014171292     0.000016431978
      25        0.000014382652    -0.000022616415     0.000031470687
      26       -0.000018274201     0.000060881862    -0.000022671180
      27       -0.000012496106    -0.000000635975    -0.000013151986

  **** Optimization is complete! (in 6 steps) ****
    Final optimized geometry and variables:
    Molecular point group: c1

    Geometry (in Angstrom), charge = 0, multiplicity = 1:

    H            2.673272292744    -1.942983648834     1.076079392690
    O            3.438034274075    -1.680018753560     0.585090169926
    C            3.145203716639    -1.691280010950    -0.788996911760
    C            2.242160537250    -0.541055004431    -1.220473841723
    H            4.099742440622    -1.615738755756    -1.293768754270
    H            2.702128042315    -2.644070375386    -1.076476607279
    C            0.845184376273    -0.578854365373    -0.596073011656
    H            2.730831338561     0.395577000238    -0.964962944000
    H            2.154416699522    -0.567487118865    -2.305345306871
    C           -0.050899182672     0.563388168037    -1.083451796371
    H            0.936991060599    -0.533236477480     0.485383878011
    H            0.369395734810    -1.531181280269    -0.830758761620
    C           -1.488520573573     0.530347677548    -0.550302172622
    H            0.407999699958     1.515347704061    -0.822425433026
    H           -0.087143806700     0.533368725079    -2.170412958480
    C           -1.616414363574     0.762562760460     0.959487939320
    H           -2.059309891231     1.288369127601    -1.079360153899
    H           -1.944462350580    -0.425188339526    -0.805867959613
    C           -3.064678351860     0.800892901406     1.465843186738
    H           -1.122122802826     1.697874695143     1.218376359673
    H           -1.087192101779    -0.022234004222     1.492166059931
    C           -3.839055637832     2.061083278307     1.074456700293
    H           -3.595576749927    -0.079301584465     1.108986149668
    H           -3.054491288469     0.727613820556     2.550610014019
    H           -3.947168354495     2.156547227427    -0.000926175565
    H           -4.837363672542     2.049006929230     1.501115031953
    H           -3.336379830374     2.953493931480     1.437000364328

  Mulliken Charges: (a.u.)
   Center  Symbol    Alpha    Beta     Spin     Total
       1     H     0.27989  0.27989  0.00000  0.44022
       2     O     4.37093  4.37093  0.00000 -0.74186
       3     C     2.99739  2.99739  0.00000  0.00522
       4     C     3.16088  3.16088  0.00000 -0.32176
       5     H     0.41443  0.41443  0.00000  0.17113
       6     H     0.43205  0.43205  0.00000  0.13590
       7     C     3.16329  3.16329  0.00000 -0.32659
       8     H     0.41499  0.41499  0.00000  0.17002
       9     H     0.42434  0.42434  0.00000  0.15131
      10     C     3.15187  3.15187  0.00000 -0.30374
      11     H     0.42313  0.42313  0.00000  0.15375
      12     H     0.42541  0.42541  0.00000  0.14919
      13     C     3.15505  3.15505  0.00000 -0.31009
      14     H     0.42159  0.42159  0.00000  0.15682
      15     H     0.42155  0.42155  0.00000  0.15689
      16     C     3.15428  3.15428  0.00000 -0.30855
      17     H     0.41945  0.41945  0.00000  0.16110
      18     H     0.42465  0.42465  0.00000  0.15071
      19     C     3.15289  3.15289  0.00000 -0.30579
      20     H     0.42375  0.42375  0.00000  0.15250
      21     H     0.42184  0.42184  0.00000  0.15632
      22     C     3.24081  3.24081  0.00000 -0.48162
      23     H     0.42330  0.42330  0.00000  0.15339
      24     H     0.42086  0.42086  0.00000  0.15829
      25     H     0.42048  0.42048  0.00000  0.15903
      26     H     0.41914  0.41914  0.00000  0.16172
      27     H     0.42175  0.42175  0.00000  0.15649

   Total alpha = 37.00000, Total beta = 37.00000, Total charge = -0.00000
