  ==> Input File <==

--------------------------------------------------------------------------
set {
	reference rhf
	basis 6-31G*
}

set_num_threads( 4 )
memory 2 gb

molecule MOL {
0 1

H	 -3.364762	 -2.627118	 1.915148
C	 -2.967265	 -1.801385	 1.357634
C	 -1.738789	 -1.853752	 0.897085
H	 -3.593889	 -0.945615	 1.190570
O	 -1.180634	 -0.819263	 0.215062
H	 -1.097584	 -2.704327	 1.047329
C	 0.051604	 -1.018856	 -0.387932
C	 1.043764	 0.054862	 -0.001873
H	 -0.017620	 -1.041351	 -1.469781
H	 0.437898	 -1.966374	 -0.042284
F	 2.212596	 -0.199467	 -0.571921
F	 0.652529	 1.252447	 -0.405055
F	 1.230877	 0.110694	 1.300533

	symmetry c1
}
set optking {
	frozen_dihedral = ("
		3 5 7 9
	")
}

ee = optimize('scf')
oeprop('DIPOLE', 'QUADRUPOLE', 'MULLIKEN_CHARGES')
f=open( 'psi4out.xyz', 'w' )
f.write( "13  " )
f.write( str(ee) + "\n" )
f.write( MOL.save_string_xyz() )
f.close()
--------------------------------------------------------------------------

    Molecular point group: c1
  Charge       = 0
  Multiplicity = 1
  Basis Set: 6-31G*
  Basis Set:
  @DF-RHF Final Energy:  -527.53283414684518
    Total Energy =                       -527.5328341468448343
    Molecular point group: c1
  Basis Set: 6-31G*
  Basis Set:
  Basis Set: 6-31G*
  Basis Set:
  @DF-RHF Final Energy:  -527.53397618019767
    Total Energy =                       -527.5339761801978966
  Basis Set: 6-31G*
  Basis Set:
  Basis Set: 6-31G*
  Basis Set:
  @DF-RHF Final Energy:  -527.53427142637645
    Total Energy =                       -527.5342714263764492
  Basis Set: 6-31G*
  Basis Set:
  Basis Set: 6-31G*
  Basis Set:
  @DF-RHF Final Energy:  -527.53429379007139
    Total Energy =                       -527.5342937900716151
  Basis Set: 6-31G*
  Basis Set:
  Basis Set: 6-31G*
  Basis Set:
  @DF-RHF Final Energy:  -527.53431989734906
    Total Energy =                       -527.5343198973489507
  Basis Set: 6-31G*
  Basis Set:
  Basis Set: 6-31G*
  Basis Set:
  @DF-RHF Final Energy:  -527.53433485961523
    Total Energy =                       -527.5343348596154556
  Basis Set: 6-31G*
  Basis Set:
  Basis Set: 6-31G*
  Basis Set:
  @DF-RHF Final Energy:  -527.53433895442981
    Total Energy =                       -527.5343389544301544
  Basis Set: 6-31G*
  Basis Set:
  Charge       = 0
  Multiplicity = 1
  Basis Set: 6-31G*
  Basis Set:

    Orbital Energies (a.u.)
    -----------------------

    Doubly Occupied:

       1A    -26.342526     2A    -26.339401     3A    -26.338432
       4A    -20.607372     5A    -11.502104     6A    -11.318657
       7A    -11.302089     8A    -11.218891     9A     -1.739393
      10A     -1.637309    11A     -1.635727    12A     -1.438105
      13A     -1.086958    14A     -1.015534    15A     -0.923197
      16A     -0.836627    17A     -0.829205    18A     -0.809536
      19A     -0.798349    20A     -0.723899    21A     -0.710829
      22A     -0.698335    23A     -0.676884    24A     -0.656684
      25A     -0.652487    26A     -0.640316    27A     -0.629741
      28A     -0.588565    29A     -0.562599    30A     -0.527988
      31A     -0.507816    32A     -0.354888

  @DF-RHF Final Energy:  -527.53433950463193

   => Energetics <=

    Nuclear Repulsion Energy =            408.0845269879251873
    One-Electron Energy =               -1539.9368470183540012
    Two-Electron Energy =                 604.3179805257973385
    DFT Exchange-Correlation Energy =       0.0000000000000000
    Empirical Dispersion Energy =           0.0000000000000000
    PCM Polarization Energy =               0.0000000000000000
    EFP Energy =                            0.0000000000000000
    Total Energy =                       -527.5343395046315891
    Molecular point group: c1
  Basis Set: 6-31G*
  Basis Set:

  -Total Gradient:
     Atom            X                  Y                   Z
    ------   -----------------  -----------------  -----------------
       1       -0.000007719811    -0.000008346200    -0.000002774053
       2       -0.000002539781    -0.000000706755     0.000015554714
       3       -0.000055124250    -0.000025272096    -0.000075713501
       4       -0.000000741680    -0.000004796891     0.000000908466
       5        0.000018593196     0.000021034251     0.000086997191
       6       -0.000007088911    -0.000001977838     0.000002960737
       7        0.000030308928     0.000113720976     0.000014705051
       8       -0.000014335037    -0.000078014777    -0.000068184053
       9       -0.000024884006    -0.000100678666     0.000003871197
      10        0.000017957562     0.000001077689    -0.000016613164
      11       -0.000009652193     0.000043530381    -0.000000882115
      12        0.000048549442     0.000007437379     0.000016373839
      13        0.000006676545     0.000032992548     0.000022795688

  **** Optimization is complete! (in 8 steps) ****
    Final optimized geometry and variables:
    Molecular point group: c1

    Geometry (in Angstrom), charge = 0, multiplicity = 1:

    H           -3.475246221557    -2.174899173717     1.581929897875
    C           -3.064165280538    -1.363814403721     1.012621309807
    C           -1.789216581065    -1.365077176160     0.697560798538
    H           -3.712137404600    -0.556459668171     0.727471442607
    O           -1.209138821620    -0.339393726461     0.026188494274
    H           -1.123185141190    -2.163627983184     0.976846132779
    C           -0.025214974264    -0.581529131384    -0.658009266651
    C            0.976758160031     0.486751245584    -0.293894445041
    H           -0.191642324397    -0.545393578964    -1.727200537092
    H            0.409560596640    -1.540531577848    -0.403853926522
    F            2.101851823308     0.280350160409    -0.964039786646
    F            0.545180283290     1.695010830027    -0.592280103110
    F            1.264776227690     0.464220092294     0.994038112924

  Mulliken Charges: (a.u.)
   Center  Symbol    Alpha    Beta     Spin     Total
       1     H     0.40701  0.40701  0.00000  0.18598
       2     C     3.23386  3.23386  0.00000 -0.46771
       3     C     2.89808  2.89808  0.00000  0.20385
       4     H     0.40105  0.40105  0.00000  0.19790
       5     O     4.30358  4.30358  0.00000 -0.60716
       6     H     0.40739  0.40739  0.00000  0.18523
       7     C     3.05231  3.05231  0.00000 -0.10463
       8     C     2.45317  2.45317  0.00000  1.09366
       9     H     0.39836  0.39836  0.00000  0.20329
      10     H     0.40706  0.40706  0.00000  0.18588
      11     F     4.68419  4.68419  0.00000 -0.36838
      12     F     4.67554  4.67554  0.00000 -0.35107
      13     F     4.67841  4.67841  0.00000 -0.35683

   Total alpha = 32.00000, Total beta = 32.00000, Total charge =  0.00000
