  ==> Input File <==

--------------------------------------------------------------------------
set {
	reference rhf
	basis 6-31G*
}

set_num_threads( 4 )
memory 2 gb

molecule MOL {
0 1

O	 1.884884	 1.227109	 -0.380470
C	 1.705091	 0.115954	 0.001797
C	 0.381791	 -0.609817	 0.001258
O	 2.673453	 -0.650525	 0.487513
C	 -0.823008	 0.326187	 0.001381
H	 0.371250	 -1.265087	 -0.865474
H	 0.370908	 -1.265746	 0.867490
C	 -2.149452	 -0.435131	 -0.000098
H	 -0.770201	 0.977095	 -0.865636
H	 -0.771220	 0.975655	 0.869608
C	 -3.368779	 0.488503	 -0.000883
H	 -2.193746	 -1.087250	 -0.871175
H	 -2.195311	 -1.087803	 0.870418
C	 -4.693822	 -0.272754	 -0.001129
H	 -3.325798	 1.139422	 -0.871284
H	 -3.326423	 1.139959	 0.869145
H	 -4.781274	 -0.907928	 -0.878124
H	 -5.538651	 0.408946	 -0.001420
H	 -4.781694	 -0.907783	 0.875984
C	 3.971872	 -0.088296	 0.541948
H	 4.310799	 0.181895	 -0.447827
H	 4.607625	 -0.853646	 0.959002
H	 3.979852	 0.789509	 1.171948

	symmetry c1
}
set optking {
	frozen_dihedral = ("
		1 2 3 6
	")
}

ee = optimize('scf')
oeprop('DIPOLE', 'QUADRUPOLE', 'MULLIKEN_CHARGES')
f=open( 'psi4out.xyz', 'w' )
f.write( "23  " )
f.write( str(ee) + "\n" )
f.write( MOL.save_string_xyz() )
f.close()
--------------------------------------------------------------------------

    Molecular point group: c1
  Charge       = 0
  Multiplicity = 1
  Basis Set: 6-31G*
  Basis Set:
  @DF-RHF Final Energy:  -422.97578708905297
    Total Energy =                       -422.9757870890534832
    Molecular point group: c1
  Basis Set: 6-31G*
  Basis Set:
  Basis Set: 6-31G*
  Basis Set:
  @DF-RHF Final Energy:  -422.97518608952703
    Total Energy =                       -422.9751860895258915
  Basis Set: 6-31G*
  Basis Set:
  Basis Set: 6-31G*
  Basis Set:
  @DF-RHF Final Energy:  -422.97588020887156
    Total Energy =                       -422.9758802088714447
  Basis Set: 6-31G*
  Basis Set:
  Basis Set: 6-31G*
  Basis Set:
  @DF-RHF Final Energy:  -422.97598075663785
    Total Energy =                       -422.9759807566379095
  Basis Set: 6-31G*
  Basis Set:
  Charge       = 0
  Multiplicity = 1
  Basis Set: 6-31G*
  Basis Set:

    Orbital Energies (a.u.)
    -----------------------

    Doubly Occupied:

       1A    -20.604374     2A    -20.544661     3A    -11.372237
       4A    -11.280855     5A    -11.235287     6A    -11.220099
       7A    -11.218172     8A    -11.216710     9A    -11.209800
      10A     -1.469536    11A     -1.362503    12A     -1.093378
      13A     -1.043594    14A     -0.987038    15A     -0.932379
      16A     -0.843672    17A     -0.795276    18A     -0.768060
      19A     -0.696545    20A     -0.683393    21A     -0.671585
      22A     -0.652088    23A     -0.609119    24A     -0.599133
      25A     -0.572980    26A     -0.562726    27A     -0.552714
      28A     -0.524276    29A     -0.522447    30A     -0.507136
      31A     -0.484480    32A     -0.470385    33A     -0.466280
      34A     -0.461402    35A     -0.455870    36A     -0.434499

  @DF-RHF Final Energy:  -422.97598104676382

   => Energetics <=

    Nuclear Repulsion Energy =            452.1578371829668299
    One-Electron Energy =               -1472.0182579381482810
    Two-Electron Energy =                 596.8844397084172897
    DFT Exchange-Correlation Energy =       0.0000000000000000
    Empirical Dispersion Energy =           0.0000000000000000
    PCM Polarization Energy =               0.0000000000000000
    EFP Energy =                            0.0000000000000000
    Total Energy =                       -422.9759810467641046
    Molecular point group: c1
  Basis Set: 6-31G*
  Basis Set:

  -Total Gradient:
     Atom            X                  Y                   Z
    ------   -----------------  -----------------  -----------------
       1        0.000143079565    -0.000319248418    -0.000720468334
       2       -0.000306388037     0.000610911923     0.000994236395
       3        0.000445083028    -0.000786619296     0.000100279279
       4        0.000002462180    -0.000007755749     0.000105749350
       5        0.000010825911     0.000014536596    -0.000000131912
       6       -0.000323147224     0.000540985230    -0.000404863394
       7        0.000024544909    -0.000001178358     0.000006021260
       8        0.000005636863    -0.000015887826     0.000008493624
       9       -0.000006146502     0.000007156729    -0.000002515496
      10        0.000013548822    -0.000011726452    -0.000002253496
      11        0.000007686387     0.000005255176    -0.000002841390
      12        0.000003873019    -0.000002013429     0.000001854224
      13       -0.000007092294    -0.000003925463     0.000003060788
      14        0.000002885383    -0.000002400168    -0.000000116202
      15       -0.000002774115     0.000002688630    -0.000001098921
      16       -0.000000776443    -0.000000460146    -0.000000790941
      17        0.000000533720     0.000000755283     0.000000660672
      18        0.000001164538     0.000000956603     0.000000217572
      19        0.000000159817    -0.000000181502     0.000000462702
      20       -0.000014224291    -0.000069510716    -0.000169475528
      21        0.000038844706     0.000014607011     0.000033236970
      22        0.000000620470     0.000010274909     0.000025822034
      23       -0.000040400426     0.000012779431     0.000024460745

  **** Optimization is complete! (in 5 steps) ****
    Final optimized geometry and variables:
    Molecular point group: c1

    Geometry (in Angstrom), charge = 0, multiplicity = 1:

    O            1.871286384396     1.219147191916    -0.415940069143
    C            1.707931928443     0.106040857905    -0.031093326944
    C            0.387493913239    -0.625559749455    -0.013512918441
    O            2.696125193248    -0.661780053510     0.408782966350
    C           -0.818311194993     0.311072243574    -0.044750529293
    H            0.382876008571    -1.275190172878    -0.886529835929
    H            0.365942953563    -1.277499851868     0.852480050236
    C           -2.144410761271    -0.450012807032    -0.074789694925
    H           -0.742079291797     0.959499201079    -0.910598369600
    H           -0.789499366903     0.961236867804     0.825614387430
    C           -3.363144919398     0.473941204840    -0.103228311600
    H           -2.168523704017    -1.101358063669    -0.947232577132
    H           -2.210151946516    -1.103178595819     0.794031093410
    C           -4.687920932349    -0.287089331619    -0.136462147662
    H           -3.299043241267     1.126249976726    -0.971193282978
    H           -3.341819786388     1.123875747592     0.768749592177
    H           -4.754457299730    -0.920660542900    -1.016465209119
    H           -5.532394527968     0.394731556261    -0.155737884024
    H           -4.796847293818    -0.923689186470     0.737136217838
    C            3.998288011467    -0.105512779479     0.390974899952
    H            4.286418761437     0.156435442860    -0.616948854307
    H            4.651478038518    -0.871041795411     0.779892325594
    H            4.042442161834     0.776441730277     1.013536736298

  Mulliken Charges: (a.u.)
   Center  Symbol    Alpha    Beta     Spin     Total
       1     O     4.28640  4.28640  0.00000 -0.57281
       2     C     2.60396  2.60396  0.00000  0.79208
       3     C     3.20878  3.20878  0.00000 -0.41756
       4     O     4.30700  4.30700  0.00000 -0.61400
       5     C     3.15459  3.15459  0.00000 -0.30919
       6     H     0.40025  0.40025  0.00000  0.19950
       7     H     0.40081  0.40081  0.00000  0.19839
       8     C     3.15309  3.15309  0.00000 -0.30618
       9     H     0.40656  0.40656  0.00000  0.18687
      10     H     0.41598  0.41598  0.00000  0.16803
      11     C     3.15166  3.15166  0.00000 -0.30331
      12     H     0.42372  0.42372  0.00000  0.15256
      13     H     0.42387  0.42387  0.00000  0.15226
      14     C     3.23961  3.23961  0.00000 -0.47923
      15     H     0.42092  0.42092  0.00000  0.15816
      16     H     0.42172  0.42172  0.00000  0.15655
      17     H     0.42168  0.42168  0.00000  0.15665
      18     H     0.41845  0.41845  0.00000  0.16311
      19     H     0.42185  0.42185  0.00000  0.15630
      20     C     3.09286  3.09286  0.00000 -0.18573
      21     H     0.40924  0.40924  0.00000  0.18151
      22     H     0.40840  0.40840  0.00000  0.18321
      23     H     0.40859  0.40859  0.00000  0.18282

   Total alpha = 36.00000, Total beta = 36.00000, Total charge =  0.00000
