                              Psi4 1.0.54 Driver

  ==> Input File <==

--------------------------------------------------------------------------
set {
	reference rhf
	basis cc-pvtz
}

set_num_threads( 4 )
memory 2 gb

molecule MOL {
0 1

O	 0.074770	 1.259872	 0.000487
C	 0.029490	 0.077183	 0.000078
C	 -1.232113	 -0.748027	 0.000015
O	 1.106773	 -0.690081	 -0.000204
C	 -2.501422	 0.088592	 -0.000052
H	 -1.188777	 -1.400384	 -0.865133
H	 -1.188857	 -1.400312	 0.865225
H	 -2.548170	 0.725504	 -0.873205
H	 -3.371613	 -0.556398	 -0.000040
H	 -2.548215	 0.725571	 0.873047
C	 2.319758	 -0.105364	 -0.429638
H	 2.236961	 0.238442	 -1.450019
H	 3.065799	 -0.879966	 -0.357247
H	 2.585648	 0.728680	 0.202752

	symmetry c1
}
set optking {
	frozen_dihedral = ("
		11 4 2 3
	")
}

ee,wfn = optimize('scf', return_wfn=True)
oeprop( wfn, 'DIPOLE', 'QUADRUPOLE', 'MULLIKEN_CHARGES')
f=open( 'psi4out.xyz', 'w' )
f.write( "14  " )
f.write( str(ee) + "\n" )
f.write( MOL.save_string_xyz() )
f.close()
--------------------------------------------------------------------------

    Molecular point group: c1
  Charge       = 0
  Multiplicity = 1
  Basis Set: CC-PVTZ
  Basis Set:
  @DF-RHF Final Energy:  -305.98531449437803
    Total Energy =                       -305.9853144943782581
    Molecular point group: c1
  Basis Set: CC-PVTZ
  Basis Set:
  Basis Set: CC-PVTZ
  Basis Set:
  @DF-RHF Final Energy:  -305.98298972884686
    Total Energy =                       -305.9829897288466327
  Basis Set: CC-PVTZ
  Basis Set:
  Basis Set: CC-PVTZ
  Basis Set:
  @DF-RHF Final Energy:  -305.98555257291321
    Total Energy =                       -305.9855525729133205
  Basis Set: CC-PVTZ
  Basis Set:
  Basis Set: CC-PVTZ
  Basis Set:
  @DF-RHF Final Energy:  -305.98565828704437
    Total Energy =                       -305.9856582870440889
  Basis Set: CC-PVTZ
  Basis Set:
  Basis Set: CC-PVTZ
  Basis Set:
  @DF-RHF Final Energy:  -305.98570150874662
    Total Energy =                       -305.9857015087469563
  Basis Set: CC-PVTZ
  Basis Set:
  Basis Set: CC-PVTZ
  Basis Set:
  @DF-RHF Final Energy:  -305.98571068507925
    Total Energy =                       -305.9857106850795390
  Basis Set: CC-PVTZ
  Basis Set:
  Charge       = 0
  Multiplicity = 1
  Basis Set: CC-PVTZ
  Basis Set:

    Orbital Energies (a.u.)
    -----------------------

    Doubly Occupied:

       1A    -20.595508     2A    -20.535727     3A    -11.365593
       4A    -11.279933     5A    -11.237664     6A    -11.215190
       7A     -1.471959     8A     -1.366939     9A     -1.065365
      10A     -0.980804    11A     -0.880253    12A     -0.770694
      13A     -0.702633    14A     -0.684841    15A     -0.675725
      16A     -0.621709    17A     -0.604705    18A     -0.549289
      19A     -0.539321    20A     -0.521903    21A     -0.514706
      22A     -0.497579    23A     -0.461088    24A     -0.442050

  @DF-RHF Final Energy:  -305.98571150301035

   => Energetics <=

    Nuclear Repulsion Energy =            247.4651116020193626
    One-Electron Energy =                -907.7392911365557211
    Two-Electron Energy =                 354.2884680315260084
    DFT Exchange-Correlation Energy =       0.0000000000000000
    Empirical Dispersion Energy =           0.0000000000000000
    PCM Polarization Energy =               0.0000000000000000
    EFP Energy =                            0.0000000000000000
    Total Energy =                       -305.9857115030104069
    Molecular point group: c1
  Basis Set: CC-PVTZ
  Basis Set:

  -Total Gradient:
     Atom            X                  Y                   Z
    ------   -----------------  -----------------  -----------------
       1       -0.000002599556    -0.000061989528    -0.000042320463
       2       -0.000756279802     0.000003409576     0.003979378611
       3        0.000185706338    -0.000510461318    -0.004259231851
       4        0.001308395915     0.002478155815     0.004646626662
       5        0.000008565675    -0.000030177365     0.000002924215
       6        0.000002549630    -0.000004175720     0.000000851528
       7        0.000001572715    -0.000001701682    -0.000005798628
       8        0.000001927247     0.000001754725    -0.000000222264
       9        0.000001352000     0.000007109110    -0.000002052274
      10        0.000000178420     0.000004291798     0.000000013545
      11       -0.000774484445    -0.001906711412    -0.004345198133
      12        0.000007653883     0.000008424971     0.000008871316
      13        0.000010994900     0.000002780497     0.000007682111
      14        0.000004467074     0.000009290535     0.000008475626

  **** Optimization is complete! (in 7 steps) ****
    Final optimized geometry and variables:
    Molecular point group: c1

    Geometry (in Angstrom), charge = 0, multiplicity = 1:

    O            0.076332036631     1.261438768519    -0.160546740880
    C            0.032816157479     0.096291238106     0.039536845391
    C           -1.225551990342    -0.731478499315     0.084624463484
    O            1.113908227570    -0.656547979729     0.181169626898
    C           -2.497094465353     0.099017306767     0.153130111481
    H           -1.208647595805    -1.347440193229    -0.809025095877
    H           -1.150245967895    -1.417483001430     0.919804470101
    H           -2.571120695420     0.766950517764    -0.693820755863
    H           -3.365192005610    -0.548688022057     0.157668394525
    H           -2.519727298557     0.703134204521     1.051039965329
    C            2.342474227377    -0.116670121034    -0.263137510751
    H            2.270500915077     0.179247959187    -1.299907602847
    H            3.071564442188    -0.902618139552    -0.151146126201
    H            2.625629388501     0.740095834807     0.329558407206

  Mulliken Charges: (a.u.)
   Center  Symbol    Alpha    Beta     Spin     Total
       1     O     4.19432  4.19432  0.00000 -0.38864
       2     C     2.80304  2.80304  0.00000  0.39392
       3     C     3.09295  3.09295  0.00000 -0.18590
       4     O     4.14894  4.14894  0.00000 -0.29788
       5     C     3.14070  3.14070  0.00000 -0.28141
       6     H     0.44412  0.44412  0.00000  0.11176
       7     H     0.43933  0.43933  0.00000  0.12134
       8     H     0.44597  0.44597  0.00000  0.10806
       9     H     0.45022  0.45022  0.00000  0.09956
      10     H     0.45025  0.45025  0.00000  0.09950
      11     C     3.03561  3.03561  0.00000 -0.07123
      12     H     0.45793  0.45793  0.00000  0.08415
      13     H     0.44555  0.44555  0.00000  0.10891
      14     H     0.45107  0.45107  0.00000  0.09787

   Total alpha = 24.00000, Total beta = 24.00000, Total charge = -0.00000

*** Psi4 exiting successfully. Buy a developer a beer!
