  ==> Input File <==

--------------------------------------------------------------------------
set {
	reference rhf
	basis cc-pvtz
}

set_num_threads( 4 )
memory 2 gb

molecule MOL {
0 1

H	 1.925374	 -0.934876	 1.259282
C	 1.936588	 -0.223312	 0.423098
C	 0.683005	 0.590971	 0.261010
O	 2.888728	 -0.144082	 -0.273168
C	 -0.554654	 -0.292621	 0.086567
H	 0.813455	 1.257427	 -0.581400
H	 0.570327	 1.196957	 1.157650
C	 -1.846385	 0.513195	 -0.016346
H	 -0.436344	 -0.900400	 -0.805927
H	 -0.628387	 -0.983687	 0.922428
C	 -3.089953	 -0.365049	 -0.098564
H	 -1.798267	 1.154820	 -0.891143
H	 -1.925398	 1.173265	 0.842889
H	 -3.055079	 -1.012299	 -0.968245
H	 -3.988403	 0.236438	 -0.170014
H	 -3.183055	 -0.995885	 0.779079

	symmetry c1
}
set optking {
	frozen_dihedral = ("
		9 5 8 12
	")
}

ee = optimize('scf')
oeprop('DIPOLE', 'QUADRUPOLE', 'MULLIKEN_CHARGES')
f=open( 'psi4out.xyz', 'w' )
f.write( "16  " )
f.write( str(ee) + "\n" )
f.write( MOL.save_string_xyz() )
f.close()
--------------------------------------------------------------------------

    Molecular point group: c1
  Charge       = 0
  Multiplicity = 1
  Basis Set: CC-PVTZ
  Basis Set:
  @DF-RHF Final Energy:  -270.11917071023555
    Total Energy =                       -270.1191707102358350
    Molecular point group: c1
  Basis Set: CC-PVTZ
  Basis Set:
  Basis Set: CC-PVTZ
  Basis Set:
  @DF-RHF Final Energy:  -270.11917582217228
    Total Energy =                       -270.1191758221723944
  Basis Set: CC-PVTZ
  Basis Set:
  Basis Set: CC-PVTZ
  Basis Set:
  @DF-RHF Final Energy:  -270.11917412533467
    Total Energy =                       -270.1191741253345526
  Basis Set: CC-PVTZ
  Basis Set:
  Basis Set: CC-PVTZ
  Basis Set:
  @DF-RHF Final Energy:  -270.11917582359206
    Total Energy =                       -270.1191758235918883
  Basis Set: CC-PVTZ
  Basis Set:
  Basis Set: CC-PVTZ
  Basis Set:
  @DF-RHF Final Energy:  -270.11918344883674
    Total Energy =                       -270.1191834488365657
  Basis Set: CC-PVTZ
  Basis Set:
  Charge       = 0
  Multiplicity = 1
  Basis Set: CC-PVTZ
  Basis Set:

    Orbital Energies (a.u.)
    -----------------------

    Doubly Occupied:

       1A    -20.552055     2A    -11.321269     3A    -11.234699
       4A    -11.233923     5A    -11.227533     6A    -11.216689
       7A     -1.406820     8A     -1.097955     9A     -1.020156
      10A     -0.906798    11A     -0.812524    12A     -0.793904
      13A     -0.681418    14A     -0.648735    15A     -0.634456
      16A     -0.605097    17A     -0.582334    18A     -0.551950
      19A     -0.530939    20A     -0.509838    21A     -0.488616
      22A     -0.483220    23A     -0.480199    24A     -0.411501

  @DF-RHF Final Energy:  -270.11918366627151

   => Energetics <=

    Nuclear Repulsion Energy =            229.3758654896359133
    One-Electron Energy =                -820.1248383470597219
    Two-Electron Energy =                 320.6297891911520992
    DFT Exchange-Correlation Energy =       0.0000000000000000
    Empirical Dispersion Energy =           0.0000000000000000
    PCM Polarization Energy =               0.0000000000000000
    EFP Energy =                            0.0000000000000000
    Total Energy =                       -270.1191836662717378
    Molecular point group: c1
  Basis Set: CC-PVTZ
  Basis Set:

  -Total Gradient:
     Atom            X                  Y                   Z
    ------   -----------------  -----------------  -----------------
       1        0.000001638041    -0.000000575299     0.000000423716
       2        0.000001629367    -0.000005747302    -0.000005338330
       3       -0.000013505024    -0.000014263823    -0.000011703402
       4        0.000001756856     0.000005032379     0.000005973674
       5       -0.000601061297    -0.000916549022     0.000351331413
       6        0.000001714070     0.000004312731     0.000000711850
       7        0.000001256433     0.000001153390     0.000000824256
       8        0.000520379742     0.000908968078     0.000517205873
       9        0.000436200956     0.000628955394    -0.000371696144
      10       -0.000005305654     0.000001384344    -0.000005261553
      11        0.000003665555     0.000000970839    -0.000013503602
      12       -0.000351905139    -0.000621827551    -0.000466896772
      13        0.000003151685     0.000007582055    -0.000001036212
      14       -0.000002518304    -0.000006885381    -0.000000278112
      15        0.000000313272     0.000001196722    -0.000001871363
      16        0.000002589444     0.000006292446     0.000001114707

  **** Optimization is complete! (in 6 steps) ****
    Final optimized geometry and variables:
    Molecular point group: c1

    Geometry (in Angstrom), charge = 0, multiplicity = 1:

    H            1.935327280323    -0.941089018337     1.194980418875
    C            1.939122194002    -0.230031289789     0.358270647642
    C            0.684305708956     0.584391300077     0.207188210268
    O            2.884834576943    -0.151675865606    -0.346838887051
    C           -0.554552101735    -0.299907765214     0.041277826524
    H            0.807876054648     1.251677901812    -0.635677538344
    H            0.578448520777     1.189349950858     1.105250679117
    C           -1.844946403211     0.507689458693    -0.066447980766
    H           -0.435981242398    -0.908777809673    -0.850379702987
    H           -0.626439115736    -0.986126751762     0.881028636945
    C           -3.087892039710    -0.370816599737    -0.161071356860
    H           -1.792110885489     1.147187828700    -0.942425570785
    H           -1.931086443522     1.166006607895     0.793206549629
    H           -3.041314460983    -1.022721846379    -1.026809728569
    H           -3.985023113643     0.230582495535    -0.248342030378
    H           -3.193402271717    -0.996958539610     0.718477136437

  Mulliken Charges: (a.u.)
   Center  Symbol    Alpha    Beta     Spin     Total
       1     H     0.46536  0.46536  0.00000  0.06927
       2     C     2.90952  2.90952  0.00000  0.18095
       3     C     3.07657  3.07657  0.00000 -0.15314
       4     O     4.16415  4.16415  0.00000 -0.32831
       5     C     3.10225  3.10225  0.00000 -0.20450
       6     H     0.44250  0.44250  0.00000  0.11500
       7     H     0.45016  0.45016  0.00000  0.09968
       8     C     3.08459  3.08459  0.00000 -0.16919
       9     H     0.44551  0.44551  0.00000  0.10898
      10     H     0.45207  0.45207  0.00000  0.09586
      11     C     3.14908  3.14908  0.00000 -0.29816
      12     H     0.45028  0.45028  0.00000  0.09945
      13     H     0.45341  0.45341  0.00000  0.09318
      14     H     0.45328  0.45328  0.00000  0.09343
      15     H     0.44666  0.44666  0.00000  0.10669
      16     H     0.45460  0.45460  0.00000  0.09081

   Total alpha = 24.00000, Total beta = 24.00000, Total charge = -0.00000
