  ==> Input File <==

--------------------------------------------------------------------------
set {
	reference rhf
	basis 6-31G*
}

set_num_threads( 4 )
memory 2 gb

molecule MOL {
0 1

O	 0.866219	 -0.235622	 -4.916452
C	 0.321741	 0.310207	 -4.005382
C	 0.285939	 -0.325028	 -2.626433
C	 -0.327661	 1.666608	 -4.166096
C	 1.621753	 -0.120181	 -1.893780
H	 0.104328	 -1.386188	 -2.757811
H	 -0.527999	 0.087054	 -2.036754
C	 1.631333	 -0.777471	 -0.511575
H	 2.413294	 -0.524717	 -2.514422
H	 1.820561	 0.944925	 -1.785285
C	 2.915987	 -0.544314	 0.291766
H	 1.466668	 -1.847612	 -0.622973
H	 0.789298	 -0.397540	 0.063298
C	 3.373361	 0.914346	 0.347591
H	 3.708709	 -1.142521	 -0.150311
H	 2.780642	 -0.921148	 1.303579
H	 3.506512	 1.320010	 -0.651625
H	 4.322697	 0.999599	 0.867103
H	 2.660624	 1.545032	 0.868198
H	 -1.402708	 1.574681	 -4.035374
H	 -0.118307	 2.063126	 -5.149828
H	 0.029279	 2.356155	 -3.406543

	symmetry c1
}
set optking {
	frozen_dihedral = ("
		12 8 11 15
	")
}

ee = optimize('scf')
oeprop('DIPOLE', 'QUADRUPOLE', 'MULLIKEN_CHARGES')
f=open( 'psi4out.xyz', 'w' )
f.write( "22  " )
f.write( str(ee) + "\n" )
f.write( MOL.save_string_xyz() )
f.close()
--------------------------------------------------------------------------

    Molecular point group: c1
  Charge       = 0
  Multiplicity = 1
  Basis Set: 6-31G*
  Basis Set:
  @DF-RHF Final Energy:  -348.09590009694790
    Total Energy =                       -348.0959000969478438
    Molecular point group: c1
  Basis Set: 6-31G*
  Basis Set:
  Basis Set: 6-31G*
  Basis Set:
  @DF-RHF Final Energy:  -348.09692807360869
    Total Energy =                       -348.0969280736085238
  Basis Set: 6-31G*
  Basis Set:
  Basis Set: 6-31G*
  Basis Set:
  @DF-RHF Final Energy:  -348.09736773912903
    Total Energy =                       -348.0973677391289129
  Basis Set: 6-31G*
  Basis Set:
  Basis Set: 6-31G*
  Basis Set:
  @DF-RHF Final Energy:  -348.09635424856424
    Total Energy =                       -348.0963542485641256
  Basis Set: 6-31G*
  Basis Set:
  @DF-RHF Final Energy:  -348.09750157426657
    Total Energy =                       -348.0975015742667438
  @DF-RHF Final Energy:  -348.09743885457692
    Total Energy =                       -348.0974388545770353
  @DF-RHF Final Energy:  -348.09744860726482
    Total Energy =                       -348.0974486072648801
  @DF-RHF Final Energy:  -348.09755919288580
    Total Energy =                       -348.0975591928856829
  Basis Set: 6-31G*
  Basis Set:
  @DF-RHF Final Energy:  -348.09759722739386
    Total Energy =                       -348.0975972273942034
  Basis Set: 6-31G*
  Basis Set:
  Basis Set: 6-31G*
  Basis Set:
  @DF-RHF Final Energy:  -348.09761298546476
    Total Energy =                       -348.0976129854645365
  Basis Set: 6-31G*
  Basis Set:
  Basis Set: 6-31G*
  Basis Set:
  @DF-RHF Final Energy:  -348.09761423950630
    Total Energy =                       -348.0976142395061288
  Basis Set: 6-31G*
  Basis Set:
  Charge       = 0
  Multiplicity = 1
  Basis Set: 6-31G*
  Basis Set:

    Orbital Energies (a.u.)
    -----------------------

    Doubly Occupied:

       1A    -20.547224     2A    -11.324289     3A    -11.229536
       4A    -11.228912     5A    -11.228099     6A    -11.222790
       7A    -11.220808     8A    -11.213212     9A     -1.392954
      10A     -1.095871    11A     -1.044354    12A     -0.999312
      13A     -0.938294    14A     -0.860508    15A     -0.783951
      16A     -0.733125    17A     -0.661646    18A     -0.647322
      19A     -0.627263    20A     -0.616501    21A     -0.597430
      22A     -0.587358    23A     -0.555258    24A     -0.548424
      25A     -0.530934    26A     -0.523133    27A     -0.501469
      28A     -0.485500    29A     -0.467708    30A     -0.465428
      31A     -0.461262    32A     -0.395961

  @DF-RHF Final Energy:  -348.09761454012460

   => Energetics <=

    Nuclear Repulsion Energy =            373.5690737872409954
    One-Electron Energy =               -1211.8616997438111866
    Two-Electron Energy =                 490.1950114164457091
    DFT Exchange-Correlation Energy =       0.0000000000000000
    Empirical Dispersion Energy =           0.0000000000000000
    PCM Polarization Energy =               0.0000000000000000
    EFP Energy =                            0.0000000000000000
    Total Energy =                       -348.0976145401244821
    Molecular point group: c1
  Basis Set: 6-31G*
  Basis Set:

  -Total Gradient:
     Atom            X                  Y                   Z
    ------   -----------------  -----------------  -----------------
       1        0.000011819328    -0.000002652989     0.000007238878
       2        0.000007114465     0.000028547541     0.000001745033
       3       -0.000001811199     0.000002419183     0.000002980664
       4       -0.000026536230    -0.000022431007    -0.000021364384
       5       -0.000000079711    -0.000013184709    -0.000003851988
       6       -0.000012786357    -0.000007201194     0.000000156711
       7        0.000002297734    -0.000002372045     0.000000169003
       8       -0.001879505460    -0.000481244198     0.003401871555
       9       -0.000004753897     0.000003771893     0.000000441001
      10        0.000004143277    -0.000000582069     0.000002524344
      11        0.001230843411     0.002666156035    -0.002626002762
      12        0.001399046057    -0.000010988877    -0.002462223343
      13       -0.000002283829    -0.000000004056    -0.000003000016
      14        0.000004107609    -0.000002342152    -0.000005583421
      15       -0.000746114931    -0.002163254747     0.001686339718
      16        0.000004285413     0.000000037210    -0.000000118051
      17        0.000004440063    -0.000001476146     0.000005128407
      18       -0.000002956322    -0.000000957442     0.000002701715
      19       -0.000005809992     0.000001624015    -0.000001876014
      20        0.000004510345     0.000006028687     0.000007253894
      21        0.000000690888     0.000000586116    -0.000000007603
      22        0.000009339339    -0.000000479048     0.000005476659

  **** Optimization is complete! (in 12 steps) ****
    Final optimized geometry and variables:
    Molecular point group: c1

    Geometry (in Angstrom), charge = 0, multiplicity = 1:

    O           -0.458452274934    -0.365269007133    -2.741741479027
    C           -1.028463410902     0.163942624973    -1.836599888621
    C           -1.056268855610    -0.469013179146    -0.456584782226
    C           -1.727183252571     1.494599328644    -2.007975173517
    C            0.244938470520    -0.175704830641     0.307704032356
    H           -1.167933418888    -1.539592331875    -0.587806453541
    H           -1.908384228282    -0.106626325648     0.111891954091
    C            0.254119400718    -0.816315623576     1.698976046405
    H            1.080360888302    -0.550037503425    -0.277139311166
    H            0.378651254603     0.899463851973     0.392274873242
    C            1.584308130019    -0.685909660326     2.452061643499
    H            0.033814894282    -1.874523179906     1.579079320015
    H           -0.548384965700    -0.389473021191     2.297297099192
    C            2.114771457867     0.740664090650     2.596080608539
    H            2.330468696472    -1.316234921055     1.973710594010
    H            1.446024698246    -1.106536093297     3.445552793278
    H            2.397304514111     1.168953801812     1.640354666963
    H            2.993792991833     0.758883238575     3.232481499736
    H            1.369651887330     1.392187542243     3.045475640355
    H           -2.799900439288     1.359958376588    -1.896692744585
    H           -1.516486893833     1.899523321291    -2.987977679366
    H           -1.411688059321     2.197488101885    -1.242462825998

  Mulliken Charges: (a.u.)
   Center  Symbol    Alpha    Beta     Spin     Total
       1     O     4.26228  4.26228  0.00000 -0.52457
       2     C     2.73708  2.73708  0.00000  0.52583
       3     C     3.19967  3.19967  0.00000 -0.39933
       4     C     3.28960  3.28960  0.00000 -0.57919
       5     C     3.16484  3.16484  0.00000 -0.32968
       6     H     0.40129  0.40129  0.00000  0.19743
       7     H     0.41697  0.41697  0.00000  0.16606
       8     C     3.15224  3.15224  0.00000 -0.30449
       9     H     0.40692  0.40692  0.00000  0.18616
      10     H     0.41829  0.41829  0.00000  0.16342
      11     C     3.15299  3.15299  0.00000 -0.30598
      12     H     0.41908  0.41908  0.00000  0.16184
      13     H     0.42316  0.42316  0.00000  0.15368
      14     C     3.24314  3.24314  0.00000 -0.48629
      15     H     0.42012  0.42012  0.00000  0.15977
      16     H     0.41997  0.41997  0.00000  0.16006
      17     H     0.41870  0.41870  0.00000  0.16260
      18     H     0.41728  0.41728  0.00000  0.16543
      19     H     0.42264  0.42264  0.00000  0.15473
      20     H     0.40679  0.40679  0.00000  0.18642
      21     H     0.39709  0.39709  0.00000  0.20582
      22     H     0.40986  0.40986  0.00000  0.18028

   Total alpha = 32.00000, Total beta = 32.00000, Total charge = -0.00000
