  ==> Input File <==

--------------------------------------------------------------------------
set {
	reference rhf
	basis cc-pvtz
}

set_num_threads( 4 )
memory 2 gb

molecule MOL {
0 1

O	 1.107529	 1.476015	 0.403076
C	 0.804826	 0.624723	 1.167755
C	 -0.480160	 -0.162286	 1.137917
O	 1.577241	 0.245839	 2.172842
C	 -1.413045	 0.229353	 0.001137
H	 -0.211931	 -1.212255	 1.082242
H	 -0.959297	 -0.030786	 2.102592
C	 -2.702562	 -0.586401	 0.000228
H	 -0.897937	 0.103077	 -0.944516
H	 -1.646556	 1.285406	 0.077089
C	 -3.953810	 0.284959	 -0.000782
H	 -2.717793	 -1.238567	 -0.869075
H	 -2.719108	 -1.238472	 0.869576
H	 -3.983727	 0.924403	 -0.876454
H	 -4.852989	 -0.320147	 -0.001515
H	 -3.985140	 0.924399	 0.874841
C	 2.819222	 0.903848	 2.320585
H	 3.433116	 0.761074	 1.443672
H	 3.291108	 0.459064	 3.181607
H	 2.673587	 1.961920	 2.480266

	symmetry c1
}
set optking {
	frozen_dihedral = ("
		9 5 8 12
	")
}

ee = optimize('scf')
oeprop('DIPOLE', 'QUADRUPOLE', 'MULLIKEN_CHARGES')
f=open( 'psi4out.xyz', 'w' )
f.write( "20  " )
f.write( str(ee) + "\n" )
f.write( MOL.save_string_xyz() )
f.close()
--------------------------------------------------------------------------

    Molecular point group: c1
  Charge       = 0
  Multiplicity = 1
  Basis Set: CC-PVTZ
  Basis Set:
  @DF-RHF Final Energy:  -384.07733329467072
    Total Energy =                       -384.0773332946710070
    Molecular point group: c1
  Basis Set: CC-PVTZ
  Basis Set:
  Basis Set: CC-PVTZ
  Basis Set:
  @DF-RHF Final Energy:  -384.07758904880342
    Total Energy =                       -384.0775890488040432
  Basis Set: CC-PVTZ
  Basis Set:
  Basis Set: CC-PVTZ
  Basis Set:
  @DF-RHF Final Energy:  -384.07762952383314
    Total Energy =                       -384.0776295238329112
  Basis Set: CC-PVTZ
  Basis Set:
  Basis Set: CC-PVTZ
  Basis Set:
  @DF-RHF Final Energy:  -384.07755426256972
    Total Energy =                       -384.0775542625700609
  Basis Set: CC-PVTZ
  Basis Set:
  Charge       = 0
  Multiplicity = 1
  Basis Set: CC-PVTZ
  Basis Set:

    Orbital Energies (a.u.)
    -----------------------

    Doubly Occupied:

       1A    -20.596362     2A    -20.534287     3A    -11.364466
       4A    -11.278539     5A    -11.234368     6A    -11.218215
       7A    -11.217169     8A    -11.209570     9A     -1.472258
      10A     -1.365858    11A     -1.087689    12A     -1.024616
      13A     -0.969862    14A     -0.886562    15A     -0.805066
      16A     -0.769424    17A     -0.701426    18A     -0.685970
      19A     -0.676222    20A     -0.637797    21A     -0.603641
      22A     -0.597844    23A     -0.576985    24A     -0.544939
      25A     -0.529382    26A     -0.523541    27A     -0.511250
      28A     -0.476517    29A     -0.474163    30A     -0.466806
      31A     -0.458213    32A     -0.439339

  @DF-RHF Final Energy:  -384.07766374784381

   => Energetics <=

    Nuclear Repulsion Energy =            382.1470704561122034
    One-Electron Energy =               -1280.5727751263270875
    Two-Electron Energy =                 514.3480409223710694
    DFT Exchange-Correlation Energy =       0.0000000000000000
    Empirical Dispersion Energy =           0.0000000000000000
    PCM Polarization Energy =               0.0000000000000000
    EFP Energy =                            0.0000000000000000
    Total Energy =                       -384.0776637478437578
    Molecular point group: c1
  Basis Set: CC-PVTZ
  Basis Set:

  -Total Gradient:
     Atom            X                  Y                   Z
    ------   -----------------  -----------------  -----------------
       1       -0.000017582019     0.000028114135     0.000032512369
       2        0.000044282036    -0.000086701332    -0.000095716854
       3       -0.000027673362     0.000039156790     0.000007354683
       4       -0.000030892294     0.000018749286     0.000021338570
       5       -0.001181871960     0.001919756724    -0.000965754909
       6        0.000023404555    -0.000002603469     0.000020276344
       7       -0.000002730582    -0.000009466719     0.000016004400
       8        0.001076368073    -0.001799535333     0.001257920859
       9        0.000858195706    -0.001301863358     0.000623967406
      10        0.000014526423     0.000048394894    -0.000033616020
      11        0.000019261538    -0.000009431958    -0.000002168613
      12       -0.000757182574     0.001183691402    -0.000893248355
      13       -0.000006638888    -0.000065221119     0.000005284680
      14       -0.000020267098     0.000013353298    -0.000003958373
      15        0.000019998862    -0.000000320122    -0.000001107963
      16       -0.000013825744     0.000020556010     0.000011809638
      17        0.000002939769     0.000002020014    -0.000001457278
      18       -0.000000781529    -0.000000416109     0.000000072209
      19       -0.000000400418     0.000001120289    -0.000000159193
      20        0.000000869504     0.000000646677     0.000000646401

  **** Optimization is complete! (in 5 steps) ****
    Final optimized geometry and variables:
    Molecular point group: c1

    Geometry (in Angstrom), charge = 0, multiplicity = 1:

    O            1.359205706993     1.089775690569    -0.507069957092
    C            1.059750633859     0.235266754991     0.255404265784
    C           -0.226864531200    -0.549465353421     0.229764639571
    O            1.837141976320    -0.148725162699     1.254780707578
    C           -1.166810581421    -0.152517281677    -0.901809545209
    H            0.038663016833    -1.599844781348     0.169071730604
    H           -0.701163521548    -0.420512699236     1.197281532441
    C           -2.468661525480    -0.980022431252    -0.908724083662
    H           -0.640347836992    -0.272193966490    -1.839858253619
    H           -1.392268763368     0.902945980803    -0.815395237895
    C           -3.728199119189    -0.117955347915    -0.936028088093
    H           -2.480209463943    -1.632366162107    -1.774901219882
    H           -2.505712026238    -1.628343314303    -0.039134190651
    H           -3.744221338129     0.520267560679    -1.812964856871
    H           -4.622863717625    -0.729913914392    -0.954438268832
    H           -3.781836858562     0.523347064488    -0.062346016519
    C            3.080537726170     0.507350699519     1.398766726149
    H            3.689751389020     0.367542027912     0.518110699032
    H            3.556455111907     0.058588349226     2.255500766265
    H            2.936901417650     1.564930555641     1.563502123039

  Mulliken Charges: (a.u.)
   Center  Symbol    Alpha    Beta     Spin     Total
       1     O     4.19671  4.19671  0.00000 -0.39342
       2     C     2.80835  2.80835  0.00000  0.38330
       3     C     3.10001  3.10001  0.00000 -0.20001
       4     O     4.14696  4.14696  0.00000 -0.29392
       5     C     3.08821  3.08821  0.00000 -0.17643
       6     H     0.43882  0.43882  0.00000  0.12237
       7     H     0.43976  0.43976  0.00000  0.12048
       8     C     3.08987  3.08987  0.00000 -0.17974
       9     H     0.44318  0.44318  0.00000  0.11363
      10     H     0.44631  0.44631  0.00000  0.10739
      11     C     3.14670  3.14670  0.00000 -0.29340
      12     H     0.44966  0.44966  0.00000  0.10069
      13     H     0.45582  0.45582  0.00000  0.08837
      14     H     0.45250  0.45250  0.00000  0.09500
      15     H     0.44968  0.44968  0.00000  0.10065
      16     H     0.45580  0.45580  0.00000  0.08840
      17     C     3.03769  3.03769  0.00000 -0.07538
      18     H     0.45434  0.45434  0.00000  0.09132
      19     H     0.44530  0.44530  0.00000  0.10940
      20     H     0.45434  0.45434  0.00000  0.09132

   Total alpha = 32.00000, Total beta = 32.00000, Total charge = -0.00000
