  ==> Input File <==

--------------------------------------------------------------------------
set {
	reference rhf
	basis cc-pvtz
}

set_num_threads( 4 )
memory 2 gb

molecule MOL {
0 1

H	 -0.939693	 0.000281	 1.681345
O	 -0.046262	 -0.000157	 1.387678
C	 -0.000837	 0.000006	 -0.025491
C	 1.432453	 0.249239	 -0.491014
C	 -0.516886	 -1.337034	 -0.553850
C	 -0.913684	 1.138967	 -0.458697
H	 1.492816	 0.290826	 -1.572412
H	 2.090607	 -0.545519	 -0.152984
H	 1.800126	 1.184984	 -0.088943
H	 -0.527937	 -1.353487	 -1.637545
H	 0.114466	 -2.153632	 -0.216752
H	 -1.522544	 -1.518887	 -0.196013
H	 -0.944760	 1.219885	 -1.538870
H	 -0.559966	 2.077940	 -0.051972
H	 -1.919860	 0.971372	 -0.095742

	symmetry c1
}
set optking {
	frozen_dihedral = ("
		4 3 2 1
	")
}

ee = optimize('scf')
oeprop('DIPOLE', 'QUADRUPOLE', 'MULLIKEN_CHARGES')
f=open( 'psi4out.xyz', 'w' )
f.write( "15  " )
f.write( str(ee) + "\n" )
f.write( MOL.save_string_xyz() )
f.close()
--------------------------------------------------------------------------

    Molecular point group: c1
  Charge       = 0
  Multiplicity = 1
  Basis Set: CC-PVTZ
  Basis Set:
  @DF-RHF Final Energy:  -232.24459610085526
    Total Energy =                       -232.2445961008552331
    Molecular point group: c1
  Basis Set: CC-PVTZ
  Basis Set:
  Basis Set: CC-PVTZ
  Basis Set:
  @DF-RHF Final Energy:  -232.24626576478929
    Total Energy =                       -232.2462657647892001
  Basis Set: CC-PVTZ
  Basis Set:
  Basis Set: CC-PVTZ
  Basis Set:
  @DF-RHF Final Energy:  -232.24665933605348
    Total Energy =                       -232.2466593360533125
  Basis Set: CC-PVTZ
  Basis Set:
  Charge       = 0
  Multiplicity = 1
  Basis Set: CC-PVTZ
  Basis Set:

    Orbital Energies (a.u.)
    -----------------------

    Doubly Occupied:

       1A    -20.542065     2A    -11.280757     3A    -11.210981
       4A    -11.207731     5A    -11.203797     6A     -1.364917
       7A     -1.065203     8A     -0.942682     9A     -0.939918
      10A     -0.778507    11A     -0.672609    12A     -0.624300
      13A     -0.622869    14A     -0.576098    15A     -0.557581
      16A     -0.532721    17A     -0.517051    18A     -0.511275
      19A     -0.504657    20A     -0.458710    21A     -0.428661

  @DF-RHF Final Energy:  -232.24665939249573

   => Energetics <=

    Nuclear Repulsion Energy =            200.6836944000458800
    One-Electron Energy =                -712.7745234614396850
    Two-Electron Energy =                 279.8441696688982461
    DFT Exchange-Correlation Energy =       0.0000000000000000
    Empirical Dispersion Energy =           0.0000000000000000
    PCM Polarization Energy =               0.0000000000000000
    EFP Energy =                            0.0000000000000000
    Total Energy =                       -232.2466593924955873
    Molecular point group: c1
  Basis Set: CC-PVTZ
  Basis Set:

  -Total Gradient:
     Atom            X                  Y                   Z
    ------   -----------------  -----------------  -----------------
       1       -0.000041389468     0.000939579930     0.000033711717
       2        0.000079804330    -0.000981268548    -0.000325184685
       3        0.000107184706    -0.000603070701    -0.000193326449
       4       -0.000086179406     0.000486057689     0.000277951292
       5        0.000044778635    -0.000015654368     0.000150730451
       6       -0.000073122890     0.000120892597    -0.000020010219
       7       -0.000034860259     0.000091751067     0.000001030527
       8       -0.000028949974    -0.000016865677    -0.000022793022
       9        0.000085755363    -0.000051446468     0.000039192300
      10       -0.000118302259     0.000101954421     0.000046161551
      11        0.000113067841     0.000082616947    -0.000020309999
      12       -0.000021446938    -0.000101297456     0.000032302386
      13        0.000028125546    -0.000093807316     0.000040611402
      14        0.000032714401     0.000002253859    -0.000006425326
      15       -0.000087179627     0.000038304024    -0.000033641923

  **** Optimization is complete! (in 4 steps) ****
    Final optimized geometry and variables:
    Molecular point group: c1

    Geometry (in Angstrom), charge = 0, multiplicity = 1:

    H           -0.832976188013    -0.036939185186     1.736519667904
    O            0.039951061626    -0.040482442928     1.386994763841
    C           -0.002313146362    -0.001601402756    -0.025687194601
    C            1.434399686675     0.243962535164    -0.465876428726
    C           -0.511662562500    -1.340449886694    -0.555136725953
    C           -0.907312437295     1.141304542003    -0.481861364968
    H            1.506350320856     0.285299152352    -1.546403219729
    H            2.076401078083    -0.551059096434    -0.107927639532
    H            1.796685474160     1.179291469787    -0.058602255640
    H           -0.538418016904    -1.350576186528    -1.638794540206
    H            0.130485313988    -2.144212202571    -0.217778105204
    H           -1.516522170035    -1.538451766077    -0.195453323176
    H           -0.928602878093     1.215384877047    -1.562655156031
    H           -0.556270234724     2.083297732795    -0.079025633008
    H           -1.927301905827     0.985887970681    -0.142170750826

  Mulliken Charges: (a.u.)
   Center  Symbol    Alpha    Beta     Spin     Total
       1     H     0.39553  0.39553  0.00000  0.20895
       2     O     4.21133  4.21133  0.00000 -0.42265
       3     C     2.87840  2.87840  0.00000  0.24321
       4     C     3.14294  3.14294  0.00000 -0.28588
       5     C     3.14811  3.14811  0.00000 -0.29621
       6     C     3.15215  3.15215  0.00000 -0.30430
       7     H     0.45882  0.45882  0.00000  0.08236
       8     H     0.44786  0.44786  0.00000  0.10428
       9     H     0.44898  0.44898  0.00000  0.10203
      10     H     0.45640  0.45640  0.00000  0.08720
      11     H     0.44727  0.44727  0.00000  0.10547
      12     H     0.45545  0.45545  0.00000  0.08911
      13     H     0.45465  0.45465  0.00000  0.09070
      14     H     0.44591  0.44591  0.00000  0.10817
      15     H     0.45621  0.45621  0.00000  0.08758

   Total alpha = 21.00000, Total beta = 21.00000, Total charge = -0.00000
