                              Psi4 1.0.54 Driver

  ==> Input File <==

--------------------------------------------------------------------------
set {
	reference rhf
	basis cc-pvtz
}

set_num_threads( 4 )
memory 2 gb

molecule MOL {
0 1

H	 -0.726336	 0.067703	 -1.994615
C	 -0.413276	 -0.484933	 -1.134895
C	 -0.410675	 -1.865033	 -1.127785
C	 0.000000	 0.179985	 0.000046
H	 -0.728445	 -2.400759	 -2.000444
C	 0.000003	 -2.552036	 -0.000011
N	 0.000000	 1.644631	 0.000076
C	 0.413275	 -0.484980	 1.134961
H	 0.000000	 -3.625035	 -0.000032
C	 0.410677	 -1.865080	 1.127792
O	 1.050559	 2.194174	 -0.000073
O	 -1.050559	 2.194174	 -0.000074
H	 0.726343	 0.067622	 1.994700
H	 0.728443	 -2.400841	 2.000431

	symmetry c1
}
set optking {
	frozen_dihedral = ("
		2 4 7 11
	")
}

ee,wfn = optimize('scf', return_wfn=True)
oeprop( wfn, 'DIPOLE', 'QUADRUPOLE', 'MULLIKEN_CHARGES')
f=open( 'psi4out.xyz', 'w' )
f.write( "14  " )
f.write( str(ee) + "\n" )
f.write( MOL.save_string_xyz() )
f.close()
--------------------------------------------------------------------------

    Molecular point group: c1
  Charge       = 0
  Multiplicity = 1
  Basis Set: CC-PVTZ
  Basis Set:
  @DF-RHF Final Energy:  -434.32124814582386
    Total Energy =                       -434.3212481458235743
    Molecular point group: c1
  Basis Set: CC-PVTZ
  Basis Set:
  Basis Set: CC-PVTZ
  Basis Set:
  @DF-RHF Final Energy:  -434.31480321020547
    Total Energy =                       -434.3148032102055822
  Basis Set: CC-PVTZ
  Basis Set:
  Basis Set: CC-PVTZ
  Basis Set:
  @DF-RHF Final Energy:  -434.32055248072152
    Total Energy =                       -434.3205524807212896
  Basis Set: CC-PVTZ
  Basis Set:
  Basis Set: CC-PVTZ
  Basis Set:
  @DF-RHF Final Energy:  -434.32160420736801
    Total Energy =                       -434.3216042073684093
  Basis Set: CC-PVTZ
  Basis Set:
  Basis Set: CC-PVTZ
  Basis Set:
  @DF-RHF Final Energy:  -434.32161960412742
    Total Energy =                       -434.3216196041273633
  Basis Set: CC-PVTZ
  Basis Set:
  Basis Set: CC-PVTZ
  Basis Set:
  @DF-RHF Final Energy:  -434.32166592106751
    Total Energy =                       -434.3216659210678472
  Basis Set: CC-PVTZ
  Basis Set:
  Charge       = 0
  Multiplicity = 1
  Basis Set: CC-PVTZ
  Basis Set:

    Orbital Energies (a.u.)
    -----------------------

    Doubly Occupied:

       1A    -20.597706     2A    -20.597517     3A    -15.848092
       4A    -11.307377     5A    -11.267599     6A    -11.267458
       7A    -11.260853     8A    -11.260349     9A    -11.258717
      10A     -1.644993    11A     -1.428137    12A     -1.206453
      13A     -1.096761    14A     -1.056805    15A     -0.959302
      16A     -0.874293    17A     -0.831152    18A     -0.786444
      19A     -0.740639    20A     -0.737937    21A     -0.717737
      22A     -0.652832    23A     -0.650681    24A     -0.625952
      25A     -0.561238    26A     -0.551740    27A     -0.533743
      28A     -0.499860    29A     -0.486622    30A     -0.458715
      31A     -0.372225    32A     -0.370519

  @DF-RHF Final Energy:  -434.32166610981955

   => Energetics <=

    Nuclear Repulsion Energy =            417.4989857127499704
    One-Electron Energy =               -1418.6204055622588385
    Two-Electron Energy =                 566.7997537396895495
    DFT Exchange-Correlation Energy =       0.0000000000000000
    Empirical Dispersion Energy =           0.0000000000000000
    PCM Polarization Energy =               0.0000000000000000
    EFP Energy =                            0.0000000000000000
    Total Energy =                       -434.3216661098192617
    Molecular point group: c1
  Basis Set: CC-PVTZ
  Basis Set:

  -Total Gradient:
     Atom            X                  Y                   Z
    ------   -----------------  -----------------  -----------------
       1       -0.000003711657    -0.000002184303     0.000007197436
       2        0.003837498063    -0.000142507183    -0.001231617474
       3       -0.000037674441     0.000013671823     0.000004889282
       4       -0.005402151818     0.000209739383     0.000055010839
       5       -0.000003883192     0.000001534509     0.000000756534
       6        0.000004729613    -0.000000501750     0.000009747204
       7        0.001470409922     0.000073677994     0.005696596495
       8        0.000033140746    -0.000015362339     0.000002660180
       9        0.000006161832     0.000000728965    -0.000003130860
      10        0.000000216331    -0.000002213235     0.000008208385
      11        0.000189684461    -0.000133810725    -0.004547501759
      12       -0.000080462557    -0.000001336408    -0.000002192074
      13       -0.000007216193    -0.000002367980    -0.000004264611
      14       -0.000006741109     0.000000931252     0.000003640423

  **** Optimization is complete! (in 7 steps) ****
    Final optimized geometry and variables:
    Molecular point group: c1

    Geometry (in Angstrom), charge = 0, multiplicity = 1:

    H           -0.716478935090     0.078002776007    -1.994411964424
    C           -0.411930817724    -0.475743727969    -1.128992430318
    C           -0.402807605986    -1.857031248312    -1.125505860005
    C           -0.027206801270     0.178838164595     0.016442966397
    H           -0.694891034166    -2.391215576726    -2.008208134456
    C           -0.019888965260    -2.546490077766     0.009922349673
    N            0.016839645426     1.642647674431    -0.001422050334
    C            0.385036740834    -0.479399948634     1.150195279187
    H           -0.020870069937    -3.619132477952     0.008555572530
    C            0.369504232860    -1.860513697230     1.145389206279
    O            1.086455486513     2.150052559151     0.037037884344
    O           -1.017244697453     2.214138507654    -0.088951573982
    H            0.707071762353     0.071525088473     2.011113388065
    H            0.670288845823    -2.397452582548     2.023483942642

  Mulliken Charges: (a.u.)
   Center  Symbol    Alpha    Beta     Spin     Total
       1     H     0.41209  0.41209  0.00000  0.17581
       2     C     3.08641  3.08641  0.00000 -0.17282
       3     C     3.06529  3.06529  0.00000 -0.13059
       4     C     2.92594  2.92594  0.00000  0.14811
       5     H     0.41734  0.41734  0.00000  0.16533
       6     C     3.07584  3.07584  0.00000 -0.15168
       7     N     3.28878  3.28878  0.00000  0.42245
       8     C     3.08633  3.08633  0.00000 -0.17267
       9     H     0.41789  0.41789  0.00000  0.16421
      10     C     3.06480  3.06480  0.00000 -0.12960
      11     O     4.16367  4.16367  0.00000 -0.32734
      12     O     4.16511  4.16511  0.00000 -0.33021
      13     H     0.41315  0.41315  0.00000  0.17371
      14     H     0.41735  0.41735  0.00000  0.16530

   Total alpha = 32.00000, Total beta = 32.00000, Total charge =  0.00000

*** Psi4 exiting successfully. Buy a developer a beer!
