  ==> Input File <==

--------------------------------------------------------------------------
set {
	reference rhf
	basis 6-31G*
}

set_num_threads( 4 )
memory 2 gb

molecule MOL {
0 1

O	 0.074228	 1.262779	 -0.000085
C	 0.028650	 0.075053	 -0.000277
C	 -1.233602	 -0.752807	 0.000328
O	 1.109162	 -0.694619	 -0.000298
C	 -2.501530	 0.091881	 0.000126
H	 -1.193807	 -1.406641	 -0.865785
H	 -1.193516	 -1.405779	 0.867015
H	 -2.545121	 0.729328	 -0.874513
H	 -3.377167	 -0.548497	 0.000561
H	 -2.544818	 0.730135	 0.874258
C	 0.944416	 -2.033487	 -0.431435
H	 0.240917	 -2.552924	 0.203141
H	 1.919856	 -2.488694	 -0.359565
H	 0.591387	 -2.063200	 -1.452199

	symmetry c1
}
set optking {
	frozen_dihedral = ("
		11 4 2 3
	")
}

ee = optimize('scf')
oeprop('DIPOLE', 'QUADRUPOLE', 'MULLIKEN_CHARGES')
f=open( 'psi4out.xyz', 'w' )
f.write( "14  " )
f.write( str(ee) + "\n" )
f.write( MOL.save_string_xyz() )
f.close()
--------------------------------------------------------------------------

    Molecular point group: c1
  Charge       = 0
  Multiplicity = 1
  Basis Set: 6-31G*
  Basis Set:
  @DF-RHF Final Energy:  -305.84584881663284
    Total Energy =                       -305.8458488166327243
    Molecular point group: c1
  Basis Set: 6-31G*
  Basis Set:
  Basis Set: 6-31G*
  Basis Set:
  @DF-RHF Final Energy:  -305.84504834535016
    Total Energy =                       -305.8450483453500510
  Basis Set: 6-31G*
  Basis Set:
  Basis Set: 6-31G*
  Basis Set:
  @DF-RHF Final Energy:  -305.85376033297018
    Total Energy =                       -305.8537603329702392
  Basis Set: 6-31G*
  Basis Set:
  Basis Set: 6-31G*
  Basis Set:
  @DF-RHF Final Energy:  -305.85536028098539
    Total Energy =                       -305.8553602809853373
  Basis Set: 6-31G*
  Basis Set:
  @DF-RHF Final Energy:  -305.85553041229412
    Total Energy =                       -305.8555304122938878
  Basis Set: 6-31G*
  Basis Set:
  @DF-RHF Final Energy:  -305.85632127104930
    Total Energy =                       -305.8563212710494099
  Basis Set: 6-31G*
  Basis Set:
  Basis Set: 6-31G*
  Basis Set:
  @DF-RHF Final Energy:  -305.85638388506959
    Total Energy =                       -305.8563838850696470
  Basis Set: 6-31G*
  Basis Set:
  Basis Set: 6-31G*
  Basis Set:
  @DF-RHF Final Energy:  -305.85638739177921
    Total Energy =                       -305.8563873917791511
  Basis Set: 6-31G*
  Basis Set:
  Charge       = 0
  Multiplicity = 1
  Basis Set: 6-31G*
  Basis Set:

    Orbital Energies (a.u.)
    -----------------------

    Doubly Occupied:

       1A    -20.601961     2A    -20.541600     3A    -11.374615
       4A    -11.297217     5A    -11.248938     6A    -11.221042
       7A     -1.463674     8A     -1.366267     9A     -1.063602
      10A     -0.987008    11A     -0.899687    12A     -0.768698
      13A     -0.705670    14A     -0.687758    15A     -0.673010
      16A     -0.626660    17A     -0.605180    18A     -0.558965
      19A     -0.553035    20A     -0.526540    21A     -0.510633
      22A     -0.502012    23A     -0.448772    24A     -0.433197

  @DF-RHF Final Energy:  -305.85638807309829

   => Energetics <=

    Nuclear Repulsion Energy =            247.5222881186275856
    One-Electron Energy =                -907.4258686649774290
    Two-Electron Energy =                 354.0471924732515845
    DFT Exchange-Correlation Energy =       0.0000000000000000
    Empirical Dispersion Energy =           0.0000000000000000
    PCM Polarization Energy =               0.0000000000000000
    EFP Energy =                            0.0000000000000000
    Total Energy =                       -305.8563880730982874
    Molecular point group: c1
  Basis Set: 6-31G*
  Basis Set:

  -Total Gradient:
     Atom            X                  Y                   Z
    ------   -----------------  -----------------  -----------------
       1       -0.000055695304     0.000015696982     0.000000721557
       2        0.000168980422     0.000231924223    -0.002917735300
       3       -0.000001828104     0.000018705461     0.001349906362
       4       -0.000446903653    -0.000689760819     0.003077997512
       5        0.000014059141    -0.000004871683    -0.000003068269
       6       -0.000003967262     0.000019005775     0.000018572265
       7        0.000022508335    -0.000004538981     0.000003574993
       8       -0.000001421321     0.000003979033    -0.000007855624
       9        0.000008771259     0.000000899728    -0.000001530598
      10        0.000003432196     0.000001814643     0.000009123743
      11        0.000293640578     0.000457220894    -0.001555536080
      12       -0.000019904399     0.000025055841     0.000015267941
      13       -0.000003342894    -0.000013377949     0.000002518802
      14        0.000021671003    -0.000061753149     0.000008042695

  **** Optimization is complete! (in 9 steps) ****
    Final optimized geometry and variables:
    Molecular point group: c1

    Geometry (in Angstrom), charge = 0, multiplicity = 1:

    O            0.313873385413     1.556555206704     0.084611430280
    C            0.235188871036     0.376312072876     0.044985946673
    C           -1.086230307127    -0.368250889765     0.057339956302
    O            1.356535497564    -0.351382018547     0.051576864397
    C           -2.282032267949     0.574859576349     0.121140316136
    H           -1.150246912310    -1.000142036758    -0.823765880527
    H           -1.082510792278    -1.041137893211     0.910766417845
    H           -2.299297220484     1.237420622016    -0.734894012516
    H           -3.204467763650     0.004167612706     0.134017322517
    H           -2.244364340529     1.189227576232     1.011523714229
    C            1.386713828513    -1.704380858017    -0.336935338892
    H            0.796394792135    -2.328484051066     0.321977681426
    H            2.420718024726    -2.005091699935    -0.272260022710
    H            1.046780911659    -1.829899929549    -1.357714916060

  Mulliken Charges: (a.u.)
   Center  Symbol    Alpha    Beta     Spin     Total
       1     O     4.26549  4.26549  0.00000 -0.53098
       2     C     2.60246  2.60246  0.00000  0.79507
       3     C     3.22975  3.22975  0.00000 -0.45950
       4     O     4.30213  4.30213  0.00000 -0.60426
       5     C     3.23469  3.23469  0.00000 -0.46938
       6     H     0.40508  0.40508  0.00000  0.18985
       7     H     0.40195  0.40195  0.00000  0.19610
       8     H     0.40756  0.40756  0.00000  0.18487
       9     H     0.41898  0.41898  0.00000  0.16203
      10     H     0.40653  0.40653  0.00000  0.18694
      11     C     3.09427  3.09427  0.00000 -0.18854
      12     H     0.41739  0.41739  0.00000  0.16523
      13     H     0.39790  0.39790  0.00000  0.20420
      14     H     0.41581  0.41581  0.00000  0.16837

   Total alpha = 24.00000, Total beta = 24.00000, Total charge = -0.00000
