                              Psi4 1.0.54 Driver

  ==> Input File <==

--------------------------------------------------------------------------
set {
	reference rhf
	basis cc-pvtz
}

set_num_threads( 4 )
memory 2 gb

molecule MOL {
0 1

O	 -2.374409	 1.338660	 -0.336961
C	 -2.104891	 0.204655	 -0.107126
C	 -0.881910	 -0.448129	 -0.720509
C	 -2.949910	 -0.638219	 0.818225
C	 -1.241864	 -1.789822	 -1.370998
H	 -0.164107	 -0.610410	 0.073554
H	 -0.433376	 0.210249	 -1.456865
C	 -0.026430	 -2.480612	 -1.985842
H	 -1.696474	 -2.421140	 -0.618007
H	 -1.991519	 -1.633482	 -2.142927
C	 -0.336902	 -3.797083	 -2.700280
H	 0.712797	 -2.659732	 -1.209030
H	 0.437763	 -1.802666	 -2.696839
C	 -0.818694	 -4.920489	 -1.785559
H	 0.561451	 -4.126450	 -3.212906
H	 -1.078223	 -3.618672	 -3.474843
H	 -0.098792	 -5.116335	 -0.997540
H	 -0.952775	 -5.839055	 -2.345050
H	 -1.766050	 -4.684939	 -1.316185
H	 -3.440322	 -1.417144	 0.243099
H	 -3.694377	 -0.025850	 1.303346
H	 -2.331085	 -1.129829	 1.560495

	symmetry c1
}
set optking {
	frozen_dihedral = ("
		6 3 2 1
	")
}

ee,wfn = optimize('scf', return_wfn=True)
oeprop( wfn, 'DIPOLE', 'QUADRUPOLE', 'MULLIKEN_CHARGES')
f=open( 'psi4out.xyz', 'w' )
f.write( "22  " )
f.write( str(ee) + "\n" )
f.write( MOL.save_string_xyz() )
f.close()
--------------------------------------------------------------------------

    Molecular point group: c1
  Charge       = 0
  Multiplicity = 1
  Basis Set: CC-PVTZ
  Basis Set:
  @DF-RHF Final Energy:  -348.22122616702313
    Total Energy =                       -348.2212261670230191
    Molecular point group: c1
  Basis Set: CC-PVTZ
  Basis Set:
  Basis Set: CC-PVTZ
  Basis Set:
  @DF-RHF Final Energy:  -348.22147925897769
    Total Energy =                       -348.2214792589778654
  Basis Set: CC-PVTZ
  Basis Set:
  Basis Set: CC-PVTZ
  Basis Set:
  @DF-RHF Final Energy:  -348.22236190088506
    Total Energy =                       -348.2223619008849482
  Basis Set: CC-PVTZ
  Basis Set:
  Basis Set: CC-PVTZ
  Basis Set:
  @DF-RHF Final Energy:  -348.22229627847520
    Total Energy =                       -348.2222962784752553
  Basis Set: CC-PVTZ
  Basis Set:
  @DF-RHF Final Energy:  -348.22283687997088
    Total Energy =                       -348.2228368799707710
  Basis Set: CC-PVTZ
  Basis Set:
  @DF-RHF Final Energy:  -348.22282618593550
    Total Energy =                       -348.2228261859352187
  Basis Set: CC-PVTZ
  Basis Set:
  Basis Set: CC-PVTZ
  Basis Set:
  @DF-RHF Final Energy:  -348.22284486096868
    Total Energy =                       -348.2228448609685643
  Basis Set: CC-PVTZ
  Basis Set:
  Basis Set: CC-PVTZ
  Basis Set:
  @DF-RHF Final Energy:  -348.22284799249110
    Total Energy =                       -348.2228479924913813
  Basis Set: CC-PVTZ
  Basis Set:
  Charge       = 0
  Multiplicity = 1
  Basis Set: CC-PVTZ
  Basis Set:

    Orbital Energies (a.u.)
    -----------------------

    Doubly Occupied:

       1A    -20.536925     2A    -11.319271     3A    -11.229865
       4A    -11.228261     5A    -11.226110     6A    -11.222582
       7A    -11.221122     8A    -11.213450     9A     -1.396739
      10A     -1.100151    11A     -1.047359    12A     -0.997901
      13A     -0.941768    14A     -0.863622    15A     -0.789872
      16A     -0.733658    17A     -0.662802    18A     -0.650471
      19A     -0.630057    20A     -0.623501    21A     -0.599362
      22A     -0.589554    23A     -0.555157    24A     -0.548129
      25A     -0.539241    26A     -0.516746    27A     -0.502644
      28A     -0.492063    29A     -0.474600    30A     -0.467725
      31A     -0.465878    32A     -0.398890

  @DF-RHF Final Energy:  -348.22284754215008

   => Energetics <=

    Nuclear Repulsion Energy =            373.5058480163556283
    One-Electron Energy =               -1211.8864475377813505
    Two-Electron Energy =                 490.1577519792755311
    DFT Exchange-Correlation Energy =       0.0000000000000000
    Empirical Dispersion Energy =           0.0000000000000000
    PCM Polarization Energy =               0.0000000000000000
    EFP Energy =                            0.0000000000000000
    Total Energy =                       -348.2228475421501344
    Molecular point group: c1
  Basis Set: CC-PVTZ
  Basis Set:

  -Total Gradient:
     Atom            X                  Y                   Z
    ------   -----------------  -----------------  -----------------
       1        0.000307864566     0.000128193833     0.000472441419
       2       -0.000391253308    -0.000081786958    -0.000661622429
       3       -0.000203539479    -0.000530696556     0.000320051934
       4       -0.000080401752    -0.000001997174    -0.000035940610
       5       -0.000001278893     0.000004401488    -0.000023763001
       6        0.000283937367     0.000447809192    -0.000138621295
       7       -0.000021648828     0.000008148175     0.000030735751
       8       -0.000015090897    -0.000008549772     0.000022603906
       9        0.000050853847     0.000062647938    -0.000059899849
      10        0.000025630420    -0.000006820437     0.000021968552
      11       -0.000015336797    -0.000006177637     0.000007466509
      12       -0.000029772925    -0.000008058335    -0.000015065337
      13       -0.000000324437    -0.000011895498     0.000033858039
      14        0.000000952193    -0.000037565018    -0.000001041475
      15       -0.000053960795     0.000013558393     0.000010331917
      16        0.000026636159    -0.000000167910     0.000056439366
      17       -0.000033451754     0.000014209195    -0.000022767758
      18        0.000008750010     0.000005575359     0.000021999493
      19        0.000069433379    -0.000038997201    -0.000063086883
      20        0.000053955386     0.000042706298     0.000051930376
      21        0.000012687644    -0.000013788589    -0.000009198817
      22        0.000005358894     0.000019251223    -0.000018819809

  **** Optimization is complete! (in 9 steps) ****
    Final optimized geometry and variables:
    Molecular point group: c1

    Geometry (in Angstrom), charge = 0, multiplicity = 1:

    O           -0.875659391935     2.985691364499     0.582114248645
    C           -0.680425640500     1.854423549016     0.888226075006
    C            0.465581401306     1.067183140853     0.284332654443
    C           -1.555890399465     1.163793558262     1.910214975208
    C            0.071925743392    -0.282617447622    -0.320965438972
    H            1.201510519398     0.911819183048     1.070579826356
    H            0.922226435698     1.700940960047    -0.463653522296
    C            1.259493188457    -0.981547071306    -0.980550530904
    H           -0.349526322794    -0.920098711232     0.446789283502
    H           -0.708351736979    -0.129110795787    -1.062081343343
    C            0.918250730168    -2.299746692912    -1.677182648096
    H            2.029921039140    -1.159542351659    -0.233812513252
    H            1.695594859365    -0.307301113613    -1.711430779223
    C            0.477932529611    -3.422717945925    -0.741263458268
    H            1.793235322724    -2.629693994654    -2.227963913492
    H            0.143894446085    -2.122893770336    -2.418643129891
    H            1.229645738206    -3.614691128357     0.017610227292
    H            0.324532087052    -4.343144318733    -1.292434380270
    H           -0.451414617525    -3.190269268804    -0.235318788504
    H           -2.209930833212     0.456672815468     1.412493619620
    H           -2.157752184178     1.898890391120     2.421922289044
    H           -0.959492778803     0.607769085254     2.624260348243

  Mulliken Charges: (a.u.)
   Center  Symbol    Alpha    Beta     Spin     Total
       1     O     4.17226  4.17226  0.00000 -0.34451
       2     C     2.85735  2.85735  0.00000  0.28531
       3     C     3.09721  3.09721  0.00000 -0.19441
       4     C     3.16642  3.16642  0.00000 -0.33284
       5     C     3.10761  3.10761  0.00000 -0.21523
       6     H     0.44763  0.44763  0.00000  0.10474
       7     H     0.43796  0.43796  0.00000  0.12408
       8     C     3.09735  3.09735  0.00000 -0.19470
       9     H     0.44819  0.44819  0.00000  0.10362
      10     H     0.44632  0.44632  0.00000  0.10736
      11     C     3.09019  3.09019  0.00000 -0.18037
      12     H     0.45272  0.45272  0.00000  0.09455
      13     H     0.44487  0.44487  0.00000  0.11026
      14     C     3.15298  3.15298  0.00000 -0.30596
      15     H     0.44678  0.44678  0.00000  0.10643
      16     H     0.45301  0.45301  0.00000  0.09398
      17     H     0.45430  0.45430  0.00000  0.09139
      18     H     0.44463  0.44463  0.00000  0.11075
      19     H     0.45485  0.45485  0.00000  0.09030
      20     H     0.44713  0.44713  0.00000  0.10574
      21     H     0.43153  0.43153  0.00000  0.13695
      22     H     0.44872  0.44872  0.00000  0.10257

   Total alpha = 32.00000, Total beta = 32.00000, Total charge =  0.00000

*** Psi4 exiting successfully. Buy a developer a beer!
