  ==> Input File <==

--------------------------------------------------------------------------
set {
	reference rhf
	basis 6-31G*
}

set_num_threads( 4 )
memory 2 gb

molecule MOL {
0 1

O	 0.218191	 1.042791	 -0.663849
C	 0.028650	 0.075053	 -0.000277
C	 -1.233602	 -0.752807	 0.000328
O	 0.925059	 -0.413295	 0.846995
C	 -2.501530	 0.091881	 0.000126
H	 -1.193807	 -1.406641	 -0.865785
H	 -1.193516	 -1.405779	 0.867015
H	 -2.545121	 0.729328	 -0.874513
H	 -3.377167	 -0.548497	 0.000561
H	 -2.544818	 0.730135	 0.874258
C	 2.159292	 0.274386	 0.943703
H	 2.664775	 0.283444	 -0.011189
H	 2.743079	 -0.268124	 1.670846
H	 2.002664	 1.291640	 1.272541

	symmetry c1
}
set optking {
	frozen_dihedral = ("
		4 2 3 6
	")
}

ee = optimize('scf')
oeprop('DIPOLE', 'QUADRUPOLE', 'MULLIKEN_CHARGES')
f=open( 'psi4out.xyz', 'w' )
f.write( "14  " )
f.write( str(ee) + "\n" )
f.write( MOL.save_string_xyz() )
f.close()
--------------------------------------------------------------------------

    Molecular point group: c1
  Charge       = 0
  Multiplicity = 1
  Basis Set: 6-31G*
  Basis Set:
  @DF-RHF Final Energy:  -305.87054252791802
    Total Energy =                       -305.8705425279182464
    Molecular point group: c1
  Basis Set: 6-31G*
  Basis Set:
  Basis Set: 6-31G*
  Basis Set:
  @DF-RHF Final Energy:  -305.87094101690224
    Total Energy =                       -305.8709410169024068
  Basis Set: 6-31G*
  Basis Set:
  Basis Set: 6-31G*
  Basis Set:
  @DF-RHF Final Energy:  -305.87093887159762
    Total Energy =                       -305.8709388715975024
  Basis Set: 6-31G*
  Basis Set:
  Basis Set: 6-31G*
  Basis Set:
  @DF-RHF Final Energy:  -305.87103407995443
    Total Energy =                       -305.8710340799545975
  Basis Set: 6-31G*
  Basis Set:
  Charge       = 0
  Multiplicity = 1
  Basis Set: 6-31G*
  Basis Set:

    Orbital Energies (a.u.)
    -----------------------

    Doubly Occupied:

       1A    -20.606591     2A    -20.544133     3A    -11.372860
       4A    -11.281558     5A    -11.237930     6A    -11.220039
       7A     -1.470775     8A     -1.362981     9A     -1.064258
      10A     -0.980378    11A     -0.879359    12A     -0.771091
      13A     -0.699645    14A     -0.681634    15A     -0.672265
      16A     -0.619399    17A     -0.601996    18A     -0.554636
      19A     -0.538459    20A     -0.517998    21A     -0.512770
      22A     -0.497752    23A     -0.456452    24A     -0.437564

  @DF-RHF Final Energy:  -305.87103469495412

   => Energetics <=

    Nuclear Repulsion Energy =            247.1908992943411647
    One-Electron Energy =                -906.9588213197190498
    Two-Electron Energy =                 353.8968873304237377
    DFT Exchange-Correlation Energy =       0.0000000000000000
    Empirical Dispersion Energy =           0.0000000000000000
    PCM Polarization Energy =               0.0000000000000000
    EFP Energy =                            0.0000000000000000
    Total Energy =                       -305.8710346949541190
    Molecular point group: c1
  Basis Set: 6-31G*
  Basis Set:

  -Total Gradient:
     Atom            X                  Y                   Z
    ------   -----------------  -----------------  -----------------
       1       -0.000013510384    -0.000053457979     0.000127096270
       2        0.000328533597    -0.000449173313    -0.001247750900
       3        0.000487262092    -0.000738825946     0.000885974865
       4       -0.000316791329     0.000560449202     0.000862639953
       5        0.000022332152    -0.000009329893     0.000029080937
       6       -0.000499611312     0.000747932099    -0.000570946482
       7        0.000016495896     0.000016023132    -0.000004886288
       8       -0.000001572339    -0.000007713921     0.000001537582
       9       -0.000011217405     0.000000229389     0.000003475702
      10       -0.000015048242     0.000010881261    -0.000000201150
      11        0.000013234388    -0.000157586261    -0.000168821572
      12        0.000032187952     0.000030435050     0.000040777240
      13        0.000002924916     0.000024461499     0.000026679084
      14       -0.000045219985     0.000025675677     0.000015344759

  **** Optimization is complete! (in 5 steps) ****
    Final optimized geometry and variables:
    Molecular point group: c1

    Geometry (in Angstrom), charge = 0, multiplicity = 1:

    O            0.227708599081     0.983732862727    -0.825344699719
    C            0.064843199701     0.006880149790    -0.166541560545
    C           -1.192135419790    -0.831375240385    -0.175165552508
    O            0.985451979304    -0.476295645420     0.654862701430
    C           -2.455089309132     0.027321105448    -0.231901495950
    H           -1.138893152579    -1.457728934783    -1.062070780356
    H           -1.191833900597    -1.487223911680     0.685294621382
    H           -2.434312387761     0.682029673793    -1.093247832400
    H           -3.334588603968    -0.603762315377    -0.297941489830
    H           -2.550664637935     0.642986871095     0.656374579182
    C            2.221677904327     0.213094590200     0.709568588731
    H            2.697546033511     0.217615217185    -0.260430051652
    H            2.827891827584    -0.324609271624     1.421748675192
    H            2.072781024726     1.231829087921     1.037093120605

  Mulliken Charges: (a.u.)
   Center  Symbol    Alpha    Beta     Spin     Total
       1     O     4.28608  4.28608  0.00000 -0.57217
       2     C     2.60676  2.60676  0.00000  0.78648
       3     C     3.20618  3.20618  0.00000 -0.41236
       4     O     4.30457  4.30457  0.00000 -0.60914
       5     C     3.24482  3.24482  0.00000 -0.48964
       6     H     0.39995  0.39995  0.00000  0.20011
       7     H     0.39983  0.39983  0.00000  0.20034
       8     H     0.40216  0.40216  0.00000  0.19567
       9     H     0.41571  0.41571  0.00000  0.16859
      10     H     0.41528  0.41528  0.00000  0.16945
      11     C     3.09344  3.09344  0.00000 -0.18688
      12     H     0.40881  0.40881  0.00000  0.18238
      13     H     0.40828  0.40828  0.00000  0.18345
      14     H     0.40813  0.40813  0.00000  0.18373

   Total alpha = 24.00000, Total beta = 24.00000, Total charge = -0.00000
