  ==> Input File <==

--------------------------------------------------------------------------
set {
	reference rhf
	basis cc-pvtz
}

set_num_threads( 4 )
memory 2 gb

molecule MOL {
0 1

H	 1.284247	 0.280450	 0.994011
C	 0.848385	 0.440008	 0.000011
C	 -0.623497	 0.751021	 0.000090
O	 1.526213	 0.362294	 -0.965263
C	 -1.523725	 -0.474323	 -0.000013
H	 -0.813143	 1.382932	 -0.864897
H	 -0.813071	 1.382716	 0.865253
H	 -1.342980	 -1.087348	 -0.873016
H	 -2.565269	 -0.177464	 0.000070
H	 -1.342898	 -1.087564	 0.872820

	symmetry c1
}
set optking {
	frozen_dihedral = ("
		4 2 3 6
	")
}

ee = optimize('scf')
oeprop('DIPOLE', 'QUADRUPOLE', 'MULLIKEN_CHARGES')
f=open( 'psi4out.xyz', 'w' )
f.write( "10  " )
f.write( str(ee) + "\n" )
f.write( MOL.save_string_xyz() )
f.close()
--------------------------------------------------------------------------

    Molecular point group: c1
  Charge       = 0
  Multiplicity = 1
  Basis Set: CC-PVTZ
  Basis Set:
  @DF-RHF Final Energy:  -192.02148222587681
    Total Energy =                       -192.0214822258767526
    Molecular point group: c1
  Basis Set: CC-PVTZ
  Basis Set:
  Basis Set: CC-PVTZ
  Basis Set:
  @DF-RHF Final Energy:  -192.02167081243960
    Total Energy =                       -192.0216708124397087
  Basis Set: CC-PVTZ
  Basis Set:
  Basis Set: CC-PVTZ
  Basis Set:
  @DF-RHF Final Energy:  -192.02152274825562
    Total Energy =                       -192.0215227482556202
  Basis Set: CC-PVTZ
  Basis Set:
  Basis Set: CC-PVTZ
  Basis Set:
  @DF-RHF Final Energy:  -192.02240401686515
    Total Energy =                       -192.0224040168651243
  Basis Set: CC-PVTZ
  Basis Set:
  Basis Set: CC-PVTZ
  Basis Set:
  @DF-RHF Final Energy:  -192.02240939722157
    Total Energy =                       -192.0224093972216508
  Basis Set: CC-PVTZ
  Basis Set:
  Charge       = 0
  Multiplicity = 1
  Basis Set: CC-PVTZ
  Basis Set:

    Orbital Energies (a.u.)
    -----------------------

    Doubly Occupied:

       1A    -20.553491     2A    -11.322760     3A    -11.237634
       4A    -11.231567     5A     -1.408531     6A     -1.065870
       7A     -0.905393     8A     -0.790369     9A     -0.683327
      10A     -0.643536    11A     -0.606569    12A     -0.578065
      13A     -0.543077    14A     -0.510348    15A     -0.500609
      16A     -0.414460

  @DF-RHF Final Energy:  -192.02240971581483

   => Energetics <=

    Nuclear Repulsion Energy =            118.2612505177514350
    One-Electron Energy =                -494.5761102401910989
    Two-Electron Energy =                 184.2924500066248186
    DFT Exchange-Correlation Energy =       0.0000000000000000
    Empirical Dispersion Energy =           0.0000000000000000
    PCM Polarization Energy =               0.0000000000000000
    EFP Energy =                            0.0000000000000000
    Total Energy =                       -192.0224097158148595
    Molecular point group: c1
  Basis Set: CC-PVTZ
  Basis Set:

  -Total Gradient:
     Atom            X                  Y                   Z
    ------   -----------------  -----------------  -----------------
       1        0.000006794140    -0.000003751364    -0.000020168437
       2        0.000613163018     0.002521000729     0.000272052367
       3       -0.000567725168    -0.002225621535    -0.000990939146
       4       -0.000372733074    -0.001546458985    -0.000052848976
       5        0.000012592857     0.000008719486     0.000012376387
       6        0.000314753592     0.001254201655     0.000793447322
       7       -0.000004628186    -0.000012355783    -0.000011932737
       8        0.000002201616     0.000000694823    -0.000000891679
       9       -0.000001793721     0.000009513025    -0.000001484710
      10       -0.000002625073    -0.000005942052     0.000000389612

  **** Optimization is complete! (in 6 steps) ****
    Final optimized geometry and variables:
    Molecular point group: c1

    Geometry (in Angstrom), charge = 0, multiplicity = 1:

    H            1.221678794201    -0.000306271632     1.247405734870
    C            0.785138429518     0.181384872512     0.257045706274
    C           -0.676366693524     0.545559911176     0.242615473623
    O            1.444537225113     0.043079415023    -0.714471075249
    C           -1.543828333454    -0.716704609158     0.245249574033
    H           -0.871276898285     1.146376765514    -0.635835744674
    H           -0.898229335071     1.144392155087     1.120029135898
    H           -1.359298891834    -1.308544627645    -0.642005416463
    H           -2.593175359804    -0.452820522174     0.267514758122
    H           -1.338579289219    -1.334727081339     1.112541243644

  Mulliken Charges: (a.u.)
   Center  Symbol    Alpha    Beta     Spin     Total
       1     H     0.46231  0.46231  0.00000  0.07538
       2     C     2.90286  2.90286  0.00000  0.19428
       3     C     3.08091  3.08091  0.00000 -0.16182
       4     O     4.16684  4.16684  0.00000 -0.33367
       5     C     3.14696  3.14696  0.00000 -0.29393
       6     H     0.44284  0.44284  0.00000  0.11432
       7     H     0.45281  0.45281  0.00000  0.09439
       8     H     0.44441  0.44441  0.00000  0.11118
       9     H     0.44609  0.44609  0.00000  0.10782
      10     H     0.45397  0.45397  0.00000  0.09206

   Total alpha = 16.00000, Total beta = 16.00000, Total charge = -0.00000
