  ==> Input File <==

--------------------------------------------------------------------------
set {
	reference rhf
	basis 6-31G*
}

set_num_threads( 1 )
memory 2 gb

molecule MOL {
0 1

H	 -4.031818	 -0.453427	 -0.000094
C	 -2.967712	 -0.297022	 -0.000064
C	 -2.458620	 0.992929	 0.000032
C	 -2.109895	 -1.385637	 -0.000122
H	 -3.124998	 1.836319	 0.000077
C	 -1.090278	 1.193236	 0.000070
H	 -2.506361	 -2.384847	 -0.000198
C	 -0.739812	 -1.187531	 -0.000085
H	 -0.678594	 2.184290	 0.000146
C	 -0.226438	 0.104061	 0.000012
H	 -0.072310	 -2.027032	 -0.000131
C	 1.239129	 0.373821	 0.000060
O	 1.918686	 -0.450268	 -0.783318
O	 1.756682	 1.238510	 0.635128
C	 3.321756	 -0.264632	 -0.843371
H	 3.557276	 0.721693	 -1.215512
H	 3.689103	 -1.019078	 -1.521398
H	 3.762429	 -0.391710	 0.134677

	symmetry c1
}
set optking {
	frozen_dihedral = ("
		12 13 15 16,
		10 12 13 15
	")
}

ee = energy('scf')
oeprop('DIPOLE', 'QUADRUPOLE', 'MULLIKEN_CHARGES')
f=open( 'psi4out.xyz', 'w' )
f.write( "18  " )
f.write( str(ee) + "\n" )
f.write( MOL.save_string_xyz() )
f.close()
--------------------------------------------------------------------------

    Molecular point group: c1

    Geometry (in Angstrom), charge = 0, multiplicity = 1:

       Center              X                  Y                   Z               Mass
    ------------   -----------------  -----------------  -----------------  -----------------
           H         -4.024498307949    -0.493211438529     0.111000668248     1.007825032070
           C         -2.960392307949    -0.336806438529     0.111030668248    12.000000000000
           C         -2.451300307949     0.953144561471     0.111126668248    12.000000000000
           C         -2.102575307949    -1.425421438529     0.110972668248    12.000000000000
           H         -3.117678307949     1.796534561471     0.111171668248     1.007825032070
           C         -1.082958307949     1.153451561471     0.111164668248    12.000000000000
           H         -2.499041307949    -2.424631438529     0.110896668248     1.007825032070
           C         -0.732492307949    -1.227315438529     0.111009668248    12.000000000000
           H         -0.671274307949     2.144505561471     0.111240668248     1.007825032070
           C         -0.219118307949     0.064276561471     0.111106668248    12.000000000000
           H         -0.064990307949    -2.066816438529     0.110963668248     1.007825032070
           C          1.246448692051     0.334036561471     0.111154668248    12.000000000000
           O          1.926005692051    -0.490052438529    -0.672223331752    15.994914619560
           O          1.764001692051     1.198725561471     0.746222668248    15.994914619560
           C          3.329075692051    -0.304416438529    -0.732276331752    12.000000000000
           H          3.564595692051     0.681908561471    -1.104417331752     1.007825032070
           H          3.696422692051    -1.058862438529    -1.410303331752     1.007825032070
           H          3.769748692051    -0.431494438529     0.245771668248     1.007825032070

  Charge       = 0
  Multiplicity = 1
  Basis Set: 6-31G*
  Basis Set:

    Orbital Energies (a.u.)
    -----------------------

    Doubly Occupied:

       1A    -20.608624     2A    -20.546546     3A    -11.378676
       4A    -11.282995     5A    -11.248429     6A    -11.245243
       7A    -11.243614     8A    -11.243045     9A    -11.238942
      10A    -11.238219    11A     -1.473434    12A     -1.364514
      13A     -1.166094    14A     -1.048647    15A     -1.025852
      16A     -0.978772    17A     -0.860731    18A     -0.836624
      19A     -0.778775    20A     -0.738604    21A     -0.684164
      22A     -0.678160    23A     -0.674398    24A     -0.630594
      25A     -0.627347    26A     -0.597690    27A     -0.588524
      28A     -0.554474    29A     -0.532494    30A     -0.516217
      31A     -0.506258    32A     -0.501156    33A     -0.458109
      34A     -0.445101    35A     -0.343648    36A     -0.342130

  @DF-RHF Final Energy:  -457.34613160597513

   => Energetics <=

    Nuclear Repulsion Energy =            492.3410487771575959
    One-Electron Energy =               -1598.9209563137310397
    Two-Electron Energy =                 649.2337759305983127
    DFT Exchange-Correlation Energy =       0.0000000000000000
    Empirical Dispersion Energy =           0.0000000000000000
    PCM Polarization Energy =               0.0000000000000000
    EFP Energy =                            0.0000000000000000
    Total Energy =                       -457.3461316059751880

  Mulliken Charges: (a.u.)
   Center  Symbol    Alpha    Beta     Spin     Total
       1     H     0.39581  0.39581  0.00000  0.20838
       2     C     3.09286  3.09286  0.00000 -0.18572
       3     C     3.10427  3.10427  0.00000 -0.20855
       4     C     3.10479  3.10479  0.00000 -0.20958
       5     H     0.39527  0.39527  0.00000  0.20945
       6     C     3.09264  3.09264  0.00000 -0.18528
       7     H     0.39589  0.39589  0.00000  0.20823
       8     C     3.09029  3.09029  0.00000 -0.18057
       9     H     0.38214  0.38214  0.00000  0.23571
      10     C     3.03846  3.03846  0.00000 -0.07692
      11     H     0.38654  0.38654  0.00000  0.22691
      12     C     2.61574  2.61574  0.00000  0.76851
      13     O     4.30350  4.30350  0.00000 -0.60700
      14     O     4.28534  4.28534  0.00000 -0.57067
      15     C     3.09361  3.09361  0.00000 -0.18723
      16     H     0.40755  0.40755  0.00000  0.18490
      17     H     0.40733  0.40733  0.00000  0.18534
      18     H     0.40796  0.40796  0.00000  0.18409

   Total alpha = 36.00000, Total beta = 36.00000, Total charge =  0.00000
