  ==> Input File <==

--------------------------------------------------------------------------
set {
	reference rhf
	basis 6-31G*
}

set_num_threads( 4 )
memory 2 gb

molecule MOL {
0 1

O	 -0.291628	 1.323815	 -0.000732
C	 -0.449655	 0.146360	 0.000961
C	 -1.783294	 -0.549321	 -0.000296
O	 0.550821	 -0.724572	 0.000672
H	 -1.863538	 -1.185371	 -0.874187
H	 -2.574672	 0.185258	 -0.002793
H	 -1.866414	 -1.182381	 0.875436
C	 1.036618	 -1.144369	 1.263231
H	 1.411268	 -0.301068	 1.825224
H	 1.834550	 -1.840031	 1.055606
H	 0.254046	 -1.629322	 1.828690

	symmetry c1
}
set optking {
	frozen_dihedral = ("
		8 4 2 1
	")
}

ee = optimize('scf')
oeprop('DIPOLE', 'QUADRUPOLE', 'MULLIKEN_CHARGES')
f=open( 'psi4out.xyz', 'w' )
f.write( "11  " )
f.write( str(ee) + "\n" )
f.write( MOL.save_string_xyz() )
f.close()
--------------------------------------------------------------------------

    Molecular point group: c1
  Charge       = 0
  Multiplicity = 1
  Basis Set: 6-31G*
  Basis Set:
  @DF-RHF Final Energy:  -266.81452162433959
    Total Energy =                       -266.8145216243393634
    Molecular point group: c1
  Basis Set: 6-31G*
  Basis Set:
  Basis Set: 6-31G*
  Basis Set:
  @DF-RHF Final Energy:  -266.81348510106329
    Total Energy =                       -266.8134851010632360
  Basis Set: 6-31G*
  Basis Set:
  Basis Set: 6-31G*
  Basis Set:
  @DF-RHF Final Energy:  -266.81544672496847
    Total Energy =                       -266.8154467249684103
  Basis Set: 6-31G*
  Basis Set:
  Basis Set: 6-31G*
  Basis Set:
  @DF-RHF Final Energy:  -266.81601439693839
    Total Energy =                       -266.8160143969383284
  Basis Set: 6-31G*
  Basis Set:
  Basis Set: 6-31G*
  Basis Set:
  @DF-RHF Final Energy:  -266.81603060837483
    Total Energy =                       -266.8160306083748310
  Basis Set: 6-31G*
  Basis Set:
  Basis Set: 6-31G*
  Basis Set:
  @DF-RHF Final Energy:  -266.81603463908891
    Total Energy =                       -266.8160346390887980
  Basis Set: 6-31G*
  Basis Set:
  Basis Set: 6-31G*
  Basis Set:
  @DF-RHF Final Energy:  -266.81603581620783
    Total Energy =                       -266.8160358162079433
  Basis Set: 6-31G*
  Basis Set:
  Charge       = 0
  Multiplicity = 1
  Basis Set: 6-31G*
  Basis Set:

    Orbital Energies (a.u.)
    -----------------------

    Doubly Occupied:

       1A    -20.587467     2A    -20.559170     3A    -11.379607
       4A    -11.293610     5A    -11.239239     6A     -1.460963
       7A     -1.369593     8A     -1.026608     9A     -0.964328
      10A     -0.779075    11A     -0.694712    12A     -0.683510
      13A     -0.668941    14A     -0.613820    15A     -0.590211
      16A     -0.578226    17A     -0.542004    18A     -0.494889
      19A     -0.460466    20A     -0.441505

  @DF-RHF Final Energy:  -266.81603614563340

   => Energetics <=

    Nuclear Repulsion Energy =            182.3217350527747840
    One-Electron Energy =                -725.4196584063838600
    Two-Electron Energy =                 276.2818872079758421
    DFT Exchange-Correlation Energy =       0.0000000000000000
    Empirical Dispersion Energy =           0.0000000000000000
    PCM Polarization Energy =               0.0000000000000000
    EFP Energy =                            0.0000000000000000
    Total Energy =                       -266.8160361456332339
    Molecular point group: c1
  Basis Set: 6-31G*
  Basis Set:

  -Total Gradient:
     Atom            X                  Y                   Z
    ------   -----------------  -----------------  -----------------
       1       -0.000077227276    -0.000146668544    -0.003086637321
       2       -0.000726955041    -0.000573058958     0.004624337393
       3        0.000010914451    -0.000017736425    -0.000051594059
       4        0.002396886353     0.002563018042    -0.001602527725
       5        0.000006732812    -0.000002382578     0.000003500814
       6       -0.000009410743    -0.000004654001     0.000004476515
       7        0.000000361841     0.000016391514     0.000008074600
       8       -0.001608325132    -0.001834341254     0.000087662048
       9        0.000000289310     0.000000822855     0.000003160235
      10        0.000001913203    -0.000000980191     0.000000389743
      11        0.000004820223    -0.000000410460     0.000009157758

  **** Optimization is complete! (in 8 steps) ****
    Final optimized geometry and variables:
    Molecular point group: c1

    Geometry (in Angstrom), charge = 0, multiplicity = 1:

    O           -0.107130789027     1.504366936929    -0.293507196002
    C           -0.291249139195     0.338923411781    -0.251198763060
    C           -1.647147934666    -0.314447368920    -0.286136225640
    O            0.733504272309    -0.545932445206    -0.251944861158
    H           -1.730571748438    -0.901133773101    -1.194552417073
    H           -2.423171406377     0.436105937047    -0.259969730325
    H           -1.763377762439    -0.995686959594     0.549722113137
    C            1.249400767659    -0.920582916329     1.007462379099
    H            1.621797788827    -0.054606923173     1.540614029468
    H            2.061698698822    -1.604045731367     0.816101372793
    H            0.496383683541    -1.421892427574     1.607078306938

  Mulliken Charges: (a.u.)
   Center  Symbol    Alpha    Beta     Spin     Total
       1     O     4.24704  4.24704  0.00000 -0.49407
       2     C     2.63071  2.63071  0.00000  0.73859
       3     C     3.28647  3.28647  0.00000 -0.57294
       4     O     4.30922  4.30922  0.00000 -0.61843
       5     H     0.39667  0.39667  0.00000  0.20666
       6     H     0.39635  0.39635  0.00000  0.20730
       7     H     0.40725  0.40725  0.00000  0.18550
       8     C     3.09254  3.09254  0.00000 -0.18509
       9     H     0.40878  0.40878  0.00000  0.18243
      10     H     0.40202  0.40202  0.00000  0.19595
      11     H     0.42295  0.42295  0.00000  0.15410

   Total alpha = 20.00000, Total beta = 20.00000, Total charge =  0.00000
