  ==> Input File <==

--------------------------------------------------------------------------
set {
	reference rhf
	basis 6-31G*
}

set_num_threads( 1 )
memory 2 gb

molecule MOL {
0 1

O	 -0.209421	 0.422597	 0.931100
C	 0.486307	 0.169203	 0.000779
C	 1.608116	 -0.841643	 0.000302
O	 0.366075	 0.755600	 -1.182137
C	 2.990107	 -0.200498	 -0.000684
H	 1.468623	 -1.481519	 -0.865924
H	 1.469683	 -1.481289	 0.866878
H	 3.129736	 0.423364	 -0.875135
H	 3.757882	 -0.966877	 -0.001197
H	 3.130964	 0.423383	 0.873533
C	 -0.655171	 1.736839	 -1.329195
C	 -0.587442	 2.252773	 -2.751002
H	 -0.491277	 2.526862	 -0.609065
H	 -1.613182	 1.283782	 -1.113452
H	 0.379895	 2.698490	 -2.952881
H	 -1.352304	 3.006568	 -2.907293
H	 -0.748200	 1.448682	 -3.460123

	symmetry c1
}
set optking {
	frozen_dihedral = ("
		2 4 11 13,
		11 4 2 3
	")
}

ee = energy('scf')
oeprop('DIPOLE', 'QUADRUPOLE', 'MULLIKEN_CHARGES')
f=open( 'psi4out.xyz', 'w' )
f.write( "17  " )
f.write( str(ee) + "\n" )
f.write( MOL.save_string_xyz() )
f.close()
--------------------------------------------------------------------------

    Molecular point group: c1

    Geometry (in Angstrom), charge = 0, multiplicity = 1:

       Center              X                  Y                   Z               Mass
    ------------   -----------------  -----------------  -----------------  -----------------
           O         -0.775826759651    -0.206280973060     1.559151389511    15.994914619560
           C         -0.080098759651    -0.459674973060     0.628830389511    12.000000000000
           C          1.041710240349    -1.470520973060     0.628353389511    12.000000000000
           O         -0.200330759651     0.126722026940    -0.554085610489    15.994914619560
           C          2.423701240349    -0.829375973060     0.627367389511    12.000000000000
           H          0.902217240349    -2.110396973060    -0.237872610489     1.007825032070
           H          0.903277240349    -2.110166973060     1.494929389511     1.007825032070
           H          2.563330240349    -0.205513973060    -0.247083610489     1.007825032070
           H          3.191476240349    -1.595754973060     0.626854389511     1.007825032070
           H          2.564558240349    -0.205494973060     1.501584389511     1.007825032070
           C         -1.221576759651     1.107961026940    -0.701143610489    12.000000000000
           C         -1.153847759651     1.623895026940    -2.122950610489    12.000000000000
           H         -1.057682759651     1.897984026940     0.018986389511     1.007825032070
           H         -2.179587759651     0.654904026940    -0.485400610489     1.007825032070
           H         -0.186510759651     2.069612026940    -2.324829610489     1.007825032070
           H         -1.918709759651     2.377690026940    -2.279241610489     1.007825032070
           H         -1.314605759651     0.819804026940    -2.832071610489     1.007825032070

  Charge       = 0
  Multiplicity = 1
  Basis Set: 6-31G*
  Basis Set:

    Orbital Energies (a.u.)
    -----------------------

    Doubly Occupied:

       1A    -20.601467     2A    -20.543008     3A    -11.370290
       4A    -11.284742     5A    -11.236021     6A    -11.226135
       7A    -11.222509     8A     -1.467247     9A     -1.360837
      10A     -1.073686    11A     -1.031289    12A     -0.908830
      13A     -0.855621    14A     -0.777468    15A     -0.692855
      16A     -0.680438    17A     -0.669746    18A     -0.615524
      19A     -0.596495    20A     -0.574734    21A     -0.553705
      22A     -0.542227    23A     -0.528571    24A     -0.506025
      25A     -0.502943    26A     -0.498103    27A     -0.451513
      28A     -0.431123

  @DF-RHF Final Energy:  -344.90999658810603

   => Energetics <=

    Nuclear Repulsion Energy =            316.6809472896248394
    One-Electron Energy =               -1097.5756352275454901
    Two-Electron Energy =                 435.9846913498142840
    DFT Exchange-Correlation Energy =       0.0000000000000000
    Empirical Dispersion Energy =           0.0000000000000000
    PCM Polarization Energy =               0.0000000000000000
    EFP Energy =                            0.0000000000000000
    Total Energy =                       -344.9099965881064236

  Mulliken Charges: (a.u.)
   Center  Symbol    Alpha    Beta     Spin     Total
       1     O     4.28501  4.28501  0.00000 -0.57002
       2     C     2.61542  2.61542  0.00000  0.76916
       3     C     3.19430  3.19430  0.00000 -0.38859
       4     O     4.30905  4.30905  0.00000 -0.61809
       5     C     3.24948  3.24948  0.00000 -0.49895
       6     H     0.40477  0.40477  0.00000  0.19046
       7     H     0.39991  0.39991  0.00000  0.20019
       8     H     0.40849  0.40849  0.00000  0.18302
       9     H     0.41180  0.41180  0.00000  0.17640
      10     H     0.41040  0.41040  0.00000  0.17921
      11     C     3.00235  3.00235  0.00000 -0.00471
      12     C     3.24853  3.24853  0.00000 -0.49706
      13     H     0.41025  0.41025  0.00000  0.17951
      14     H     0.40999  0.40999  0.00000  0.18001
      15     H     0.41219  0.41219  0.00000  0.17562
      16     H     0.41621  0.41621  0.00000  0.16758
      17     H     0.41186  0.41186  0.00000  0.17628

   Total alpha = 28.00000, Total beta = 28.00000, Total charge = -0.00000
