  ==> Input File <==

--------------------------------------------------------------------------
set {
	reference rhf
	basis 6-31G*
}

set_num_threads( 1 )
memory 2 gb

molecule MOL {
0 1

H	 3.710082	 -1.212750	 -2.252280
C	 3.216570	 -1.231468	 -1.285923
C	 1.942370	 -0.388198	 -1.302488
H	 2.997795	 -2.268597	 -1.047750
H	 3.923886	 -0.865109	 -0.547186
C	 1.217350	 -0.386724	 0.039429
H	 1.260368	 -0.754413	 -2.063506
H	 2.191837	 0.635533	 -1.576594
N	 0.000003	 0.397874	 -0.023260
H	 0.945113	 -1.405792	 0.300868
H	 1.898099	 -0.037826	 0.823158
C	 -1.217365	 -0.386708	 0.039277
H	 -0.000031	 1.072115	 0.718656
C	 -2.452633	 0.504241	 -0.042481
H	 -1.215291	 -1.074557	 -0.802042
H	 -1.269739	 -1.003477	 0.942735
C	 -3.758029	 -0.289423	 -0.010781
H	 -2.394220	 1.093569	 -0.952170
H	 -2.440793	 1.210787	 0.785871
H	 -3.816659	 -0.981993	 -0.845726
H	 -4.617837	 0.370165	 -0.069296
H	 -3.847478	 -0.867502	 0.904682

	symmetry c1
}
set optking {
	frozen_dihedral = ("
		15 12 14 18
	")
}

ee = energy('scf')
oeprop('DIPOLE', 'QUADRUPOLE', 'MULLIKEN_CHARGES')
f=open( 'psi4out.xyz', 'w' )
f.write( "22  " )
f.write( str(ee) + "\n" )
f.write( MOL.save_string_xyz() )
f.close()
--------------------------------------------------------------------------

    Molecular point group: c1

    Geometry (in Angstrom), charge = 0, multiplicity = 1:

       Center              X                  Y                   Z               Mass
    ------------   -----------------  -----------------  -----------------  -----------------
           H          3.861550876934    -0.948655038820    -1.888294807992     1.007825032070
           C          3.368038876934    -0.967373038820    -0.921937807992    12.000000000000
           C          2.093838876934    -0.124103038820    -0.938502807992    12.000000000000
           H          3.149263876934    -2.004502038820    -0.683764807992     1.007825032070
           H          4.075354876934    -0.601014038820    -0.183200807992     1.007825032070
           C          1.368818876934    -0.122629038820     0.403414192008    12.000000000000
           H          1.411836876934    -0.490318038820    -1.699520807992     1.007825032070
           H          2.343305876934     0.899627961180    -1.212608807992     1.007825032070
           N          0.151471876934     0.661968961180     0.340725192008    14.003074004780
           H          1.096581876934    -1.141697038820     0.664853192008     1.007825032070
           H          2.049567876934     0.226268961180     1.187143192008     1.007825032070
           C         -1.065896123066    -0.122613038820     0.403262192008    12.000000000000
           H          0.151437876934     1.336209961180     1.082641192008     1.007825032070
           C         -2.301164123066     0.768335961180     0.321504192008    12.000000000000
           H         -1.063822123066    -0.810462038820    -0.438056807992     1.007825032070
           H         -1.118270123066    -0.739382038820     1.306720192008     1.007825032070
           C         -3.606560123066    -0.025328038820     0.353204192008    12.000000000000
           H         -2.242751123066     1.357663961180    -0.588184807992     1.007825032070
           H         -2.289324123066     1.474881961180     1.149856192008     1.007825032070
           H         -3.665190123066    -0.717898038820    -0.481740807992     1.007825032070
           H         -4.466368123066     0.634259961180     0.294689192008     1.007825032070
           H         -3.696009123066    -0.603407038820     1.268667192008     1.007825032070

  Charge       = 0
  Multiplicity = 1
  Basis Set: 6-31G*
  Basis Set:

    Orbital Energies (a.u.)
    -----------------------

    Doubly Occupied:

       1A    -15.532210     2A    -11.239424     3A    -11.237664
       4A    -11.213963     5A    -11.210201     6A    -11.205702
       7A    -11.205041     8A     -1.205536     9A     -1.056537
      10A     -1.024662    11A     -0.927298    12A     -0.870833
      13A     -0.805608    14A     -0.792197    15A     -0.668338
      16A     -0.635291    17A     -0.613722    18A     -0.598145
      19A     -0.582224    20A     -0.556643    21A     -0.543252
      22A     -0.521158    23A     -0.501653    24A     -0.489740
      25A     -0.481245    26A     -0.471916    27A     -0.462677
      28A     -0.452673    29A     -0.356304

  @DF-RHF Final Energy:  -290.37834989963523

   => Energetics <=

    Nuclear Repulsion Energy =            315.4565714801478293
    One-Electron Energy =               -1016.7459616908241742
    Two-Electron Energy =                 410.9110403110407788
    DFT Exchange-Correlation Energy =       0.0000000000000000
    Empirical Dispersion Energy =           0.0000000000000000
    PCM Polarization Energy =               0.0000000000000000
    EFP Energy =                            0.0000000000000000
    Total Energy =                       -290.3783498996356229

  Mulliken Charges: (a.u.)
   Center  Symbol    Alpha    Beta     Spin     Total
       1     H     0.41842  0.41842  0.00000  0.16315
       2     C     3.24609  3.24609  0.00000 -0.49218
       3     C     3.13984  3.13984  0.00000 -0.27967
       4     H     0.42309  0.42309  0.00000  0.15382
       5     H     0.42330  0.42330  0.00000  0.15340
       6     C     3.06067  3.06067  0.00000 -0.12133
       7     H     0.42188  0.42188  0.00000  0.15623
       8     H     0.41986  0.41986  0.00000  0.16028
       9     N     3.85490  3.85490  0.00000 -0.70980
      10     H     0.42752  0.42752  0.00000  0.14496
      11     H     0.42503  0.42503  0.00000  0.14995
      12     C     3.05182  3.05182  0.00000 -0.10364
      13     H     0.33281  0.33281  0.00000  0.33438
      14     C     3.15570  3.15570  0.00000 -0.31140
      15     H     0.42125  0.42125  0.00000  0.15750
      16     H     0.43531  0.43531  0.00000  0.12938
      17     C     3.24329  3.24329  0.00000 -0.48658
      18     H     0.41273  0.41273  0.00000  0.17453
      19     H     0.42654  0.42654  0.00000  0.14693
      20     H     0.42066  0.42066  0.00000  0.15867
      21     H     0.41757  0.41757  0.00000  0.16485
      22     H     0.42172  0.42172  0.00000  0.15656

   Total alpha = 29.00000, Total beta = 29.00000, Total charge = -0.00000
