  ==> Input File <==

--------------------------------------------------------------------------
set {
	reference rhf
	basis 6-31G*
}

set_num_threads( 4 )
memory 2 gb

molecule MOL {
0 1

H	 -2.741486	 0.816831	 -1.294971
O	 -3.452007	 0.283848	 -0.965577
C	 -3.181085	 -0.079926	 0.364119
C	 -1.765924	 0.277073	 0.805136
H	 -3.327791	 -1.152017	 0.410903
H	 -3.905698	 0.375695	 1.036898
C	 -0.677594	 -0.417312	 -0.014550
H	 -1.637766	 1.358238	 0.744969
H	 -1.659588	 0.017670	 1.857098
C	 0.738335	 -0.034840	 0.421385
H	 -0.814977	 -0.178223	 -1.064632
H	 -0.802730	 -1.495410	 0.071702
C	 1.822265	 -0.738362	 -0.399735
H	 0.853533	 1.043532	 0.342250
H	 0.871597	 -0.279636	 1.474438
C	 3.258060	 -0.455774	 0.057203
H	 1.718003	 -0.459167	 -1.447053
H	 1.651028	 -1.811884	 -0.354513
C	 3.709143	 0.994797	 -0.123830
H	 3.930637	 -1.101717	 -0.501982
H	 3.365259	 -0.739518	 1.102287
H	 3.601178	 1.310569	 -1.158127
H	 4.753787	 1.110486	 0.148516
H	 3.135362	 1.678896	 0.492569

	symmetry c1
}
set optking {
	frozen_dihedral = ("
		1 2 3 5
	")
}

ee = optimize('scf')
oeprop('DIPOLE', 'QUADRUPOLE', 'MULLIKEN_CHARGES')
f=open( 'psi4out.xyz', 'w' )
f.write( "24  " )
f.write( str(ee) + "\n" )
f.write( MOL.save_string_xyz() )
f.close()
--------------------------------------------------------------------------

    Molecular point group: c1
  Charge       = 0
  Multiplicity = 1
  Basis Set: 6-31G*
  Basis Set:
  @DF-RHF Final Energy:  -349.24401486872290
    Total Energy =                       -349.2440148687229566
    Molecular point group: c1
  Basis Set: 6-31G*
  Basis Set:
  Basis Set: 6-31G*
  Basis Set:
  @DF-RHF Final Energy:  -349.24425192631134
    Total Energy =                       -349.2442519263114491
  Basis Set: 6-31G*
  Basis Set:
  Basis Set: 6-31G*
  Basis Set:
  @DF-RHF Final Energy:  -349.24450902151051
    Total Energy =                       -349.2445090215103392
  Basis Set: 6-31G*
  Basis Set:
  Basis Set: 6-31G*
  Basis Set:
  @DF-RHF Final Energy:  -349.24451100362057
    Total Energy =                       -349.2445110036204596
  Basis Set: 6-31G*
  Basis Set:
  Basis Set: 6-31G*
  Basis Set:
  @DF-RHF Final Energy:  -349.24451323886763
    Total Energy =                       -349.2445132388672846
  Basis Set: 6-31G*
  Basis Set:
  Charge       = 0
  Multiplicity = 1
  Basis Set: 6-31G*
  Basis Set:

    Orbital Energies (a.u.)
    -----------------------

    Doubly Occupied:

       1A    -20.548871     2A    -11.266420     3A    -11.224664
       4A    -11.222379     5A    -11.218986     6A    -11.218021
       7A    -11.216907     8A    -11.210708     9A     -1.356239
      10A     -1.095045    11A     -1.053121    12A     -0.989616
      13A     -0.919892    14A     -0.856140    15A     -0.805906
      16A     -0.781804    17A     -0.661012    18A     -0.660348
      19A     -0.637013    20A     -0.625531    21A     -0.605837
      22A     -0.589497    23A     -0.560926    24A     -0.541043
      25A     -0.523707    26A     -0.515103    27A     -0.497981
      28A     -0.478899    29A     -0.476384    30A     -0.464761
      31A     -0.457891    32A     -0.444653    33A     -0.424990

  @DF-RHF Final Energy:  -349.24451360695610

   => Energetics <=

    Nuclear Repulsion Energy =            384.6156722563882226
    One-Electron Energy =               -1235.4197805652866009
    Two-Electron Energy =                 501.5595947019423875
    DFT Exchange-Correlation Energy =       0.0000000000000000
    Empirical Dispersion Energy =           0.0000000000000000
    PCM Polarization Energy =               0.0000000000000000
    EFP Energy =                            0.0000000000000000
    Total Energy =                       -349.2445136069559339
    Molecular point group: c1
  Basis Set: 6-31G*
  Basis Set:

  -Total Gradient:
     Atom            X                  Y                   Z
    ------   -----------------  -----------------  -----------------
       1        0.000778998049    -0.001285660445    -0.000586382487
       2       -0.000616446964     0.001544234988     0.000612731819
       3       -0.001439622189    -0.000110518196     0.000324318914
       4       -0.000019675199    -0.000010598604     0.000000028318
       5        0.001311808661    -0.000158947325    -0.000365700914
       6        0.000006035807     0.000003870943     0.000018300342
       7       -0.000022468658     0.000012736827    -0.000015537008
       8        0.000004208716    -0.000004315663     0.000000744002
       9       -0.000000372717    -0.000003618522     0.000016979562
      10        0.000000929948     0.000008108653    -0.000013523027
      11       -0.000016227821     0.000009532538     0.000007560147
      12        0.000008187922    -0.000004143640    -0.000005288701
      13       -0.000001193472    -0.000002423903     0.000010378141
      14       -0.000006926856    -0.000004494803    -0.000010416646
      15        0.000003314117     0.000007705995    -0.000001233180
      16        0.000000299408    -0.000008170855     0.000008989215
      17        0.000000831708     0.000007722145     0.000004841974
      18       -0.000004104530    -0.000001773200    -0.000006546524
      19        0.000000369203     0.000000697055    -0.000000678007
      20        0.000001617035    -0.000001099702     0.000001460864
      21        0.000003135340     0.000001293068     0.000001812452
      22        0.000000414031     0.000000773742    -0.000000744257
      23        0.000000396029    -0.000000507137     0.000000193927
      24        0.000006492437    -0.000000403960    -0.000002288925

  **** Optimization is complete! (in 6 steps) ****
    Final optimized geometry and variables:
    Molecular point group: c1

    Geometry (in Angstrom), charge = 0, multiplicity = 1:

    H           -2.828881489203     0.860639165014    -1.293789005780
    O           -3.509015899417     0.307793626092    -0.939724822749
    C           -3.184448225405    -0.089266514234     0.370793752655
    C           -1.765745407693     0.282590628702     0.787802004250
    H           -3.304848573004    -1.166548234291     0.427105416227
    H           -3.895916970529     0.359944992715     1.057375972504
    C           -0.673633498719    -0.416702609422    -0.026793784665
    H           -1.647883542658     1.363909207721     0.717207883084
    H           -1.645763058037     0.033268946632     1.839601739111
    C            0.740353153284    -0.031375766635     0.413019521643
    H           -0.792395820517    -0.188821051552    -1.084028324767
    H           -0.801012008353    -1.493571414910     0.062549808567
    C            1.828584966130    -0.738387020322    -0.399289018839
    H            0.855239712467     1.046596619763     0.331004255502
    H            0.866297781424    -0.272613420729     1.467462598506
    C            3.261284614728    -0.455421760082     0.066919528206
    H            1.732205259760    -0.461784319209    -1.448107369896
    H            1.655916743824    -1.811567287401    -0.352321250024
    C            3.714890376617     0.994095889307    -0.115910108536
    H            3.936660579671    -1.104039320924    -0.485439250943
    H            3.360635031953    -0.735962173435     1.113560169550
    H            3.614842452309     1.306495530851    -1.152008897957
    H            4.757628105943     1.109365201611     0.163384080116
    H            3.137824177764     1.681041881131     0.494220569876

  Mulliken Charges: (a.u.)
   Center  Symbol    Alpha    Beta     Spin     Total
       1     H     0.27916  0.27916  0.00000  0.44169
       2     O     4.37797  4.37797  0.00000 -0.75593
       3     C     2.97503  2.97503  0.00000  0.04994
       4     C     3.18907  3.18907  0.00000 -0.37814
       5     H     0.42431  0.42431  0.00000  0.15137
       6     H     0.42416  0.42416  0.00000  0.15167
       7     C     3.15319  3.15319  0.00000 -0.30638
       8     H     0.42204  0.42204  0.00000  0.15592
       9     H     0.41681  0.41681  0.00000  0.16638
      10     C     3.15326  3.15326  0.00000 -0.30652
      11     H     0.42448  0.42448  0.00000  0.15104
      12     H     0.41902  0.41902  0.00000  0.16196
      13     C     3.15270  3.15270  0.00000 -0.30541
      14     H     0.42176  0.42176  0.00000  0.15648
      15     H     0.42325  0.42325  0.00000  0.15350
      16     C     3.15264  3.15264  0.00000 -0.30527
      17     H     0.42392  0.42392  0.00000  0.15216
      18     H     0.42129  0.42129  0.00000  0.15743
      19     C     3.24138  3.24138  0.00000 -0.48277
      20     H     0.42025  0.42025  0.00000  0.15949
      21     H     0.42309  0.42309  0.00000  0.15382
      22     H     0.42220  0.42220  0.00000  0.15561
      23     H     0.41863  0.41863  0.00000  0.16273
      24     H     0.42038  0.42038  0.00000  0.15923

   Total alpha = 33.00000, Total beta = 33.00000, Total charge =  0.00000
