                              Psi4 1.0.54 Driver

  ==> Input File <==

--------------------------------------------------------------------------
set {
	reference rhf
	basis cc-pvtz
}

set_num_threads( 4 )
memory 2 gb

molecule MOL {
0 1

H	 -1.088256	 -1.364742	 0.152233
O	 -1.432053	 -0.565244	 -0.200812
C	 -0.727158	 0.534527	 0.310686
C	 0.680222	 0.664433	 -0.252229
H	 -1.306802	 1.408001	 0.044211
H	 -0.690821	 0.490158	 1.397609
C	 0.792685	 0.293849	 -1.728056
H	 1.019974	 1.684063	 -0.103386
H	 1.335105	 0.023709	 0.331937
H	 0.197351	 0.952718	 -2.350626
H	 1.817540	 0.370810	 -2.070550
H	 0.462410	 -0.725405	 -1.904114

	symmetry c1
}
set optking {
	frozen_dihedral = ("
		8 4 3 2
	")
}

ee,wfn = optimize('scf', return_wfn=True)
oeprop( wfn, 'DIPOLE', 'QUADRUPOLE', 'MULLIKEN_CHARGES')
f=open( 'psi4out.xyz', 'w' )
f.write( "12  " )
f.write( str(ee) + "\n" )
f.write( MOL.save_string_xyz() )
f.close()
--------------------------------------------------------------------------

    Molecular point group: c1
  Charge       = 0
  Multiplicity = 1
  Basis Set: CC-PVTZ
  Basis Set:
  @DF-RHF Final Energy:  -193.18794336441320
    Total Energy =                       -193.1879433644130302
    Molecular point group: c1
  Basis Set: CC-PVTZ
  Basis Set:
  Basis Set: CC-PVTZ
  Basis Set:
  @DF-RHF Final Energy:  -193.18849587362922
    Total Energy =                       -193.1884958736291082
  Basis Set: CC-PVTZ
  Basis Set:
  Basis Set: CC-PVTZ
  Basis Set:
  @DF-RHF Final Energy:  -193.18865127669767
    Total Energy =                       -193.1886512766976978
  Basis Set: CC-PVTZ
  Basis Set:
  Basis Set: CC-PVTZ
  Basis Set:
  @DF-RHF Final Energy:  -193.18865605893461
    Total Energy =                       -193.1886560589347255
  Basis Set: CC-PVTZ
  Basis Set:
  Charge       = 0
  Multiplicity = 1
  Basis Set: CC-PVTZ
  Basis Set:

    Orbital Energies (a.u.)
    -----------------------

    Doubly Occupied:

       1A    -20.547289     2A    -11.266257     3A    -11.217315
       4A    -11.205527     5A     -1.364931     6A     -1.047836
       7A     -0.923474     8A     -0.811307     9A     -0.684397
      10A     -0.639676    11A     -0.626025    12A     -0.569934
      13A     -0.528602    14A     -0.515338    15A     -0.486163
      16A     -0.465788    17A     -0.434228

  @DF-RHF Final Energy:  -193.18865643268668

   => Energetics <=

    Nuclear Repulsion Energy =            133.5350273465226678
    One-Electron Energy =                -526.7791931743092846
    Two-Electron Energy =                 200.0555093950999037
    DFT Exchange-Correlation Energy =       0.0000000000000000
    Empirical Dispersion Energy =           0.0000000000000000
    PCM Polarization Energy =               0.0000000000000000
    EFP Energy =                            0.0000000000000000
    Total Energy =                       -193.1886564326867131
    Molecular point group: c1
  Basis Set: CC-PVTZ
  Basis Set:

  -Total Gradient:
     Atom            X                  Y                   Z
    ------   -----------------  -----------------  -----------------
       1       -0.000004349385    -0.000020175838     0.000003569213
       2       -0.001502524649     0.002371227302    -0.003207574004
       3        0.001635783441    -0.002989073080     0.003424868199
       4        0.001902945003    -0.000639256588     0.004514296850
       5        0.000011633739     0.000017985556     0.000006809442
       6       -0.000012858754    -0.000024044403    -0.000011940869
       7        0.000036572634     0.000015858312    -0.000017057678
       8       -0.002023321671     0.001267020856    -0.004718387384
       9       -0.000011776921     0.000004387008     0.000003237224
      10       -0.000010942804     0.000005652738    -0.000010585161
      11       -0.000014266822     0.000002720600    -0.000003445928
      12       -0.000006893811    -0.000012302460     0.000016210097

  **** Optimization is complete! (in 5 steps) ****
    Final optimized geometry and variables:
    Molecular point group: c1

    Geometry (in Angstrom), charge = 0, multiplicity = 1:

    H           -0.875469275560    -1.562625529095     0.637606303430
    O           -1.241089776404    -0.761528002354     0.308100162759
    C           -0.505481824956     0.337301059668     0.775770178342
    C            0.903209958929     0.442191190093     0.194001638761
    H           -1.078653504628     1.205622252276     0.476454138139
    H           -0.462931404894     0.339763692339     1.861464222656
    C            0.972696865602     0.119633549271    -1.297183053438
    H            1.233563103326     1.468236540296     0.326620177679
    H            1.590103298982    -0.197127636877     0.741415765477
    H            0.296324722207     0.751261409211    -1.862833496962
    H            1.975852247518     0.282842177050    -1.673908974494
    H            0.700790507444    -0.907707734754    -1.498161801527

  Mulliken Charges: (a.u.)
   Center  Symbol    Alpha    Beta     Spin     Total
       1     H     0.39495  0.39495  0.00000  0.21010
       2     O     4.20174  4.20174  0.00000 -0.40347
       3     C     2.97741  2.97741  0.00000  0.04518
       4     C     3.10100  3.10100  0.00000 -0.20200
       5     H     0.45746  0.45746  0.00000  0.08508
       6     H     0.46159  0.46159  0.00000  0.07682
       7     C     3.13719  3.13719  0.00000 -0.27438
       8     H     0.45441  0.45441  0.00000  0.09117
       9     H     0.45455  0.45455  0.00000  0.09091
      10     H     0.45473  0.45473  0.00000  0.09053
      11     H     0.45109  0.45109  0.00000  0.09781
      12     H     0.45387  0.45387  0.00000  0.09225

   Total alpha = 17.00000, Total beta = 17.00000, Total charge = -0.00000

*** Psi4 exiting successfully. Buy a developer a beer!
