                              Psi4 1.0.54 Driver

  ==> Input File <==

--------------------------------------------------------------------------
set {
	reference rhf
	basis cc-pvtz
}

set_num_threads( 4 )
memory 2 gb

molecule MOL {
0 1

H	 3.889604	 0.356866	 -0.089510
N	 3.091268	 -0.241216	 -0.065538
C	 1.860978	 0.530248	 0.016256
H	 3.192566	 -0.835836	 0.730398
C	 0.644130	 -0.381765	 -0.031064
H	 1.835721	 1.204666	 -0.833114
H	 1.808789	 1.151975	 0.911067
C	 -0.678115	 0.376691	 0.025731
H	 0.693998	 -0.977147	 -0.936845
H	 0.693309	 -1.082142	 0.800523
C	 -1.256723	 0.686710	 -1.352058
H	 -0.535487	 1.307623	 0.569770
H	 -1.403612	 -0.199475	 0.595431
C	 -2.575237	 1.450566	 -1.291070
H	 -0.533222	 1.261897	 -1.923022
H	 -1.403781	 -0.242193	 -1.896376
H	 -2.453609	 2.401297	 -0.782584
H	 -2.957895	 1.654248	 -2.284595
H	 -3.330861	 0.885450	 -0.755336

	symmetry c1
}
set optking {
	frozen_dihedral = ("
		12 8 5 9
	")
}

ee,wfn = optimize('scf', return_wfn=True)
oeprop( wfn, 'DIPOLE', 'QUADRUPOLE', 'MULLIKEN_CHARGES')
f=open( 'psi4out.xyz', 'w' )
f.write( "19  " )
f.write( str(ee) + "\n" )
f.write( MOL.save_string_xyz() )
f.close()
--------------------------------------------------------------------------

    Molecular point group: c1
  Charge       = 0
  Multiplicity = 1
  Basis Set: CC-PVTZ
  Basis Set:
  @DF-RHF Final Energy:  -251.44457863166025
    Total Energy =                       -251.4445786316605336
    Molecular point group: c1
  Basis Set: CC-PVTZ
  Basis Set:
  Basis Set: CC-PVTZ
  Basis Set:
  @DF-RHF Final Energy:  -251.44481047077338
    Total Energy =                       -251.4448104707735183
  Basis Set: CC-PVTZ
  Basis Set:
  Basis Set: CC-PVTZ
  Basis Set:
  @DF-RHF Final Energy:  -251.44486011479157
    Total Energy =                       -251.4448601147917088
  Basis Set: CC-PVTZ
  Basis Set:
  Charge       = 0
  Multiplicity = 1
  Basis Set: CC-PVTZ
  Basis Set:

    Orbital Energies (a.u.)
    -----------------------

    Doubly Occupied:

       1A    -15.526463     2A    -11.238056     3A    -11.211411
       4A    -11.210439     5A    -11.207712     6A    -11.205115
       7A     -1.178336     8A     -1.073069     9A     -0.997658
      10A     -0.899898    11A     -0.822010    12A     -0.783446
      13A     -0.661947    14A     -0.635923    15A     -0.625426
      16A     -0.589621    17A     -0.570981    18A     -0.549072
      19A     -0.526251    20A     -0.499442    21A     -0.487430
      22A     -0.464784    23A     -0.454552    24A     -0.448624
      25A     -0.384066

  @DF-RHF Final Energy:  -251.44486089871228

   => Energetics <=

    Nuclear Repulsion Energy =            248.4664054085020837
    One-Electron Energy =                -831.3190675574107900
    Two-Electron Energy =                 331.4078012501965986
    DFT Exchange-Correlation Energy =       0.0000000000000000
    Empirical Dispersion Energy =           0.0000000000000000
    PCM Polarization Energy =               0.0000000000000000
    EFP Energy =                            0.0000000000000000
    Total Energy =                       -251.4448608987121361
    Molecular point group: c1
  Basis Set: CC-PVTZ
  Basis Set:

  -Total Gradient:
     Atom            X                  Y                   Z
    ------   -----------------  -----------------  -----------------
       1        0.000020331900    -0.000009565399     0.000003040382
       2        0.000052334699     0.000003919180     0.000018940120
       3       -0.000032774782    -0.000038362013    -0.000043014082
       4        0.000016732404     0.000003630903    -0.000001657418
       5       -0.001209792749    -0.002263421026     0.001134401354
       6        0.000002718093     0.000002766641     0.000015132068
       7       -0.000009149396     0.000022675348    -0.000003336078
       8       -0.000505196710    -0.000994789346     0.002569923960
       9        0.001084802166     0.002066812302    -0.001372707751
      10       -0.000014371181     0.000032594209    -0.000007341406
      11       -0.000004914225    -0.000089458126     0.000022095858
      12        0.000590539570     0.001204252734    -0.002291565357
      13        0.000004506412     0.000008579057    -0.000035045979
      14        0.000021239353     0.000055289043     0.000006059154
      15       -0.000008262567    -0.000012503561    -0.000007270930
      16       -0.000005252605    -0.000006147550    -0.000006532410
      17       -0.000021147446     0.000007428517     0.000012250381
      18        0.000005577627     0.000013066992    -0.000000011858
      19        0.000012079432    -0.000006767905    -0.000013360007

  **** Optimization is complete! (in 4 steps) ****
    Final optimized geometry and variables:
    Molecular point group: c1

    Geometry (in Angstrom), charge = 0, multiplicity = 1:

    H            3.665182988485     0.030932065670     0.249540486497
    N            2.882514322309    -0.585781647477     0.302258034705
    C            1.639280942715     0.154551719217     0.444590999318
    H            3.032210482991    -1.185136432369     1.087041201940
    C            0.442880800384    -0.789773974092     0.458286378404
    H            1.558293670732     0.830160675526    -0.400167159127
    H            1.613638201923     0.772660444005     1.342911674111
    C           -0.903954896364    -0.054621844017     0.495753732081
    H            0.505853635510    -1.410829146927    -0.428536837556
    H            0.532599451548    -1.449940840113     1.316110699407
    C           -1.484284321342     0.222278302291    -0.891312663847
    H           -0.783980799685     0.895423260038     1.010951196130
    H           -1.625653824206    -0.628580232997     1.067614310093
    C           -2.783246624138     1.019753299733    -0.847527339592
    H           -0.754386428717     0.758224257623    -1.491400571173
    H           -1.658008268416    -0.722505138591    -1.398290976062
    H           -2.633667243135     1.987889684386    -0.380917334808
    H           -3.173844921580     1.190423118833    -1.844226372901
    H           -3.544847800927     0.495531674648    -0.279500308967

  Mulliken Charges: (a.u.)
   Center  Symbol    Alpha    Beta     Spin     Total
       1     H     0.43019  0.43019  0.00000  0.13961
       2     N     3.68951  3.68951  0.00000 -0.37902
       3     C     3.02336  3.02336  0.00000 -0.04672
       4     H     0.43102  0.43102  0.00000  0.13796
       5     C     3.09170  3.09170  0.00000 -0.18339
       6     H     0.45698  0.45698  0.00000  0.08603
       7     H     0.46845  0.46845  0.00000  0.06309
       8     C     3.10145  3.10145  0.00000 -0.20290
       9     H     0.45021  0.45021  0.00000  0.09959
      10     H     0.45298  0.45298  0.00000  0.09404
      11     C     3.08130  3.08130  0.00000 -0.16260
      12     H     0.45755  0.45755  0.00000  0.08489
      13     H     0.44758  0.44758  0.00000  0.10484
      14     C     3.15046  3.15046  0.00000 -0.30092
      15     H     0.45439  0.45439  0.00000  0.09123
      16     H     0.45357  0.45357  0.00000  0.09287
      17     H     0.45559  0.45559  0.00000  0.08883
      18     H     0.44847  0.44847  0.00000  0.10305
      19     H     0.45524  0.45524  0.00000  0.08952

   Total alpha = 25.00000, Total beta = 25.00000, Total charge = -0.00000

*** Psi4 exiting successfully. Buy a developer a beer!
