                              Psi4 1.0.54 Driver

  ==> Input File <==

--------------------------------------------------------------------------
set {
	reference rhf
	basis cc-pvtz
}

set_num_threads( 4 )
memory 2 gb

molecule MOL {
0 1

H	 -0.000342	 -0.223902	 -3.352295
C	 -0.027146	 0.371068	 -2.446756
C	 0.024493	 -0.518541	 -1.216015
H	 -0.932586	 0.964979	 -2.449855
H	 0.819708	 1.049865	 -2.473332
N	 -0.042516	 0.263377	 0.000000
H	 -0.822211	 -1.197105	 -1.225584
H	 0.921114	 -1.142847	 -1.255206
C	 0.024493	 -0.518541	 1.216015
H	 0.682568	 0.950412	 0.000000
C	 1.342113	 -0.299229	 1.940290
H	 -0.795198	 -0.211971	 1.857553
H	 -0.113921	 -1.586411	 1.027023
H	 1.476404	 0.748637	 2.177995
H	 1.373987	 -0.869912	 2.861166
H	 2.181186	 -0.614787	 1.327908

	symmetry c1
}
set optking {
	frozen_dihedral = ("
		12 9 6 3
	")
}

ee,wfn = optimize('scf', return_wfn=True)
oeprop( wfn, 'DIPOLE', 'QUADRUPOLE', 'MULLIKEN_CHARGES')
f=open( 'psi4out.xyz', 'w' )
f.write( "16  " )
f.write( str(ee) + "\n" )
f.write( MOL.save_string_xyz() )
f.close()
--------------------------------------------------------------------------

    Molecular point group: c1
  Charge       = 0
  Multiplicity = 1
  Basis Set: CC-PVTZ
  Basis Set:
  @DF-RHF Final Energy:  -212.38837991230611
    Total Energy =                       -212.3883799123062204
    Molecular point group: c1
  Basis Set: CC-PVTZ
  Basis Set:
  Basis Set: CC-PVTZ
  Basis Set:
  @DF-RHF Final Energy:  -212.38930061246916
    Total Energy =                       -212.3893006124692420
  Basis Set: CC-PVTZ
  Basis Set:
  Basis Set: CC-PVTZ
  Basis Set:
  @DF-RHF Final Energy:  -212.38947862919173
    Total Energy =                       -212.3894786291918422
  Basis Set: CC-PVTZ
  Basis Set:
  Basis Set: CC-PVTZ
  Basis Set:
  @DF-RHF Final Energy:  -212.38948987850654
    Total Energy =                       -212.3894898785064811
  Basis Set: CC-PVTZ
  Basis Set:
  Charge       = 0
  Multiplicity = 1
  Basis Set: CC-PVTZ
  Basis Set:

    Orbital Energies (a.u.)
    -----------------------

    Doubly Occupied:

       1A    -15.524799     2A    -11.239281     3A    -11.238596
       4A    -11.210235     5A    -11.206139     6A     -1.202671
       7A     -1.028201     8A     -0.964676     9A     -0.839413
      10A     -0.821693    11A     -0.643267    12A     -0.629308
      13A     -0.622792    14A     -0.575841    15A     -0.556078
      16A     -0.524744    17A     -0.507442    18A     -0.496293
      19A     -0.488679    20A     -0.473095    21A     -0.353463

  @DF-RHF Final Energy:  -212.38949161087439

   => Energetics <=

    Nuclear Repulsion Energy =            190.1709138723419130
    One-Electron Energy =                -662.8274012479575958
    Two-Electron Energy =                 260.2669957647411820
    DFT Exchange-Correlation Energy =       0.0000000000000000
    Empirical Dispersion Energy =           0.0000000000000000
    PCM Polarization Energy =               0.0000000000000000
    EFP Energy =                            0.0000000000000000
    Total Energy =                       -212.3894916108745292
    Molecular point group: c1
  Basis Set: CC-PVTZ
  Basis Set:

  -Total Gradient:
     Atom            X                  Y                   Z
    ------   -----------------  -----------------  -----------------
       1        0.000002382502     0.000006254404    -0.000004145422
       2        0.000007023006    -0.000000230029     0.000002228176
       3       -0.001199660765    -0.000178969077    -0.000031178031
       4       -0.000004334122    -0.000008959266     0.000007164020
       5        0.000009174010    -0.000000048424    -0.000001952644
       6        0.001448587157    -0.000052231202    -0.000207982529
       7       -0.000004151311     0.000004358192     0.000000555030
       8       -0.000011592087     0.000032729919     0.000013215885
       9        0.000691781804     0.001282404800     0.000860572220
      10        0.000007717667    -0.000007844112     0.000033380243
      11       -0.000049806626    -0.000007367050    -0.000086431042
      12       -0.000864354204    -0.001063288015    -0.000618271099
      13       -0.000004788719    -0.000012404324    -0.000026356185
      14        0.000010078341    -0.000007403356     0.000001803880
      15       -0.000001657491    -0.000013486925     0.000035836142
      16       -0.000036399163     0.000026484465     0.000021561357

  **** Optimization is complete! (in 5 steps) ****
    Final optimized geometry and variables:
    Molecular point group: c1

    Geometry (in Angstrom), charge = 0, multiplicity = 1:

    H           -0.265894215156    -0.073934214459    -3.261604027383
    C           -0.291221342145     0.516373748767    -2.353002294288
    C           -0.260848307681    -0.380738074008    -1.127276476482
    H           -1.188690064668     1.122449215082    -2.358891005931
    H            0.565098750305     1.183636584029    -2.369567234807
    N           -0.332418434035     0.400178702732     0.089653032069
    H           -1.115575581010    -1.047942865739    -1.151471045054
    H            0.629164369306    -1.014498484372    -1.166820681110
    C           -0.262102189685    -0.351472479274     1.333759658091
    H            0.349588223135     1.126783557644     0.077259357045
    C            1.062218150885    -0.198472892921     2.071039199750
    H           -1.076479572932    -0.051694775274     1.986154169659
    H           -0.427416612196    -1.401136332370     1.115253898879
    H            1.244039223922     0.841087636382     2.325096679047
    H            1.060324653502    -0.766758314366     2.994556562683
    H            1.891134048767    -0.545100482877     1.463089089097

  Mulliken Charges: (a.u.)
   Center  Symbol    Alpha    Beta     Spin     Total
       1     H     0.45372  0.45372  0.00000  0.09256
       2     C     3.14391  3.14391  0.00000 -0.28781
       3     C     3.01993  3.01993  0.00000 -0.03985
       4     H     0.44941  0.44941  0.00000  0.10118
       5     H     0.45963  0.45963  0.00000  0.08074
       6     N     3.64254  3.64254  0.00000 -0.28508
       7     H     0.45796  0.45796  0.00000  0.08409
       8     H     0.47578  0.47578  0.00000  0.04844
       9     C     3.02684  3.02684  0.00000 -0.05367
      10     H     0.44327  0.44327  0.00000  0.11346
      11     C     3.14872  3.14872  0.00000 -0.29744
      12     H     0.45457  0.45457  0.00000  0.09087
      13     H     0.46184  0.46184  0.00000  0.07631
      14     H     0.45628  0.45628  0.00000  0.08744
      15     H     0.45206  0.45206  0.00000  0.09589
      16     H     0.45356  0.45356  0.00000  0.09288

   Total alpha = 21.00000, Total beta = 21.00000, Total charge =  0.00000

*** Psi4 exiting successfully. Buy a developer a beer!
