  ==> Input File <==

--------------------------------------------------------------------------
set {
	reference rhf
	basis cc-pvtz
}

set_num_threads( 4 )
memory 2 gb

molecule MOL {
0 1

H	 3.459101	 0.139266	 -0.762951
C	 2.749156	 -0.051729	 0.031265
C	 1.322304	 0.099773	 -0.484271
H	 2.929445	 -1.053887	 0.403481
H	 2.954281	 0.646699	 0.834672
C	 0.308557	 -0.162619	 0.622645
H	 1.143368	 -0.594400	 -1.295960
H	 1.169532	 1.100095	 -0.870217
N	 -1.069352	 -0.004081	 0.085342
H	 0.371632	 -1.172932	 0.991288
H	 0.400391	 0.548875	 1.426218
O	 -1.219945	 0.765984	 -0.802858
O	 -1.929011	 -0.636798	 0.600703

	symmetry c1
}
set optking {
	frozen_dihedral = ("
		12 9 6 3
	")
}

ee = optimize('scf')
oeprop('DIPOLE', 'QUADRUPOLE', 'MULLIKEN_CHARGES')
f=open( 'psi4out.xyz', 'w' )
f.write( "13  " )
f.write( str(ee) + "\n" )
f.write( MOL.save_string_xyz() )
f.close()
--------------------------------------------------------------------------

    Molecular point group: c1
  Charge       = 0
  Multiplicity = 1
  Basis Set: CC-PVTZ
  Basis Set:
  @DF-RHF Final Energy:  -321.85944648280861
    Total Energy =                       -321.8594464828083801
    Molecular point group: c1
  Basis Set: CC-PVTZ
  Basis Set:
  Basis Set: CC-PVTZ
  Basis Set:
  @DF-RHF Final Energy:  -321.85978914047780
    Total Energy =                       -321.8597891404780285
  Basis Set: CC-PVTZ
  Basis Set:
  Basis Set: CC-PVTZ
  Basis Set:
  @DF-RHF Final Energy:  -321.86061406559025
    Total Energy =                       -321.8606140655901413
  Basis Set: CC-PVTZ
  Basis Set:
  Basis Set: CC-PVTZ
  Basis Set:
  @DF-RHF Final Energy:  -321.86069224024720
    Total Energy =                       -321.8606922402474311
  Basis Set: CC-PVTZ
  Basis Set:
  Basis Set: CC-PVTZ
  Basis Set:
  @DF-RHF Final Energy:  -321.86042546670376
    Total Energy =                       -321.8604254667037026
  Basis Set: CC-PVTZ
  Basis Set:
  Basis Set: CC-PVTZ
  Basis Set:
  @DF-RHF Final Energy:  -321.86071327958302
    Total Energy =                       -321.8607132795832513
  Basis Set: CC-PVTZ
  Basis Set:
  Charge       = 0
  Multiplicity = 1
  Basis Set: CC-PVTZ
  Basis Set:

    Orbital Energies (a.u.)
    -----------------------

    Doubly Occupied:

       1A    -20.591667     2A    -20.589945     3A    -15.838252
       4A    -11.298762     5A    -11.248152     6A    -11.235257
       7A     -1.637064     8A     -1.421180     9A     -1.131957
      10A     -1.026937    11A     -0.884790    12A     -0.828119
      13A     -0.763632    14A     -0.748784    15A     -0.730684
      16A     -0.660799    17A     -0.606529    18A     -0.579301
      19A     -0.552522    20A     -0.522327    21A     -0.509927
      22A     -0.487723    23A     -0.474431    24A     -0.454352

  @DF-RHF Final Energy:  -321.86071356844081

   => Energetics <=

    Nuclear Repulsion Energy =            247.6477909735595802
    One-Electron Energy =                -929.3708193196398497
    Two-Electron Energy =                 359.8623147776395399
    DFT Exchange-Correlation Energy =       0.0000000000000000
    Empirical Dispersion Energy =           0.0000000000000000
    PCM Polarization Energy =               0.0000000000000000
    EFP Energy =                            0.0000000000000000
    Total Energy =                       -321.8607135684407012
    Molecular point group: c1
  Basis Set: CC-PVTZ
  Basis Set:

  -Total Gradient:
     Atom            X                  Y                   Z
    ------   -----------------  -----------------  -----------------
       1        0.000001098992    -0.000002682066     0.000004806664
       2        0.000009530164    -0.000006369559    -0.000007149034
       3        0.000022535466     0.000301665643     0.000041877021
       4        0.000002230671    -0.000003827810     0.000000451780
       5       -0.000000512211     0.000003768323    -0.000001474735
       6       -0.000025224906    -0.000503089393    -0.000166314843
       7        0.000009056958     0.000001975152     0.000000360119
       8       -0.000007005855    -0.000005552185     0.000010487216
       9       -0.000146582578     0.000519578852     0.000379427171
      10       -0.000015831179    -0.000004734474    -0.000013772179
      11       -0.000002874154     0.000003212123    -0.000011548179
      12        0.000118392000    -0.000259077872    -0.000293785652
      13        0.000035186631    -0.000044866736     0.000056634650

  **** Optimization is complete! (in 7 steps) ****
    Final optimized geometry and variables:
    Molecular point group: c1

    Geometry (in Angstrom), charge = 0, multiplicity = 1:

    H            3.502238507201     0.125004804596    -0.748651275079
    C            2.770826645049    -0.062401404838     0.026602115387
    C            1.358374997046     0.122800020455    -0.520668653280
    H            2.927430134575    -1.070990276237     0.392618493176
    H            2.971343413503     0.623334753981     0.842575336741
    C            0.328296435593    -0.141335278757     0.560486511963
    H            1.190089641406    -0.555560529308    -1.348770261746
    H            1.231854280624     1.124881406345    -0.903133734452
    N           -1.079575182948    -0.009027889122     0.081002664826
    H            0.393131468851    -1.134589576619     0.971803165816
    H            0.403536203287     0.572342516005     1.370153299317
    O           -1.301420958748     0.752744369338    -0.798190206824
    O           -1.892780421886    -0.664234709146     0.641113225980

  Mulliken Charges: (a.u.)
   Center  Symbol    Alpha    Beta     Spin     Total
       1     H     0.44134  0.44134  0.00000  0.11732
       2     C     3.15227  3.15227  0.00000 -0.30454
       3     C     3.09298  3.09298  0.00000 -0.18596
       4     H     0.45272  0.45272  0.00000  0.09456
       5     H     0.45288  0.45288  0.00000  0.09423
       6     C     3.04450  3.04450  0.00000 -0.08900
       7     H     0.44308  0.44308  0.00000  0.11385
       8     H     0.43478  0.43478  0.00000  0.13045
       9     N     3.27456  3.27456  0.00000  0.45087
      10     H     0.43177  0.43177  0.00000  0.13646
      11     H     0.43628  0.43628  0.00000  0.12744
      12     O     4.17087  4.17087  0.00000 -0.34174
      13     O     4.17198  4.17198  0.00000 -0.34395

   Total alpha = 24.00000, Total beta = 24.00000, Total charge = -0.00000
