  ==> Input File <==

--------------------------------------------------------------------------
set {
	reference rhf
	basis 6-31G*
}

set_num_threads( 4 )
memory 2 gb

molecule MOL {
0 1

H	 -2.798360	 -0.862255	 -0.071053
N	 -1.863561	 -0.715187	 0.256814
C	 -1.344686	 0.554728	 -0.219830
H	 -1.300452	 -1.461917	 -0.101532
C	 0.081427	 0.741154	 0.254071
H	 -1.362155	 0.656231	 -1.305829
H	 -1.952773	 1.354456	 0.191809
O	 0.101382	 0.610586	 1.646781
H	 0.730400	 -0.006551	 -0.201350
H	 0.437859	 1.726597	 -0.037637
C	 1.344511	 0.844470	 2.227729
H	 1.237086	 0.714356	 3.296011
H	 2.092921	 0.143676	 1.862006
H	 1.692427	 1.855962	 2.028613

	symmetry c1
}
set optking {
	frozen_dihedral = ("
		8 5 3 6
	")
}

ee = optimize('scf')
oeprop('DIPOLE', 'QUADRUPOLE', 'MULLIKEN_CHARGES')
f=open( 'psi4out.xyz', 'w' )
f.write( "14  " )
f.write( str(ee) + "\n" )
f.write( MOL.save_string_xyz() )
f.close()
--------------------------------------------------------------------------

    Molecular point group: c1
  Charge       = 0
  Multiplicity = 1
  Basis Set: 6-31G*
  Basis Set:
  @DF-RHF Final Energy:  -248.11788206522530
    Total Energy =                       -248.1178820652253307
    Molecular point group: c1
  Basis Set: 6-31G*
  Basis Set:
  Basis Set: 6-31G*
  Basis Set:
  @DF-RHF Final Energy:  -248.11856100693032
    Total Energy =                       -248.1185610069304630
  Basis Set: 6-31G*
  Basis Set:
  Basis Set: 6-31G*
  Basis Set:
  @DF-RHF Final Energy:  -248.11869311605193
    Total Energy =                       -248.1186931160517020
  Basis Set: 6-31G*
  Basis Set:
  Basis Set: 6-31G*
  Basis Set:
  @DF-RHF Final Energy:  -248.11870028263598
    Total Energy =                       -248.1187002826362686
  Basis Set: 6-31G*
  Basis Set:
  Basis Set: 6-31G*
  Basis Set:
  @DF-RHF Final Energy:  -248.11870221439077
    Total Energy =                       -248.1187022143906802
  Basis Set: 6-31G*
  Basis Set:
  Charge       = 0
  Multiplicity = 1
  Basis Set: 6-31G*
  Basis Set:

    Orbital Energies (a.u.)
    -----------------------

    Doubly Occupied:

       1A    -20.549865     2A    -15.530459     3A    -11.268161
       4A    -11.261625     5A    -11.243815     6A     -1.377554
       7A     -1.175126     8A     -0.998513     9A     -0.904864
      10A     -0.817056    11A     -0.682395    12A     -0.664762
      13A     -0.649992    14A     -0.615372    15A     -0.586726
      16A     -0.565267    17A     -0.516740    18A     -0.501263
      19A     -0.463035    20A     -0.412149    21A     -0.378270

  @DF-RHF Final Energy:  -248.11870257650955

   => Energetics <=

    Nuclear Repulsion Energy =            193.8140166010450969
    One-Electron Energy =                -721.5394185930906588
    Two-Electron Energy =                 279.6066994155358998
    DFT Exchange-Correlation Energy =       0.0000000000000000
    Empirical Dispersion Energy =           0.0000000000000000
    PCM Polarization Energy =               0.0000000000000000
    EFP Energy =                            0.0000000000000000
    Total Energy =                       -248.1187025765096905
    Molecular point group: c1
  Basis Set: 6-31G*
  Basis Set:

  -Total Gradient:
     Atom            X                  Y                   Z
    ------   -----------------  -----------------  -----------------
       1        0.000008065937    -0.000007588299     0.000004489140
       2       -0.000004135135     0.000039867687    -0.000017592808
       3       -0.000595041640     0.003121120996     0.000258703194
       4        0.000005845759     0.000013820870     0.000007575543
       5       -0.000545289829     0.002868841830     0.000349546937
       6        0.000614467239    -0.003347791795    -0.000272624397
       7       -0.000008060121     0.000010188616    -0.000001566680
       8        0.000512630344    -0.002699480322    -0.000302528689
       9        0.000009928190    -0.000003039656    -0.000020221962
      10        0.000011230356     0.000005847065    -0.000014952996
      11        0.000003635342    -0.000000405238     0.000020038450
      12       -0.000002827079    -0.000000458095    -0.000003622841
      13       -0.000005797342     0.000002506717    -0.000003327673
      14       -0.000004652025    -0.000003430376    -0.000003915219

  **** Optimization is complete! (in 6 steps) ****
    Final optimized geometry and variables:
    Molecular point group: c1

    Geometry (in Angstrom), charge = 0, multiplicity = 1:

    H           -2.488124997741    -1.262994591308    -0.963521588152
    N           -1.553898028157    -1.141601914525    -0.624553040941
    C           -1.018821349312     0.138105286612    -1.055497060807
    H           -1.006708323664    -1.898127334759    -0.988713914338
    C            0.394377111108     0.361681606021    -0.546247635638
    H           -0.981337848444     0.231308414908    -2.144251807205
    H           -1.663007267187     0.921532134337    -0.673766306481
    O            0.437963530945     0.260146835506     0.838764723651
    H            1.064780810386    -0.375372614436    -0.994824563416
    H            0.737855386677     1.344144824651    -0.872629942145
    C            1.703814809133     0.447896225822     1.381835394611
    H            1.617268947670     0.343936038393     2.454592155963
    H            2.410972417289    -0.293571457763     1.012854157050
    H            2.096024826821     1.438341852136     1.154638062694

  Mulliken Charges: (a.u.)
   Center  Symbol    Alpha    Beta     Spin     Total
       1     H     0.33246  0.33246  0.00000  0.33508
       2     N     3.91153  3.91153  0.00000 -0.82305
       3     C     3.06898  3.06898  0.00000 -0.13796
       4     H     0.33635  0.33635  0.00000  0.32729
       5     C     2.98885  2.98885  0.00000  0.02230
       6     H     0.43497  0.43497  0.00000  0.13007
       7     H     0.41266  0.41266  0.00000  0.17468
       8     O     4.29256  4.29256  0.00000 -0.58512
       9     H     0.43692  0.43692  0.00000  0.12616
      10     H     0.43089  0.43089  0.00000  0.13822
      11     C     3.07938  3.07938  0.00000 -0.15876
      12     H     0.41082  0.41082  0.00000  0.17837
      13     H     0.43150  0.43150  0.00000  0.13701
      14     H     0.43214  0.43214  0.00000  0.13572

   Total alpha = 21.00000, Total beta = 21.00000, Total charge = -0.00000
