                              Psi4 1.0.54 Driver

  ==> Input File <==

--------------------------------------------------------------------------
set {
	reference rhf
	basis cc-pvtz
}

set_num_threads( 4 )
memory 2 gb

molecule MOL {
0 1

H	 -0.000105	 1.988529	 0.748933
O	 -0.000098	 1.879786	 -0.188206
C	 -0.000014	 0.545691	 -0.532416
C	 -1.286000	 -0.125171	 -0.046657
C	 1.286016	 -0.125031	 -0.046584
H	 0.000021	 0.481103	 -1.610604
F	 -1.512695	 -1.197821	 -0.764217
F	 -1.213879	 -0.489208	 1.208726
F	 -2.323284	 0.672830	 -0.183079
F	 2.317750	 0.468717	 -0.594166
F	 1.336617	 -1.393765	 -0.365123
F	 1.414467	 -0.024806	 1.259108

	symmetry c1
}
set optking {
	frozen_dihedral = ("
		7 4 3 6
	")
}

ee,wfn = optimize('scf', return_wfn=True)
oeprop( wfn, 'DIPOLE', 'QUADRUPOLE', 'MULLIKEN_CHARGES')
f=open( 'psi4out.xyz', 'w' )
f.write( "12  " )
f.write( str(ee) + "\n" )
f.write( MOL.save_string_xyz() )
f.close()
--------------------------------------------------------------------------

    Molecular point group: c1
  Charge       = 0
  Multiplicity = 1
  Basis Set: CC-PVTZ
  Basis Set:
  @DF-RHF Final Energy:  -786.58689037523607
    Total Energy =                       -786.5868903752357255
    Molecular point group: c1
  Basis Set: CC-PVTZ
  Basis Set:
  Basis Set: CC-PVTZ
  Basis Set:
  @DF-RHF Final Energy:  -786.58782454688082
    Total Energy =                       -786.5878245468805972
  Basis Set: CC-PVTZ
  Basis Set:
  Basis Set: CC-PVTZ
  Basis Set:
  @DF-RHF Final Energy:  -786.58820043435117
    Total Energy =                       -786.5882004343510516
  Basis Set: CC-PVTZ
  Basis Set:
  Basis Set: CC-PVTZ
  Basis Set:
  @DF-RHF Final Energy:  -786.58826257886869
    Total Energy =                       -786.5882625788683526
  Basis Set: CC-PVTZ
  Basis Set:
  Basis Set: CC-PVTZ
  Basis Set:
  @DF-RHF Final Energy:  -786.58827775716713
    Total Energy =                       -786.5882777571673614
  Basis Set: CC-PVTZ
  Basis Set:
  Basis Set: CC-PVTZ
  Basis Set:
  @DF-RHF Final Energy:  -786.58828222271620
    Total Energy =                       -786.5882822227163160
  Basis Set: CC-PVTZ
  Basis Set:
  Charge       = 0
  Multiplicity = 1
  Basis Set: CC-PVTZ
  Basis Set:

    Orbital Energies (a.u.)
    -----------------------

    Doubly Occupied:

       1A    -26.358909     2A    -26.358643     3A    -26.357631
       4A    -26.355183     5A    -26.354685     6A    -26.352325
       7A    -20.610679     8A    -11.520094     9A    -11.518542
      10A    -11.351492    11A     -1.771959    12A     -1.765797
      13A     -1.667230    14A     -1.664279    15A     -1.662457
      16A     -1.659921    17A     -1.440693    18A     -1.103641
      19A     -1.000954    20A     -0.944733    21A     -0.870909
      22A     -0.868682    23A     -0.858662    24A     -0.852689
      25A     -0.839385    26A     -0.821144    27A     -0.746752
      28A     -0.734795    29A     -0.732675    30A     -0.727236
      31A     -0.696036    32A     -0.692209    33A     -0.690241
      34A     -0.681575    35A     -0.677112    36A     -0.667489
      37A     -0.664755    38A     -0.658291    39A     -0.624509
      40A     -0.553058    41A     -0.510001

  @DF-RHF Final Energy:  -786.58828331971677

   => Energetics <=

    Nuclear Repulsion Energy =            671.3789039486330239
    One-Electron Energy =               -2429.9582704870472298
    Two-Electron Energy =                 971.9910832186969856
    DFT Exchange-Correlation Energy =       0.0000000000000000
    Empirical Dispersion Energy =           0.0000000000000000
    PCM Polarization Energy =               0.0000000000000000
    EFP Energy =                            0.0000000000000000
    Total Energy =                       -786.5882833197172204
    Molecular point group: c1
  Basis Set: CC-PVTZ
  Basis Set:

  -Total Gradient:
     Atom            X                  Y                   Z
    ------   -----------------  -----------------  -----------------
       1        0.000005135361    -0.000038963830    -0.000020871806
       2       -0.000010577600    -0.000032882029    -0.000047545141
       3       -0.002373328599     0.004007394756    -0.000584901499
       4        0.002260156887    -0.002632917191     0.002178661823
       5       -0.000064362884     0.000011740712    -0.000051262549
       6        0.001658552424    -0.002868728795     0.000106614213
       7       -0.001491209298     0.001625023293    -0.001738576684
       8        0.000002924840    -0.000046700026     0.000112646507
       9       -0.000011966083    -0.000009109285     0.000007845867
      10       -0.000013094528     0.000012767983     0.000040312231
      11        0.000009969167    -0.000047127754     0.000005320976
      12        0.000027800327     0.000019502174    -0.000008243942

  **** Optimization is complete! (in 7 steps) ****
    Final optimized geometry and variables:
    Molecular point group: c1

    Geometry (in Angstrom), charge = 0, multiplicity = 1:

    H            0.084901202478     1.987056507066     0.837387911051
    O            0.034541632370     1.913856999587    -0.101668264954
    C            0.007503112232     0.598067170411    -0.499586981582
    C           -1.279444752467    -0.114567794383    -0.063952250197
    C            1.274006148072    -0.123498614214    -0.033028768123
    H            0.026222403746     0.563869995150    -1.578723579184
    F           -1.497434306994    -1.175532916135    -0.802789561723
    F           -1.246929464123    -0.486238632124     1.196375668955
    F           -2.303145001053     0.688437287653    -0.213943951605
    F            2.313803299873     0.353603044117    -0.672202083048
    F            1.215413182123    -1.412707427001    -0.258781931740
    F            1.482012519791     0.058437166317     1.253074965224

  Mulliken Charges: (a.u.)
   Center  Symbol    Alpha    Beta     Spin     Total
       1     H     0.38262  0.38262  0.00000  0.23476
       2     O     4.18635  4.18635  0.00000 -0.37270
       3     C     3.00740  3.00740  0.00000 -0.01479
       4     C     2.68341  2.68341  0.00000  0.63318
       5     C     2.68245  2.68245  0.00000  0.63510
       6     H     0.42628  0.42628  0.00000  0.14745
       7     F     4.60550  4.60550  0.00000 -0.21100
       8     F     4.60786  4.60786  0.00000 -0.21572
       9     F     4.60116  4.60116  0.00000 -0.20232
      10     F     4.60255  4.60255  0.00000 -0.20510
      11     F     4.60353  4.60353  0.00000 -0.20706
      12     F     4.61090  4.61090  0.00000 -0.22180

   Total alpha = 41.00000, Total beta = 41.00000, Total charge = -0.00000

*** Psi4 exiting successfully. Buy a developer a beer!
