  ==> Input File <==

--------------------------------------------------------------------------
set {
	reference rhf
	basis 6-31G*
}

set_num_threads( 4 )
memory 2 gb

molecule MOL {
0 1

H	 2.091257	 1.938942	 1.206580
N	 1.224591	 1.442363	 1.130349
C	 1.267428	 0.496480	 0.024474
H	 0.510147	 2.128810	 0.977794
C	 -0.016086	 -0.325158	 -0.029487
H	 2.110935	 -0.166842	 0.190410
H	 1.431771	 0.975607	 -0.943931
C	 -1.282277	 0.529072	 0.046735
H	 -0.012495	 -0.908639	 -0.945788
H	 -0.015903	 -1.041248	 0.791956
C	 -2.563920	 -0.301775	 -0.006060
H	 -1.284084	 1.244622	 -0.773004
H	 -1.271387	 1.115393	 0.963286
H	 -2.621848	 -0.873522	 -0.927727
H	 -3.445135	 0.329952	 0.047812
H	 -2.609542	 -1.004582	 0.821105

	symmetry c1
}
set optking {
	frozen_dihedral = ("
		6 3 5 9
	")
}

ee = optimize('scf')
oeprop('DIPOLE', 'QUADRUPOLE', 'MULLIKEN_CHARGES')
f=open( 'psi4out.xyz', 'w' )
f.write( "16  " )
f.write( str(ee) + "\n" )
f.write( MOL.save_string_xyz() )
f.close()
--------------------------------------------------------------------------

    Molecular point group: c1
  Charge       = 0
  Multiplicity = 1
  Basis Set: 6-31G*
  Basis Set:
  @DF-RHF Final Energy:  -212.31402146087069
    Total Energy =                       -212.3140214608706628
    Molecular point group: c1
  Basis Set: 6-31G*
  Basis Set:
  Basis Set: 6-31G*
  Basis Set:
  @DF-RHF Final Energy:  -212.31454357629838
    Total Energy =                       -212.3145435762984903
  Basis Set: 6-31G*
  Basis Set:
  Basis Set: 6-31G*
  Basis Set:
  @DF-RHF Final Energy:  -212.31518520061613
    Total Energy =                       -212.3151852006160425
  Basis Set: 6-31G*
  Basis Set:
  Basis Set: 6-31G*
  Basis Set:
  @DF-RHF Final Energy:  -212.31522226039453
    Total Energy =                       -212.3152222603944210
  Basis Set: 6-31G*
  Basis Set:
  Basis Set: 6-31G*
  Basis Set:
  @DF-RHF Final Energy:  -212.31524354513374
    Total Energy =                       -212.3152435451337396
  Basis Set: 6-31G*
  Basis Set:
  Basis Set: 6-31G*
  Basis Set:
  @DF-RHF Final Energy:  -212.31524662982918
    Total Energy =                       -212.3152466298291756
  Basis Set: 6-31G*
  Basis Set:
  Charge       = 0
  Multiplicity = 1
  Basis Set: 6-31G*
  Basis Set:

    Orbital Energies (a.u.)
    -----------------------

    Doubly Occupied:

       1A    -15.532441     2A    -11.240511     3A    -11.212637
       4A    -11.209153     5A    -11.206732     6A     -1.176679
       7A     -1.055322     8A     -0.959677     9A     -0.851257
      10A     -0.778180    11A     -0.663761    12A     -0.648806
      13A     -0.595072    14A     -0.584562    15A     -0.546508
      16A     -0.524280    17A     -0.513580    18A     -0.470878
      19A     -0.466001    20A     -0.451781    21A     -0.380730

  @DF-RHF Final Energy:  -212.31524687388779

   => Energetics <=

    Nuclear Repulsion Energy =            189.2696090128100934
    One-Electron Energy =                -661.0326158731762689
    Two-Electron Energy =                 259.4477599864785589
    DFT Exchange-Correlation Energy =       0.0000000000000000
    Empirical Dispersion Energy =           0.0000000000000000
    PCM Polarization Energy =               0.0000000000000000
    EFP Energy =                            0.0000000000000000
    Total Energy =                       -212.3152468738876451
    Molecular point group: c1
  Basis Set: 6-31G*
  Basis Set:

  -Total Gradient:
     Atom            X                  Y                   Z
    ------   -----------------  -----------------  -----------------
       1       -0.000002407824    -0.000016715490    -0.000017189600
       2       -0.000033741992     0.000009459618     0.000004519430
       3       -0.000023998927     0.000057847683    -0.004719263378
       4        0.000005382430     0.000007793798     0.000014335362
       5        0.002021619137    -0.003112980689     0.002888665404
       6       -0.000274459006     0.000414033616     0.003537765488
       7       -0.000004423687    -0.000008032258    -0.000011494033
       8       -0.000008939032     0.000018128229     0.000010456499
       9       -0.001691265894     0.002653803441    -0.001687560296
      10        0.000006663430    -0.000006534037     0.000000163643
      11        0.000005923100    -0.000007160072    -0.000012216260
      12       -0.000008859788     0.000004455891    -0.000004027364
      13        0.000004976009    -0.000009996280    -0.000003763047
      14       -0.000002002328    -0.000009346131    -0.000000263309
      15        0.000009968575     0.000001828871    -0.000005296391
      16       -0.000004434200     0.000003413811     0.000005167854

  **** Optimization is complete! (in 7 steps) ****
    Final optimized geometry and variables:
    Molecular point group: c1

    Geometry (in Angstrom), charge = 0, multiplicity = 1:

    H            2.468758540750     1.462382641302     0.970338003696
    N            1.551714432751     1.070406546554     0.878069399197
    C            1.514985210371     0.120466071041    -0.228033526199
    H            0.928250004160     1.836876996223     0.715782652060
    C            0.229239040847    -0.707170630505    -0.222234719168
    H            2.355927499588    -0.549398275366    -0.082157091901
    H            1.638992297064     0.596305487570    -1.203102866385
    C           -1.055163968150     0.125976904783    -0.176110402432
    H            0.207926891223    -1.303090361346    -1.133056158466
    H            0.245942352929    -1.389067578983     0.622819744615
    C           -2.314765917425    -0.732522856330    -0.289448558094
    H           -1.044909023887     0.855224473131    -0.985672312544
    H           -1.091380085402     0.687513782052     0.752225190986
    H           -2.333566745596    -1.282328222297    -1.226284407689
    H           -3.212069809999    -0.122887523707    -0.245399966430
    H           -2.366937287489    -1.456305494572     0.518901064139

  Mulliken Charges: (a.u.)
   Center  Symbol    Alpha    Beta     Spin     Total
       1     H     0.33205  0.33205  0.00000  0.33590
       2     N     3.92317  3.92317  0.00000 -0.84634
       3     C     3.06647  3.06647  0.00000 -0.13295
       4     H     0.33278  0.33278  0.00000  0.33445
       5     C     3.14473  3.14473  0.00000 -0.28947
       6     H     0.41915  0.41915  0.00000  0.16170
       7     H     0.43344  0.43344  0.00000  0.13312
       8     C     3.16081  3.16081  0.00000 -0.32162
       9     H     0.42626  0.42626  0.00000  0.14748
      10     H     0.41709  0.41709  0.00000  0.16581
      11     C     3.23845  3.23845  0.00000 -0.47690
      12     H     0.42748  0.42748  0.00000  0.14503
      13     H     0.41511  0.41511  0.00000  0.16979
      14     H     0.42266  0.42266  0.00000  0.15468
      15     H     0.41998  0.41998  0.00000  0.16005
      16     H     0.42036  0.42036  0.00000  0.15927

   Total alpha = 21.00000, Total beta = 21.00000, Total charge =  0.00000
