                              Psi4 1.0.54 Driver

  ==> Input File <==

--------------------------------------------------------------------------
set {
	reference rhf
	basis cc-pvtz
}

set_num_threads( 4 )
memory 2 gb

molecule MOL {
0 1

O	 0.889609	 0.158689	 -0.857956
C	 1.704209	 0.119472	 -0.000093
C	 1.738547	 1.009086	 1.216068
O	 2.715427	 -0.733672	 0.000025
C	 0.597756	 2.014918	 1.272835
H	 1.735667	 0.361911	 2.087047
H	 2.702506	 1.507274	 1.221956
C	 0.663722	 2.898020	 2.515331
H	 -0.347565	 1.484821	 1.247567
H	 0.620247	 2.631354	 0.381325
C	 -0.472432	 3.913945	 2.589627
H	 0.643292	 2.273551	 3.405764
H	 1.615449	 3.424343	 2.536235
C	 -0.406834	 4.796256	 3.831656
H	 -1.423491	 3.389301	 2.569787
H	 -0.451997	 4.539273	 1.701535
H	 -0.459978	 4.201763	 4.737740
H	 -1.226669	 5.504873	 3.853280
H	 0.519020	 5.361130	 3.862428
C	 4.020999	 -0.192556	 0.000019
H	 4.182809	 0.412891	 -0.879449
H	 4.692590	 -1.035653	 0.000152
H	 4.182726	 0.413087	 0.879368

	symmetry c1
}
set optking {
	frozen_dihedral = ("
		1 2 4 20
	")
}

ee,wfn = optimize('scf', return_wfn=True)
oeprop( wfn, 'DIPOLE', 'QUADRUPOLE', 'MULLIKEN_CHARGES')
f=open( 'psi4out.xyz', 'w' )
f.write( "23  " )
f.write( str(ee) + "\n" )
f.write( MOL.save_string_xyz() )
f.close()
--------------------------------------------------------------------------

    Molecular point group: c1
  Charge       = 0
  Multiplicity = 1
  Basis Set: CC-PVTZ
  Basis Set:
  @DF-RHF Final Energy:  -423.10686312423877
    Total Energy =                       -423.1068631242385436
    Molecular point group: c1
  Basis Set: CC-PVTZ
  Basis Set:
  Basis Set: CC-PVTZ
  Basis Set:
  @DF-RHF Final Energy:  -423.10646000398413
    Total Energy =                       -423.1064600039838979
  Basis Set: CC-PVTZ
  Basis Set:
  Basis Set: CC-PVTZ
  Basis Set:
  @DF-RHF Final Energy:  -423.11055067030884
    Total Energy =                       -423.1105506703089532
  Basis Set: CC-PVTZ
  Basis Set:
  Basis Set: CC-PVTZ
  Basis Set:
  @DF-RHF Final Energy:  -423.11128976353928
    Total Energy =                       -423.1112897635397303
  Basis Set: CC-PVTZ
  Basis Set:
  @DF-RHF Final Energy:  -423.11142160069306
    Total Energy =                       -423.1114216006928928
  Basis Set: CC-PVTZ
  Basis Set:
  @DF-RHF Final Energy:  -423.11150157920633
    Total Energy =                       -423.1115015792064469
  Basis Set: CC-PVTZ
  Basis Set:
  Basis Set: CC-PVTZ
  Basis Set:
  @DF-RHF Final Energy:  -423.11150725655028
    Total Energy =                       -423.1115072565501123
  Basis Set: CC-PVTZ
  Basis Set:
  Basis Set: CC-PVTZ
  Basis Set:
  @DF-RHF Final Energy:  -423.11151032527607
    Total Energy =                       -423.1115103252765266
  Basis Set: CC-PVTZ
  Basis Set:
  Charge       = 0
  Multiplicity = 1
  Basis Set: CC-PVTZ
  Basis Set:

    Orbital Energies (a.u.)
    -----------------------

    Doubly Occupied:

       1A    -20.581614     2A    -20.541265     3A    -11.367162
       4A    -11.291464     5A    -11.240228     6A    -11.221058
       7A    -11.219232     8A    -11.217022     9A    -11.209940
      10A     -1.461715    11A     -1.369957    12A     -1.096967
      13A     -1.042590    14A     -0.981611    15A     -0.949197
      16A     -0.853306    17A     -0.798954    18A     -0.766458
      19A     -0.699138    20A     -0.683000    21A     -0.677231
      22A     -0.653700    23A     -0.620216    24A     -0.607476
      25A     -0.581210    26A     -0.570484    27A     -0.557673
      28A     -0.539828    29A     -0.511522    30A     -0.501217
      31A     -0.487326    32A     -0.480098    33A     -0.471155
      34A     -0.468909    35A     -0.452756    36A     -0.434229

  @DF-RHF Final Energy:  -423.11151086253494

   => Energetics <=

    Nuclear Repulsion Energy =            454.2965920338890555
    One-Electron Energy =               -1476.4023895113605249
    Two-Electron Energy =                 598.9942866149361862
    DFT Exchange-Correlation Energy =       0.0000000000000000
    Empirical Dispersion Energy =           0.0000000000000000
    PCM Polarization Energy =               0.0000000000000000
    EFP Energy =                            0.0000000000000000
    Total Energy =                       -423.1115108625352832
    Molecular point group: c1
  Basis Set: CC-PVTZ
  Basis Set:

  -Total Gradient:
     Atom            X                  Y                   Z
    ------   -----------------  -----------------  -----------------
       1        0.001707537675     0.001975492177    -0.001192595578
       2       -0.002555427994    -0.002497186053     0.000468270654
       3       -0.000025348433    -0.000019712640     0.000015690752
       4        0.000922412452     0.000306659366     0.003137078484
       5        0.000020864983    -0.000021908056     0.000006512822
       6        0.000001993521    -0.000014082503    -0.000000888872
       7       -0.000011825050    -0.000012393465     0.000000350326
       8       -0.000009127949     0.000008574464    -0.000006640854
       9       -0.000006998253    -0.000001184060    -0.000002531272
      10       -0.000004470911     0.000008800508    -0.000005822457
      11        0.000004791845     0.000001259977     0.000006011884
      12        0.000000372088    -0.000003995498     0.000003816475
      13        0.000003316275     0.000003425400     0.000000490407
      14        0.000001748352    -0.000003423398    -0.000005445377
      15       -0.000002422216    -0.000002614050    -0.000000271219
      16        0.000000720551     0.000003624991    -0.000004269271
      17       -0.000000496769    -0.000003251319     0.000004579171
      18       -0.000002326759     0.000000356918     0.000000258935
      19        0.000001708383     0.000002627930    -0.000000794848
      20       -0.000074572533     0.000261282165    -0.002414949510
      21        0.000001592365     0.000005310548    -0.000003663849
      22        0.000006332639     0.000003090257     0.000002627950
      23        0.000019625737    -0.000000753668    -0.000007814753

  **** Optimization is complete! (in 9 steps) ****
    Final optimized geometry and variables:
    Molecular point group: c1

    Geometry (in Angstrom), charge = 0, multiplicity = 1:

    O           -0.236346823045    -1.054336385412    -2.165543629963
    C            0.549729403737    -1.178875081992    -1.299790073424
    C            0.514194673905    -0.407461114992    -0.000985899615
    O            1.542588080359    -2.081454333183    -1.408799272340
    C           -0.742095135919     0.434667390205     0.176113472780
    H            0.624752251440    -1.124618924687     0.806077587690
    H            1.396733760483     0.224193688153     0.038045700855
    C           -0.746866615132     1.201457450129     1.495250629813
    H           -1.612453816166    -0.209390291150     0.121340837547
    H           -0.827110640565     1.125989396761    -0.653872944325
    C           -2.001814844128     2.047066574686     1.691598835725
    H           -0.654958097263     0.501557773170     2.322858695826
    H            0.128589006671     1.845588616648     1.544017192334
    C           -2.006806992613     2.814248737493     3.009425513065
    H           -2.876657742522     1.404857443210     1.644804187783
    H           -2.094329553086     2.747117401801     0.866119526727
    H           -1.950013249920     2.138480351572     3.856387709238
    H           -2.910425611490     3.402897104283     3.116951277267
    H           -1.161742418805     3.491969539923     3.071544404531
    C            2.880314373186    -1.646016921536    -1.368187122737
    H            3.047992096769    -0.846366784270    -2.079824892010
    H            3.484952089642    -2.494006838528    -1.645674920668
    H            3.169089687800    -1.317826136640    -0.377409918583

  Mulliken Charges: (a.u.)
   Center  Symbol    Alpha    Beta     Spin     Total
       1     O     4.16804  4.16804  0.00000 -0.33608
       2     C     2.79281  2.79281  0.00000  0.41439
       3     C     3.13143  3.13143  0.00000 -0.26285
       4     O     4.15428  4.15428  0.00000 -0.30856
       5     C     3.08392  3.08392  0.00000 -0.16784
       6     H     0.43616  0.43616  0.00000  0.12767
       7     H     0.44516  0.44516  0.00000  0.10967
       8     C     3.08773  3.08773  0.00000 -0.17545
       9     H     0.44495  0.44495  0.00000  0.11011
      10     H     0.44380  0.44380  0.00000  0.11239
      11     C     3.08490  3.08490  0.00000 -0.16980
      12     H     0.45555  0.45555  0.00000  0.08891
      13     H     0.45654  0.45654  0.00000  0.08692
      14     C     3.15026  3.15026  0.00000 -0.30052
      15     H     0.45255  0.45255  0.00000  0.09490
      16     H     0.45283  0.45283  0.00000  0.09434
      17     H     0.45520  0.45520  0.00000  0.08959
      18     H     0.44726  0.44726  0.00000  0.10548
      19     H     0.45551  0.45551  0.00000  0.08898
      20     C     3.04516  3.04516  0.00000 -0.09033
      21     H     0.45780  0.45780  0.00000  0.08439
      22     H     0.43674  0.43674  0.00000  0.12651
      23     H     0.46142  0.46142  0.00000  0.07716

   Total alpha = 36.00000, Total beta = 36.00000, Total charge = -0.00000

*** Psi4 exiting successfully. Buy a developer a beer!
