  ==> Input File <==

--------------------------------------------------------------------------
set {
	reference rhf
	basis 6-31G*
}

set_num_threads( 4 )
memory 2 gb

molecule MOL {
0 1

O	 0.802994	 1.961125	 -0.391990
C	 -0.098254	 2.060893	 -1.160652
C	 -1.366591	 1.243159	 -1.137708
O	 -0.103723	 2.928208	 -2.164997
C	 -1.412532	 0.227344	 -0.000452
H	 -2.199867	 1.938088	 -1.078728
H	 -1.456274	 0.755825	 -2.104774
C	 -2.706999	 -0.587347	 -0.000541
H	 -1.303702	 0.745327	 0.947363
H	 -0.558711	 -0.438376	 -0.079887
C	 -3.956778	 0.291888	 0.000910
H	 -2.726114	 -1.239230	 -0.871609
H	 -2.725217	 -1.240844	 0.869333
H	 -3.985213	 0.933254	 -0.875158
H	 -4.860123	 -0.309979	 0.000519
H	 -3.984618	 0.931166	 0.878514
C	 1.033203	 3.761325	 -2.300846
H	 1.165743	 4.370283	 -1.418185
H	 0.841124	 4.384941	 -3.160007
H	 1.922202	 3.168116	 -2.459879

	symmetry c1
}
set optking {
	frozen_dihedral = ("
		9 5 8 12
	")
}

ee = optimize('scf')
oeprop('DIPOLE', 'QUADRUPOLE', 'MULLIKEN_CHARGES')
f=open( 'psi4out.xyz', 'w' )
f.write( "20  " )
f.write( str(ee) + "\n" )
f.write( MOL.save_string_xyz() )
f.close()
--------------------------------------------------------------------------

    Molecular point group: c1
  Charge       = 0
  Multiplicity = 1
  Basis Set: 6-31G*
  Basis Set:
  @DF-RHF Final Energy:  -383.93821122792150
    Total Energy =                       -383.9382112279211015
    Molecular point group: c1
  Basis Set: 6-31G*
  Basis Set:
  Basis Set: 6-31G*
  Basis Set:
  @DF-RHF Final Energy:  -383.93896906402239
    Total Energy =                       -383.9389690640221033
  Basis Set: 6-31G*
  Basis Set:
  Basis Set: 6-31G*
  Basis Set:
  @DF-RHF Final Energy:  -383.93966843098900
    Total Energy =                       -383.9396684309891725
  Basis Set: 6-31G*
  Basis Set:
  Basis Set: 6-31G*
  Basis Set:
  @DF-RHF Final Energy:  -383.93914202582130
    Total Energy =                       -383.9391420258211838
  Basis Set: 6-31G*
  Basis Set:
  Basis Set: 6-31G*
  Basis Set:
  @DF-RHF Final Energy:  -383.93975553082043
    Total Energy =                       -383.9397555308204346
  Basis Set: 6-31G*
  Basis Set:
  Basis Set: 6-31G*
  Basis Set:
  @DF-RHF Final Energy:  -383.93976395105040
    Total Energy =                       -383.9397639510503950
  Basis Set: 6-31G*
  Basis Set:
  Charge       = 0
  Multiplicity = 1
  Basis Set: 6-31G*
  Basis Set:

    Orbital Energies (a.u.)
    -----------------------

    Doubly Occupied:

       1A    -20.603641     2A    -20.545506     3A    -11.372397
       4A    -11.280864     5A    -11.235292     6A    -11.220475
       7A    -11.219392     8A    -11.212932     9A     -1.469380
      10A     -1.362830    11A     -1.088611    12A     -1.022460
      13A     -0.967759    14A     -0.896271    15A     -0.799391
      16A     -0.763562    17A     -0.701622    18A     -0.682836
      19A     -0.671964    20A     -0.635910    21A     -0.609540
      22A     -0.594559    23A     -0.569311    24A     -0.548884
      25A     -0.536211    26A     -0.522865    27A     -0.509339
      28A     -0.473354    29A     -0.469632    30A     -0.468695
      31A     -0.455619    32A     -0.437853

  @DF-RHF Final Energy:  -383.93976479210022

   => Energetics <=

    Nuclear Repulsion Energy =            384.9934919270675096
    One-Electron Energy =               -1285.9685934022322726
    Two-Electron Energy =                 517.0353366830646564
    DFT Exchange-Correlation Energy =       0.0000000000000000
    Empirical Dispersion Energy =           0.0000000000000000
    PCM Polarization Energy =               0.0000000000000000
    EFP Energy =                            0.0000000000000000
    Total Energy =                       -383.9397647921001635
    Molecular point group: c1
  Basis Set: 6-31G*
  Basis Set:

  -Total Gradient:
     Atom            X                  Y                   Z
    ------   -----------------  -----------------  -----------------
       1       -0.000004076649     0.000022762604    -0.000017425065
       2       -0.000012502499    -0.000006246712     0.000011033062
       3        0.000014279346    -0.000027506243     0.000009181114
       4        0.000021407274    -0.000006213527     0.000013381471
       5       -0.001070460724     0.001540144650    -0.000645947751
       6       -0.000016144300     0.000003461475     0.000007887620
       7       -0.000003436007     0.000004028512     0.000015474362
       8       -0.000908248845     0.001335646455    -0.001076679207
       9        0.001035497765    -0.001472228784     0.000699604422
      10       -0.000002825233    -0.000006112482    -0.000004809643
      11        0.000033537813    -0.000018009067    -0.000000503001
      12        0.000906796454    -0.001351041454     0.001002312412
      13       -0.000033330383    -0.000014936338     0.000010391150
      14        0.000007992127    -0.000004384653    -0.000005498356
      15        0.000001481806    -0.000011162659     0.000008539158
      16        0.000019375810    -0.000002515016    -0.000012916942
      17        0.000003081730     0.000005457698    -0.000015901874
      18       -0.000000583547    -0.000000138731     0.000001059425
      19        0.000007805096     0.000005888999     0.000000353271
      20        0.000000352962     0.000003105273     0.000000464370

  **** Optimization is complete! (in 7 steps) ****
    Final optimized geometry and variables:
    Molecular point group: c1

    Geometry (in Angstrom), charge = 0, multiplicity = 1:

    O            1.779042158882     0.411700127810     0.496921535700
    C            0.871873942333     0.556295509260    -0.257469213205
    C           -0.431276625874    -0.205054244981    -0.223609918500
    O            0.889526807756     1.432127295384    -1.254467690221
    C           -0.500782510209    -1.223260355826     0.911153018217
    H           -1.227019502029     0.529742213242    -0.159283225535
    H           -0.549842158310    -0.687264781087    -1.190687469783
    C           -1.759107969193    -2.098105654990     0.889520785328
    H           -0.423502980724    -0.713507121595     1.866906677108
    H            0.371455029900    -1.865868183283     0.853699451128
    C           -3.081759865997    -1.332902534743     0.949320802355
    H           -1.740928180130    -2.738289289189     0.009714244871
    H           -1.708117836790    -2.771170773923     1.741661991121
    H           -3.248665629763    -0.735053826740     0.059070543221
    H           -3.918162672191    -2.018736847287     1.039473659232
    H           -3.108538713606    -0.665888384654     1.806928449936
    C            2.059631762950     2.216075220298    -1.400535755256
    H            2.231726619924     2.810639190303    -0.514881532927
    H            1.882339924195     2.855284483234    -2.251390873176
    H            2.919446298550     1.586214743484    -1.578053251032

  Mulliken Charges: (a.u.)
   Center  Symbol    Alpha    Beta     Spin     Total
       1     O     4.28579  4.28579  0.00000 -0.57159
       2     C     2.60505  2.60505  0.00000  0.78990
       3     C     3.20989  3.20989  0.00000 -0.41978
       4     O     4.30735  4.30735  0.00000 -0.61470
       5     C     3.15341  3.15341  0.00000 -0.30682
       6     H     0.39853  0.39853  0.00000  0.20294
       7     H     0.40118  0.40118  0.00000  0.19764
       8     C     3.15532  3.15532  0.00000 -0.31064
       9     H     0.41328  0.41328  0.00000  0.17344
      10     H     0.40901  0.40901  0.00000  0.18198
      11     C     3.24352  3.24352  0.00000 -0.48705
      12     H     0.42252  0.42252  0.00000  0.15496
      13     H     0.41748  0.41748  0.00000  0.16503
      14     H     0.42099  0.42099  0.00000  0.15801
      15     H     0.41712  0.41712  0.00000  0.16576
      16     H     0.42055  0.42055  0.00000  0.15890
      17     C     3.09240  3.09240  0.00000 -0.18480
      18     H     0.40905  0.40905  0.00000  0.18190
      19     H     0.40846  0.40846  0.00000  0.18309
      20     H     0.40909  0.40909  0.00000  0.18182

   Total alpha = 32.00000, Total beta = 32.00000, Total charge =  0.00000
