  ==> Input File <==

--------------------------------------------------------------------------
set {
	reference rhf
	basis 6-31G*
}

set_num_threads( 1 )
memory 2 gb

molecule MOL {
0 1

O	 0.910565	 0.913212	 0.861198
C	 1.122059	 0.121804	 -0.000188
C	 0.259819	 -0.101441	 -1.218628
O	 2.172624	 -0.688929	 0.000216
C	 -0.965134	 0.806459	 -1.269109
H	 0.890158	 0.038946	 -2.092538
H	 -0.026439	 -1.149656	 -1.226210
C	 -1.820946	 0.559567	 -2.512491
H	 -0.644144	 1.843183	 -1.243139
H	 -1.561845	 0.653211	 -0.375267
C	 -3.051121	 1.464176	 -2.570425
H	 -1.218052	 0.713685	 -3.405152
H	 -2.137697	 -0.481220	 -2.534899
H	 -2.766109	 2.512142	 -2.584115
H	 -3.640110	 1.269214	 -3.461132
H	 -3.692617	 1.308257	 -1.707979
C	 3.452279	 -0.082609	 0.000533
H	 3.583069	 0.529321	 -0.880332
H	 4.163299	 -0.894027	 0.001117
H	 3.582335	 0.529955	 0.881077

	symmetry c1
}
set optking {
	frozen_dihedral = ("
		9 5 8 12,
		1 2 3 6,
		9 5 3 6
	")
}

ee = energy('scf')
oeprop('DIPOLE', 'QUADRUPOLE', 'MULLIKEN_CHARGES')
f=open( 'psi4out.xyz', 'w' )
f.write( "20  " )
f.write( str(ee) + "\n" )
f.write( MOL.save_string_xyz() )
f.close()
--------------------------------------------------------------------------

    Molecular point group: c1

    Geometry (in Angstrom), charge = 0, multiplicity = 1:

       Center              X                  Y                   Z               Mass
    ------------   -----------------  -----------------  -----------------  -----------------
           O          0.619537768882     0.536504152063     1.686807162268    15.994914619560
           C          0.831031768882    -0.254903847937     0.825421162268    12.000000000000
           C         -0.031208231118    -0.478148847937    -0.393018837732    12.000000000000
           O          1.881596768882    -1.065636847937     0.825825162268    15.994914619560
           C         -1.256161231118     0.429751152063    -0.443499837732    12.000000000000
           H          0.599130768882    -0.337761847937    -1.266928837732     1.007825032070
           H         -0.317466231118    -1.526363847937    -0.400600837732     1.007825032070
           C         -2.111973231118     0.182859152063    -1.686881837732    12.000000000000
           H         -0.935171231118     1.466475152063    -0.417529837732     1.007825032070
           H         -1.852872231118     0.276503152063     0.450342162268     1.007825032070
           C         -3.342148231118     1.087468152063    -1.744815837732    12.000000000000
           H         -1.509079231118     0.336977152063    -2.579542837732     1.007825032070
           H         -2.428724231118    -0.857927847937    -1.709289837732     1.007825032070
           H         -3.057136231118     2.135434152063    -1.758505837732     1.007825032070
           H         -3.931137231118     0.892506152063    -2.635522837732     1.007825032070
           H         -3.983644231118     0.931549152063    -0.882369837732     1.007825032070
           C          3.161251768882    -0.459316847937     0.826142162268    12.000000000000
           H          3.292041768882     0.152613152063    -0.054722837732     1.007825032070
           H          3.872271768882    -1.270734847937     0.826726162268     1.007825032070
           H          3.291307768882     0.153247152063     1.706686162268     1.007825032070

  Charge       = 0
  Multiplicity = 1
  Basis Set: 6-31G*
  Basis Set:

    Orbital Energies (a.u.)
    -----------------------

    Doubly Occupied:

       1A    -20.590446     2A    -20.551905     3A    -11.373397
       4A    -11.289732     5A    -11.236339     6A    -11.220780
       7A    -11.219415     8A    -11.211053     9A     -1.465428
      10A     -1.364988    11A     -1.088604    12A     -1.021752
      13A     -0.972864    14A     -0.890827    15A     -0.805276
      16A     -0.768384    17A     -0.695987    18A     -0.681286
      19A     -0.673912    20A     -0.644043    21A     -0.608780
      22A     -0.591527    23A     -0.584440    24A     -0.548612
      25A     -0.535854    26A     -0.512974    27A     -0.500501
      28A     -0.482637    29A     -0.476815    30A     -0.470597
      31A     -0.452205    32A     -0.432677

  @DF-RHF Final Energy:  -383.92649439873207

   => Energetics <=

    Nuclear Repulsion Energy =            381.6113793770798566
    One-Electron Energy =               -1279.1477622307816091
    Two-Electron Energy =                 513.6098884549692229
    DFT Exchange-Correlation Energy =       0.0000000000000000
    Empirical Dispersion Energy =           0.0000000000000000
    PCM Polarization Energy =               0.0000000000000000
    EFP Energy =                            0.0000000000000000
    Total Energy =                       -383.9264943987325296

  Mulliken Charges: (a.u.)
   Center  Symbol    Alpha    Beta     Spin     Total
       1     O     4.26866  4.26866  0.00000 -0.53732
       2     C     2.60860  2.60860  0.00000  0.78280
       3     C     3.21042  3.21042  0.00000 -0.42084
       4     O     4.31096  4.31096  0.00000 -0.62192
       5     C     3.15217  3.15217  0.00000 -0.30434
       6     H     0.40597  0.40597  0.00000  0.18805
       7     H     0.39902  0.39902  0.00000  0.20197
       8     C     3.15399  3.15399  0.00000 -0.30798
       9     H     0.41319  0.41319  0.00000  0.17363
      10     H     0.41106  0.41106  0.00000  0.17789
      11     C     3.23926  3.23926  0.00000 -0.47853
      12     H     0.42382  0.42382  0.00000  0.15237
      13     H     0.42264  0.42264  0.00000  0.15472
      14     H     0.42025  0.42025  0.00000  0.15950
      15     H     0.41879  0.41879  0.00000  0.16241
      16     H     0.41965  0.41965  0.00000  0.16070
      17     C     3.09456  3.09456  0.00000 -0.18911
      18     H     0.41942  0.41942  0.00000  0.16115
      19     H     0.40427  0.40427  0.00000  0.19145
      20     H     0.40329  0.40329  0.00000  0.19341

   Total alpha = 32.00000, Total beta = 32.00000, Total charge =  0.00000
