                              Psi4 1.0.54 Driver

  ==> Input File <==

--------------------------------------------------------------------------
set {
	reference rhf
	basis cc-pvtz
}

set_num_threads( 4 )
memory 2 gb

molecule MOL {
0 1

O	 -2.817697	 1.304178	 0.001046
C	 -2.664672	 0.129869	 0.003507
C	 -3.797908	 -0.860100	 -0.001145
O	 -1.481217	 -0.452708	 0.001092
H	 -4.408836	 -0.679689	 -0.875387
H	 -3.443486	 -1.878443	 -0.002770
H	 -4.412123	 -0.683688	 0.871605
C	 -0.332055	 0.384012	 -0.000250
C	 0.892252	 -0.506059	 -0.000295
H	 -0.360822	 1.020205	 -0.874146
H	 -0.359817	 1.021310	 0.872861
C	 2.188199	 0.299473	 -0.001416
H	 0.857046	 -1.152781	 -0.871031
H	 0.857910	 -1.151798	 0.871202
C	 3.437151	 -0.577593	 -0.000991
H	 2.209565	 0.950707	 -0.871712
H	 2.210062	 0.952234	 0.867721
C	 3.454175	 -1.593773	 -1.137695
H	 3.508411	 -1.098526	 0.949591
H	 4.318232	 0.054214	 -0.068834
H	 2.602477	 -2.262958	 -1.077302
H	 4.352591	 -2.199185	 -1.108857
H	 3.418241	 -1.101283	 -2.103622

	symmetry c1
}
set optking {
	frozen_dihedral = ("
		19 15 12 16
	")
}

ee,wfn = optimize('scf', return_wfn=True)
oeprop( wfn, 'DIPOLE', 'QUADRUPOLE', 'MULLIKEN_CHARGES')
f=open( 'psi4out.xyz', 'w' )
f.write( "23  " )
f.write( str(ee) + "\n" )
f.write( MOL.save_string_xyz() )
f.close()
--------------------------------------------------------------------------

    Molecular point group: c1
  Charge       = 0
  Multiplicity = 1
  Basis Set: CC-PVTZ
  Basis Set:
  @DF-RHF Final Energy:  -423.13157896132998
    Total Energy =                       -423.1315789613300922
    Molecular point group: c1
  Basis Set: CC-PVTZ
  Basis Set:
  Basis Set: CC-PVTZ
  Basis Set:
  @DF-RHF Final Energy:  -423.13126243146371
    Total Energy =                       -423.1312624314638242
  Basis Set: CC-PVTZ
  Basis Set:
  Basis Set: CC-PVTZ
  Basis Set:
  @DF-RHF Final Energy:  -423.13249261785398
    Total Energy =                       -423.1324926178544956
  Basis Set: CC-PVTZ
  Basis Set:
  Basis Set: CC-PVTZ
  Basis Set:
  @DF-RHF Final Energy:  -423.13147229428529
    Total Energy =                       -423.1314722942852313
  Basis Set: CC-PVTZ
  Basis Set:
  Basis Set: CC-PVTZ
  Basis Set:
  @DF-RHF Final Energy:  -423.13282480847590
    Total Energy =                       -423.1328248084755614
  Basis Set: CC-PVTZ
  Basis Set:
  Basis Set: CC-PVTZ
  Basis Set:
  @DF-RHF Final Energy:  -423.13287168556531
    Total Energy =                       -423.1328716855648508
  Basis Set: CC-PVTZ
  Basis Set:
  Basis Set: CC-PVTZ
  Basis Set:
  @DF-RHF Final Energy:  -423.13287430371508
    Total Energy =                       -423.1328743037144022
  Basis Set: CC-PVTZ
  Basis Set:
  Charge       = 0
  Multiplicity = 1
  Basis Set: CC-PVTZ
  Basis Set:

    Orbital Energies (a.u.)
    -----------------------

    Doubly Occupied:

       1A    -20.595882     2A    -20.529470     3A    -11.366355
       4A    -11.279401     5A    -11.230635     6A    -11.222076
       7A    -11.221468     8A    -11.219857     9A    -11.210994
      10A     -1.471121    11A     -1.363961    12A     -1.095076
      13A     -1.042018    14A     -1.002654    15A     -0.932180
      16A     -0.856063    17A     -0.792871    18A     -0.772285
      19A     -0.694043    20A     -0.688121    21A     -0.673207
      22A     -0.638254    23A     -0.615704    24A     -0.601254
      25A     -0.576862    26A     -0.571584    27A     -0.549038
      28A     -0.539245    29A     -0.526760    30A     -0.508973
      31A     -0.498367    32A     -0.470198    33A     -0.468345
      34A     -0.466981    35A     -0.455206    36A     -0.438824

  @DF-RHF Final Energy:  -423.13287452411356

   => Energetics <=

    Nuclear Repulsion Energy =            455.1099920184075813
    One-Electron Energy =               -1478.1150725301531565
    Two-Electron Energy =                 599.8722059876320145
    DFT Exchange-Correlation Energy =       0.0000000000000000
    Empirical Dispersion Energy =           0.0000000000000000
    PCM Polarization Energy =               0.0000000000000000
    EFP Energy =                            0.0000000000000000
    Total Energy =                       -423.1328745241135039
    Molecular point group: c1
  Basis Set: CC-PVTZ
  Basis Set:

  -Total Gradient:
     Atom            X                  Y                   Z
    ------   -----------------  -----------------  -----------------
       1       -0.000036722794    -0.000014615192    -0.000005639459
       2        0.000063534114    -0.000033033162     0.000005602469
       3       -0.000007753581     0.000028480403     0.000000812287
       4       -0.000071209129     0.000014396714    -0.000006336758
       5        0.000011617514    -0.000003106447     0.000015287313
       6        0.000000700216     0.000008626381     0.000000755273
       7        0.000012594603    -0.000002204873    -0.000017300504
       8        0.000034954958     0.000014651880     0.000018849355
       9       -0.000007112606    -0.000006239452    -0.000011678442
      10       -0.000003011159    -0.000005554462     0.000004776438
      11        0.000000737421    -0.000004155148    -0.000011663328
      12       -0.000791343232    -0.001288174667    -0.001039880858
      13        0.000002324184    -0.000001027592     0.000001838029
      14        0.000003484964     0.000004212304    -0.000000995821
      15       -0.000925006433    -0.001455133203    -0.000634951676
      16        0.000812440323     0.001307905236     0.000979204590
      17        0.000002146158    -0.000000207839     0.000001574129
      18       -0.000002076509    -0.000005972822     0.000006704526
      19        0.000899446901     0.001431138460     0.000687842980
      20        0.000001450040     0.000000464390    -0.000000550663
      21        0.000003092390     0.000003831513    -0.000000212708
      22       -0.000004402820     0.000003759394     0.000000271951
      23        0.000000114470     0.000001958182     0.000005690874

  **** Optimization is complete! (in 8 steps) ****
    Final optimized geometry and variables:
    Molecular point group: c1

    Geometry (in Angstrom), charge = 0, multiplicity = 1:

    O           -2.684849748786     1.506005669648     0.265244684223
    C           -2.537800019084     0.332839955399     0.197503574070
    C           -3.675761483630    -0.651725104197     0.179799584361
    O           -1.357965273975    -0.252730811190     0.129282075467
    H           -4.314198287787    -0.424293201334    -0.663297361753
    H           -3.326874196445    -1.669886233990     0.114016787205
    H           -4.259909905213    -0.518381061484     1.080425778573
    C           -0.205228315913     0.578758524247     0.138636050972
    C            1.014056587870    -0.314239769542     0.050717550781
    H           -0.257036670984     1.262336873439    -0.697815249871
    H           -0.202748081511     1.167250052631     1.045721632455
    C            2.306996825514     0.497418200841     0.033183569874
    H            0.932039305118    -0.923523137735    -0.841320825062
    H            1.014807795483    -0.993690321663     0.897717205080
    C            3.589314765390    -0.335539068766     0.083302060150
    H            2.329773074372     1.137348249471    -0.845580758229
    H            2.310433447696     1.170435395728     0.886617078445
    C            3.747258646528    -1.348905073357    -1.046447628912
    H            3.650994445431    -0.840404151565     1.043471879181
    H            4.432061010365     0.348510801796     0.057580831925
    H            2.996286397518    -2.128177575724    -1.001313674788
    H            4.717506136902    -1.829084918130    -0.995616618100
    H            3.668167682282    -0.867776387764    -2.016219445204

  Mulliken Charges: (a.u.)
   Center  Symbol    Alpha    Beta     Spin     Total
       1     O     4.20239  4.20239  0.00000 -0.40479
       2     C     2.81527  2.81527  0.00000  0.36945
       3     C     3.13994  3.13994  0.00000 -0.27989
       4     O     4.14480  4.14480  0.00000 -0.28959
       5     H     0.44211  0.44211  0.00000  0.11578
       6     H     0.44191  0.44191  0.00000  0.11618
       7     H     0.44211  0.44211  0.00000  0.11578
       8     C     2.97867  2.97867  0.00000  0.04266
       9     C     3.08570  3.08570  0.00000 -0.17139
      10     H     0.45413  0.45413  0.00000  0.09173
      11     H     0.45299  0.45299  0.00000  0.09401
      12     C     3.10535  3.10535  0.00000 -0.21070
      13     H     0.44869  0.44869  0.00000  0.10262
      14     H     0.45032  0.45032  0.00000  0.09935
      15     C     3.09050  3.09050  0.00000 -0.18101
      16     H     0.45074  0.45074  0.00000  0.09851
      17     H     0.44831  0.44831  0.00000  0.10337
      18     C     3.15448  3.15448  0.00000 -0.30896
      19     H     0.45263  0.45263  0.00000  0.09474
      20     H     0.44792  0.44792  0.00000  0.10416
      21     H     0.45224  0.45224  0.00000  0.09553
      22     H     0.44504  0.44504  0.00000  0.10992
      23     H     0.45374  0.45374  0.00000  0.09253

   Total alpha = 36.00000, Total beta = 36.00000, Total charge = -0.00000

*** Psi4 exiting successfully. Buy a developer a beer!
