  ==> Input File <==

--------------------------------------------------------------------------
set {
	reference rhf
	basis 6-31G*
}

set_num_threads( 1 )
memory 2 gb

molecule MOL {
0 1

H	 -2.314848	 -0.185204	 1.611977
O	 -1.917262	 0.657109	 1.781744
C	 -0.975320	 0.944265	 0.783108
C	 0.288091	 0.121663	 0.964181
H	 -1.380881	 0.777323	 -0.210878
H	 -0.737072	 1.995131	 0.868945
O	 1.171513	 0.459272	 -0.058250
H	 0.049959	 -0.943255	 0.929191
H	 0.720664	 0.326855	 1.941607
C	 2.397842	 -0.198080	 -0.002151
H	 2.508049	 -0.905315	 -0.822092
H	 3.173794	 0.550865	 -0.078850
H	 2.517602	 -0.735921	 0.936026

	symmetry c1
}
set optking {
	frozen_dihedral = ("
		8 4 3 5,
		1 2 3 5,
		10 7 4 8
	")
}

ee = energy('scf')
oeprop('DIPOLE', 'QUADRUPOLE', 'MULLIKEN_CHARGES')
f=open( 'psi4out.xyz', 'w' )
f.write( "13  " )
f.write( str(ee) + "\n" )
f.write( MOL.save_string_xyz() )
f.close()
--------------------------------------------------------------------------

    Molecular point group: c1

    Geometry (in Angstrom), charge = 0, multiplicity = 1:

       Center              X                  Y                   Z               Mass
    ------------   -----------------  -----------------  -----------------  -----------------
           H         -2.488043462190    -0.568596927059     0.905553503466     1.007825032070
           O         -2.090457462190     0.273716072941     1.075320503466    15.994914619560
           C         -1.148515462190     0.560872072941     0.076684503466    12.000000000000
           C          0.114895537810    -0.261729927059     0.257757503466    12.000000000000
           H         -1.554076462190     0.393930072941    -0.917301496534     1.007825032070
           H         -0.910267462190     1.611738072941     0.162521503466     1.007825032070
           O          0.998317537810     0.075879072941    -0.764673496534    15.994914619560
           H         -0.123236462190    -1.326647927059     0.222767503466     1.007825032070
           H          0.547468537810    -0.056537927059     1.235183503466     1.007825032070
           C          2.224646537810    -0.581472927059    -0.708574496534    12.000000000000
           H          2.334853537810    -1.288707927059    -1.528515496534     1.007825032070
           H          3.000598537810     0.167472072941    -0.785273496534     1.007825032070
           H          2.344406537810    -1.119313927059     0.229602503466     1.007825032070

  Charge       = 0
  Multiplicity = 1
  Basis Set: 6-31G*
  Basis Set:

    Orbital Energies (a.u.)
    -----------------------

    Doubly Occupied:

       1A    -20.559962     2A    -20.559560     3A    -11.271411
       4A    -11.269266     5A    -11.268595     6A     -1.387864
       7A     -1.364954     8A     -1.017999     9A     -0.913043
      10A     -0.842883    11A     -0.709172    12A     -0.671488
      13A     -0.659921    14A     -0.638230    15A     -0.595377
      16A     -0.568628    17A     -0.547526    18A     -0.490476
      19A     -0.482591    20A     -0.438218    21A     -0.416869

  @DF-RHF Final Energy:  -267.94661113592576

   => Energetics <=

    Nuclear Repulsion Energy =            190.2791795867762517
    One-Electron Energy =                -743.1035301794515817
    Two-Electron Energy =                 284.8777394567500210
    DFT Exchange-Correlation Energy =       0.0000000000000000
    Empirical Dispersion Energy =           0.0000000000000000
    PCM Polarization Energy =               0.0000000000000000
    EFP Energy =                            0.0000000000000000
    Total Energy =                       -267.9466111359252523

  Mulliken Charges: (a.u.)
   Center  Symbol    Alpha    Beta     Spin     Total
       1     H     0.28131  0.28131  0.00000  0.43739
       2     O     4.37087  4.37087  0.00000 -0.74174
       3     C     3.00499  3.00499  0.00000 -0.00998
       4     C     2.99837  2.99837  0.00000  0.00326
       5     H     0.42228  0.42228  0.00000  0.15545
       6     H     0.40853  0.40853  0.00000  0.18295
       7     O     4.30919  4.30919  0.00000 -0.61837
       8     H     0.43733  0.43733  0.00000  0.12533
       9     H     0.42264  0.42264  0.00000  0.15472
      10     C     3.07774  3.07774  0.00000 -0.15548
      11     H     0.42217  0.42217  0.00000  0.15567
      12     H     0.41641  0.41641  0.00000  0.16718
      13     H     0.42819  0.42819  0.00000  0.14363

   Total alpha = 21.00000, Total beta = 21.00000, Total charge =  0.00000
