  ==> Input File <==

--------------------------------------------------------------------------
set {
	reference rhf
	basis 6-31G*
}

set_num_threads( 4 )
memory 2 gb

molecule MOL {
0 1

H	 -1.836216	 1.387520	 -0.000064
C	 -1.301823	 0.443321	 -0.000031
O	 -0.003969	 0.658512	 0.000451
O	 -1.829879	 -0.616434	 -0.000857
C	 0.850537	 -0.484732	 0.000380
C	 1.348104	 -0.679521	 -1.415531
H	 0.288645	 -1.339911	 0.350043
H	 1.663666	 -0.312783	 0.692153
H	 0.519790	 -0.842366	 -2.095539
H	 2.003800	 -1.542856	 -1.459683
H	 1.901495	 0.189664	 -1.751928

	symmetry c1
}
set optking {
	frozen_dihedral = ("
		7 5 3 2
	")
}

ee = optimize('scf')
oeprop('DIPOLE', 'QUADRUPOLE', 'MULLIKEN_CHARGES')
f=open( 'psi4out.xyz', 'w' )
f.write( "11  " )
f.write( str(ee) + "\n" )
f.write( MOL.save_string_xyz() )
f.close()
--------------------------------------------------------------------------

    Molecular point group: c1
  Charge       = 0
  Multiplicity = 1
  Basis Set: 6-31G*
  Basis Set:
  @DF-RHF Final Energy:  -266.82644162878864
    Total Energy =                       -266.8264416287884160
    Molecular point group: c1
  Basis Set: 6-31G*
  Basis Set:
  Basis Set: 6-31G*
  Basis Set:
  @DF-RHF Final Energy:  -266.82668895410245
    Total Energy =                       -266.8266889541023374
  Basis Set: 6-31G*
  Basis Set:
  Basis Set: 6-31G*
  Basis Set:
  @DF-RHF Final Energy:  -266.82727248745118
    Total Energy =                       -266.8272724874511823
  Basis Set: 6-31G*
  Basis Set:
  Basis Set: 6-31G*
  Basis Set:
  @DF-RHF Final Energy:  -266.82754503694309
    Total Energy =                       -266.8275450369432065
  Basis Set: 6-31G*
  Basis Set:
  Basis Set: 6-31G*
  Basis Set:
  @DF-RHF Final Energy:  -266.82755281870567
    Total Energy =                       -266.8275528187054988
  Basis Set: 6-31G*
  Basis Set:
  Charge       = 0
  Multiplicity = 1
  Basis Set: 6-31G*
  Basis Set:

    Orbital Energies (a.u.)
    -----------------------

    Doubly Occupied:

       1A    -20.612356     2A    -20.556596     3A    -11.379734
       4A    -11.290818     5A    -11.225130     6A     -1.474528
       7A     -1.374281     8A     -1.050066     9A     -0.909738
      10A     -0.798353    11A     -0.746263    12A     -0.683557
      13A     -0.656746    14A     -0.620437    15A     -0.573027
      16A     -0.543549    17A     -0.537625    18A     -0.502003
      19A     -0.456317    20A     -0.454291

  @DF-RHF Final Energy:  -266.82755482462619

   => Energetics <=

    Nuclear Repulsion Energy =            180.8167733860456110
    One-Electron Energy =                -722.3978241134836935
    Two-Electron Energy =                 274.7534959028121193
    DFT Exchange-Correlation Energy =       0.0000000000000000
    Empirical Dispersion Energy =           0.0000000000000000
    PCM Polarization Energy =               0.0000000000000000
    EFP Energy =                            0.0000000000000000
    Total Energy =                       -266.8275548246259632
    Molecular point group: c1
  Basis Set: 6-31G*
  Basis Set:

  -Total Gradient:
     Atom            X                  Y                   Z
    ------   -----------------  -----------------  -----------------
       1        0.000022520186    -0.000007597482     0.000007011835
       2        0.000029142689    -0.000050991335     0.001182488274
       3       -0.000140587178     0.000068328656    -0.002100009021
       4       -0.000019269429    -0.000007241591     0.000005819656
       5        0.000540854551     0.000250778815     0.002184549122
       6       -0.000045635337     0.000015100033     0.000018353411
       7       -0.000367023891    -0.000267007273    -0.001318923577
       8        0.000000335005    -0.000003893176    -0.000008943400
       9       -0.000007814885    -0.000000457702    -0.000005160293
      10       -0.000006470259     0.000005054951     0.000018706565
      11       -0.000006051449    -0.000002073898     0.000016107428

  **** Optimization is complete! (in 6 steps) ****
    Final optimized geometry and variables:
    Molecular point group: c1

    Geometry (in Angstrom), charge = 0, multiplicity = 1:

    H           -1.622286010804     1.558967797907     0.366737782675
    C           -1.119211920609     0.599334448898     0.314842347276
    O            0.184517545780     0.782602312184     0.302041124017
    O           -1.685881855835    -0.439578553701     0.274549208392
    C            1.045637683466    -0.357584660142     0.266678730671
    C            1.581498802311    -0.560337067904    -1.137716887631
    H            0.501692971543    -1.225251042045     0.603229176650
    H            1.841446966228    -0.137064465354     0.963351225482
    H            0.774988031533    -0.787051898160    -1.825927345339
    H            2.282461122125    -1.389042971198    -1.150024145060
    H            2.094838567783     0.328770759144    -1.485745470540

  Mulliken Charges: (a.u.)
   Center  Symbol    Alpha    Beta     Spin     Total
       1     H     0.41152  0.41152  0.00000  0.17697
       2     C     2.72651  2.72651  0.00000  0.54698
       3     O     4.29210  4.29210  0.00000 -0.58419
       4     O     4.26417  4.26417  0.00000 -0.52835
       5     C     3.01490  3.01490  0.00000 -0.02981
       6     C     3.24961  3.24961  0.00000 -0.49922
       7     H     0.39609  0.39609  0.00000  0.20781
       8     H     0.40891  0.40891  0.00000  0.18219
       9     H     0.40856  0.40856  0.00000  0.18288
      10     H     0.41628  0.41628  0.00000  0.16745
      11     H     0.41135  0.41135  0.00000  0.17730

   Total alpha = 20.00000, Total beta = 20.00000, Total charge =  0.00000
