                              Psi4 1.0.54 Driver

  ==> Input File <==

--------------------------------------------------------------------------
set {
	reference rhf
	basis cc-pvtz
}

set_num_threads( 4 )
memory 2 gb

molecule MOL {
0 1

H	 0.009365	 -2.090273	 0.444090
C	 -0.020452	 -1.110679	 0.907410
N	 0.526300	 -0.128137	 0.000000
H	 0.580528	 -1.154478	 1.806824
H	 -1.054747	 -0.912950	 1.196734
C	 -0.247113	 0.037112	 -1.209233
H	 0.621655	 0.748367	 0.465090
H	 -0.996493	 -0.743733	 -1.271440
H	 0.397975	 -0.057351	 -2.073512
H	 -0.763794	 0.997171	 -1.271673

	symmetry c1
}
set optking {
	frozen_dihedral = ("
		2 3 6 8
	")
}

ee,wfn = optimize('scf', return_wfn=True)
oeprop( wfn, 'DIPOLE', 'QUADRUPOLE', 'MULLIKEN_CHARGES')
f=open( 'psi4out.xyz', 'w' )
f.write( "10  " )
f.write( str(ee) + "\n" )
f.write( MOL.save_string_xyz() )
f.close()
--------------------------------------------------------------------------

    Molecular point group: c1
  Charge       = 0
  Multiplicity = 1
  Basis Set: CC-PVTZ
  Basis Set:
  @DF-RHF Final Energy:  -134.28773584037413
    Total Energy =                       -134.2877358403742392
    Molecular point group: c1
  Basis Set: CC-PVTZ
  Basis Set:
  Basis Set: CC-PVTZ
  Basis Set:
  @DF-RHF Final Energy:  -134.28808412980544
    Total Energy =                       -134.2880841298054406
  Basis Set: CC-PVTZ
  Basis Set:
  Basis Set: CC-PVTZ
  Basis Set:
  @DF-RHF Final Energy:  -134.28825176560386
    Total Energy =                       -134.2882517656038317
  Basis Set: CC-PVTZ
  Basis Set:
  Basis Set: CC-PVTZ
  Basis Set:
  @DF-RHF Final Energy:  -134.28825727734130
    Total Energy =                       -134.2882572773412164
  Basis Set: CC-PVTZ
  Basis Set:
  Charge       = 0
  Multiplicity = 1
  Basis Set: CC-PVTZ
  Basis Set:

    Orbital Energies (a.u.)
    -----------------------

    Doubly Occupied:

       1A    -15.528705     2A    -11.234417     3A    -11.233877
       4A     -1.195751     5A     -0.947973     6A     -0.855314
       7A     -0.660719     8A     -0.609500     9A     -0.588807
      10A     -0.545211    11A     -0.511137    12A     -0.506935
      13A     -0.357492

  @DF-RHF Final Energy:  -134.28825834845355

   => Energetics <=

    Nuclear Repulsion Energy =             84.4698571533181024
    One-Electron Energy =                -347.9645557279973218
    Two-Electron Energy =                 129.2064402262256806
    DFT Exchange-Correlation Energy =       0.0000000000000000
    Empirical Dispersion Energy =           0.0000000000000000
    PCM Polarization Energy =               0.0000000000000000
    EFP Energy =                            0.0000000000000000
    Total Energy =                       -134.2882583484535246
    Molecular point group: c1
  Basis Set: CC-PVTZ
  Basis Set:

  -Total Gradient:
     Atom            X                  Y                   Z
    ------   -----------------  -----------------  -----------------
       1        0.000016574090     0.000016146015    -0.000017569160
       2        0.000522645479    -0.000821097063    -0.000456890191
       3       -0.000969788485     0.001378460665     0.000875069942
       4        0.000006664096    -0.000023222742     0.000036588554
       5        0.000001665489     0.000000002147    -0.000001550517
       6        0.001266951740    -0.001483741416    -0.001192747658
       7        0.000001712671     0.000016209155     0.000011466795
       8       -0.000844419846     0.000904666075     0.000716931044
       9        0.000015600195    -0.000011728610     0.000018019251
      10       -0.000017605429     0.000024305775     0.000010681940

  **** Optimization is complete! (in 5 steps) ****
    Final optimized geometry and variables:
    Molecular point group: c1

    Geometry (in Angstrom), charge = 0, multiplicity = 1:

    H           -0.174024257865    -1.671852193583     0.621389151993
    C           -0.123682220634    -0.674298193943     1.041432743103
    N            0.470492425785     0.229588224217     0.083891097523
    H            0.498610703607    -0.725031840436     1.926306212390
    H           -1.131869895033    -0.393451895370     1.353029686876
    C           -0.288688368468     0.427980388701    -1.139561393466
    H            0.682012993789     1.101300466407     0.513110096990
    H           -1.105153055923    -0.282089353047    -1.201278643635
    H            0.336095744830     0.295532535678    -2.015499124066
    H           -0.732832837233     1.418476984356    -1.194268645094

  Mulliken Charges: (a.u.)
   Center  Symbol    Alpha    Beta     Spin     Total
       1     H     0.45658  0.45658  0.00000  0.08683
       2     C     3.08191  3.08191  0.00000 -0.16382
       3     N     3.63514  3.63514  0.00000 -0.27027
       4     H     0.45330  0.45330  0.00000  0.09339
       5     H     0.47453  0.47453  0.00000  0.05094
       6     C     3.07794  3.07794  0.00000 -0.15589
       7     H     0.43913  0.43913  0.00000  0.12173
       8     H     0.46253  0.46253  0.00000  0.07495
       9     H     0.45544  0.45544  0.00000  0.08911
      10     H     0.46349  0.46349  0.00000  0.07303

   Total alpha = 13.00000, Total beta = 13.00000, Total charge =  0.00000

*** Psi4 exiting successfully. Buy a developer a beer!
