  ==> Input File <==

--------------------------------------------------------------------------
set {
	reference rhf
	basis 6-31G*
}

set_num_threads( 4 )
memory 2 gb

molecule MOL {
0 1

H	 -3.151636	 -1.197561	 -0.024167
O	 -2.310168	 -0.871793	 -0.309793
C	 -2.026376	 0.340750	 0.341611
C	 -0.673256	 0.843270	 -0.132153
H	 -2.792215	 1.080697	 0.115987
H	 -2.013526	 0.200402	 1.421792
C	 0.486613	 -0.083066	 0.235839
H	 -0.715586	 0.970948	 -1.210718
H	 -0.508072	 1.829858	 0.297090
C	 1.840406	 0.433480	 -0.254303
H	 0.300215	 -1.068318	 -0.178947
H	 0.519509	 -0.203625	 1.318070
C	 3.000220	 -0.489290	 0.118523
H	 1.809207	 0.553576	 -1.335192
H	 2.021860	 1.424500	 0.157276
H	 2.864959	 -1.479103	 -0.307933
H	 3.946603	 -0.099227	 -0.243630
H	 3.080049	 -0.602997	 1.196117

	symmetry c1
}
set optking {
	frozen_dihedral = ("
		1 2 3 4
	")
}

ee = optimize('scf')
oeprop('DIPOLE', 'QUADRUPOLE', 'MULLIKEN_CHARGES')
f=open( 'psi4out.xyz', 'w' )
f.write( "18  " )
f.write( str(ee) + "\n" )
f.write( MOL.save_string_xyz() )
f.close()
--------------------------------------------------------------------------

    Molecular point group: c1
  Charge       = 0
  Multiplicity = 1
  Basis Set: 6-31G*
  Basis Set:
  @DF-RHF Final Energy:  -271.17994918812974
    Total Energy =                       -271.1799491881298536
    Molecular point group: c1
  Basis Set: 6-31G*
  Basis Set:
  Charge       = 0
  Multiplicity = 1
  Basis Set: 6-31G*
  Basis Set:

    Orbital Energies (a.u.)
    -----------------------

    Doubly Occupied:

       1A    -20.553055     2A    -11.268039     3A    -11.211975
       4A    -11.210642     5A    -11.206281     6A    -11.204436
       7A     -1.359773     8A     -1.074684     9A     -1.008672
      10A     -0.912995    11A     -0.817555    12A     -0.783725
      13A     -0.704918    14A     -0.642179    15A     -0.625033
      16A     -0.579170    17A     -0.570960    18A     -0.557796
      19A     -0.522058    20A     -0.501156    21A     -0.488183
      22A     -0.467167    23A     -0.458198    24A     -0.447247
      25A     -0.429027

  @DF-RHF Final Energy:  -271.17994906276772

   => Energetics <=

    Nuclear Repulsion Energy =            249.0613834720101352
    One-Electron Energy =                -861.2728171210792425
    Two-Electron Energy =                 341.0314845863015307
    DFT Exchange-Correlation Energy =       0.0000000000000000
    Empirical Dispersion Energy =           0.0000000000000000
    PCM Polarization Energy =               0.0000000000000000
    EFP Energy =                            0.0000000000000000
    Total Energy =                       -271.1799490627676050
    Molecular point group: c1
  Basis Set: 6-31G*
  Basis Set:

  -Total Gradient:
     Atom            X                  Y                   Z
    ------   -----------------  -----------------  -----------------
       1       -0.000089800788     0.000096270079    -0.000149151059
       2        0.000102835518    -0.000110223514     0.000150251131
       3        0.000061507382    -0.000068676357     0.000076488093
       4       -0.000063696620     0.000067065326    -0.000106834511
       5        0.000016861343    -0.000006358437    -0.000005232055
       6       -0.000009004000     0.000004011925     0.000014598538
       7       -0.000021418383     0.000015497897     0.000012093172
       8       -0.000000193012     0.000012912233    -0.000006996881
       9        0.000011065119    -0.000003165785     0.000005052892
      10        0.000002364682     0.000014218655     0.000015960488
      11        0.000000085230    -0.000023800846     0.000008819934
      12       -0.000000019136     0.000016258604     0.000000918869
      13       -0.000008611137    -0.000019441609    -0.000029152844
      14       -0.000001169094     0.000013573678     0.000006084641
      15        0.000001312838    -0.000003663586     0.000014761576
      16        0.000003397360    -0.000011874427     0.000007131415
      17       -0.000004383951    -0.000004779666    -0.000009418869
      18       -0.000001133345     0.000012175832    -0.000005374529

  **** Optimization is complete! (in 2 steps) ****
    Final optimized geometry and variables:
    Molecular point group: c1

    Geometry (in Angstrom), charge = 0, multiplicity = 1:

    H           -3.148270039353    -1.201262633472    -0.023152199877
    O           -2.306649839164    -0.874967325693    -0.307808330861
    C           -2.027025939741     0.340664997721     0.339647053386
    C           -0.673635495687     0.844090363014    -0.132364678370
    H           -2.793132710638     1.078553763590     0.108300594278
    H           -2.017831253644     0.204712248622     1.420446290894
    C            0.486331702153    -0.080965450975     0.238524620549
    H           -0.714278588337     0.970594372860    -1.211088812918
    H           -0.509873648288     1.831141020900     0.296314600552
    C            1.840216009887     0.435085381586    -0.251873415788
    H            0.300685768696    -1.067225186529    -0.174286428376
    H            0.518482191407    -0.199247913235     1.321041965749
    C            2.998979403567    -0.491138920656     0.115572244098
    H            1.807464519973     0.559071811057    -1.332236708281
    H            2.024068427185     1.424343910371     0.162968698805
    H            2.860106388668    -1.479851092750    -0.312359379116
    H            3.945141260525    -0.102585391539    -0.248712355279
    H            3.081818554281    -0.607095974476     1.192672493853

  Mulliken Charges: (a.u.)
   Center  Symbol    Alpha    Beta     Spin     Total
       1     H     0.28056  0.28056  0.00000  0.43888
       2     O     4.36967  4.36967  0.00000 -0.73933
       3     C     2.99728  2.99728  0.00000  0.00543
       4     C     3.16021  3.16021  0.00000 -0.32043
       5     H     0.42943  0.42943  0.00000  0.14115
       6     H     0.43249  0.43249  0.00000  0.13502
       7     C     3.15309  3.15309  0.00000 -0.30618
       8     H     0.41522  0.41522  0.00000  0.16957
       9     H     0.42419  0.42419  0.00000  0.15163
      10     C     3.15178  3.15178  0.00000 -0.30357
      11     H     0.40780  0.40780  0.00000  0.18441
      12     H     0.42758  0.42758  0.00000  0.14483
      13     C     3.23890  3.23890  0.00000 -0.47780
      14     H     0.42253  0.42253  0.00000  0.15494
      15     H     0.42535  0.42535  0.00000  0.14931
      16     H     0.42086  0.42086  0.00000  0.15828
      17     H     0.42039  0.42039  0.00000  0.15922
      18     H     0.42267  0.42267  0.00000  0.15465

   Total alpha = 25.00000, Total beta = 25.00000, Total charge = -0.00000
