  ==> Input File <==

--------------------------------------------------------------------------
set {
	reference rhf
	basis 6-31G*
}

set_num_threads( 4 )
memory 2 gb

molecule MOL {
0 1

H	 -0.616068	 -1.486221	 0.563045
N	 -0.626943	 -0.667432	 -0.000092
C	 -1.813513	 -0.387278	 -0.776161
C	 0.469286	 0.129090	 0.000148
H	 -2.015002	 -1.187596	 -1.480361
H	 -1.650377	 0.527147	 -1.322917
H	 -2.678531	 -0.263526	 -0.133152
C	 1.788933	 -0.616240	 -0.000037
O	 0.411098	 1.327768	 -0.000049
H	 1.872803	 -1.245775	 -0.880381
H	 2.595421	 0.101576	 0.003713
H	 1.870096	 -1.252171	 0.875943

	symmetry c1
}
set optking {
	frozen_dihedral = ("
		3 2 4 9
	")
}

ee = optimize('scf')
oeprop('DIPOLE', 'QUADRUPOLE', 'MULLIKEN_CHARGES')
f=open( 'psi4out.xyz', 'w' )
f.write( "12  " )
f.write( str(ee) + "\n" )
f.write( MOL.save_string_xyz() )
f.close()
--------------------------------------------------------------------------

    Molecular point group: c1
  Charge       = 0
  Multiplicity = 1
  Basis Set: 6-31G*
  Basis Set:
  @DF-RHF Final Energy:  -246.98926393164086
    Total Energy =                       -246.9892639316409486
    Molecular point group: c1
  Basis Set: 6-31G*
  Basis Set:
  Basis Set: 6-31G*
  Basis Set:
  @DF-RHF Final Energy:  -246.99319521796818
    Total Energy =                       -246.9931952179683776
  Basis Set: 6-31G*
  Basis Set:
  Basis Set: 6-31G*
  Basis Set:
  @DF-RHF Final Energy:  -246.99782233953499
    Total Energy =                       -246.9978223395349346
  Basis Set: 6-31G*
  Basis Set:
  Basis Set: 6-31G*
  Basis Set:
  @DF-RHF Final Energy:  -246.99889875637709
    Total Energy =                       -246.9988987563769456
  Basis Set: 6-31G*
  Basis Set:
  @DF-RHF Final Energy:  -246.99936412762406
    Total Energy =                       -246.9993641276239487
  @DF-RHF Final Energy:  -246.99961058443483
    Total Energy =                       -246.9996105844347767
  Basis Set: 6-31G*
  Basis Set:
  @DF-RHF Final Energy:  -246.99984256282454
    Total Energy =                       -246.9998425628244831
  Basis Set: 6-31G*
  Basis Set:
  Basis Set: 6-31G*
  Basis Set:
  @DF-RHF Final Energy:  -246.99988293194460
    Total Energy =                       -246.9998829319444553
  Basis Set: 6-31G*
  Basis Set:
  Basis Set: 6-31G*
  Basis Set:
  @DF-RHF Final Energy:  -246.99988765815877
    Total Energy =                       -246.9998876581585705
  Basis Set: 6-31G*
  Basis Set:
  Charge       = 0
  Multiplicity = 1
  Basis Set: 6-31G*
  Basis Set:

    Orbital Energies (a.u.)
    -----------------------

    Doubly Occupied:

       1A    -20.526799     2A    -15.578891     3A    -11.345779
       4A    -11.256411     5A    -11.232977     6A     -1.392249
       7A     -1.228088     8A     -1.016239     9A     -0.930744
      10A     -0.777331    11A     -0.690543    12A     -0.649450
      13A     -0.632390    14A     -0.589899    15A     -0.584134
      16A     -0.555253    17A     -0.546401    18A     -0.507144
      19A     -0.420853    20A     -0.391255

  @DF-RHF Final Energy:  -246.99988779349925

   => Energetics <=

    Nuclear Repulsion Energy =            181.1154059092295086
    One-Electron Energy =                -694.5249311376030619
    Two-Electron Energy =                 266.4096374348740142
    DFT Exchange-Correlation Energy =       0.0000000000000000
    Empirical Dispersion Energy =           0.0000000000000000
    PCM Polarization Energy =               0.0000000000000000
    EFP Energy =                            0.0000000000000000
    Total Energy =                       -246.9998877934995676
    Molecular point group: c1
  Basis Set: 6-31G*
  Basis Set:

  -Total Gradient:
     Atom            X                  Y                   Z
    ------   -----------------  -----------------  -----------------
       1       -0.000012794026     0.000005019116     0.000006318299
       2       -0.002862702648     0.010908085489     0.011677960728
       3        0.002192587562    -0.006226898680    -0.004754862996
       4       -0.000228918903    -0.007873581150    -0.016605821009
       5        0.000000886808     0.000000138133     0.000006937379
       6       -0.000008229690     0.000007210650     0.000000346800
       7       -0.000003195380     0.000005638185     0.000000176970
       8        0.000011058049     0.000006761505    -0.000014564919
       9        0.000907216325     0.003181227469     0.009672727382
      10       -0.000000362521    -0.000002302012     0.000004713247
      11       -0.000002978346    -0.000001121414     0.000003837087
      12        0.000007432770    -0.000010177295     0.000002231031

  **** Optimization is complete! (in 10 steps) ****
    Final optimized geometry and variables:
    Molecular point group: c1

    Geometry (in Angstrom), charge = 0, multiplicity = 1:

    H           -0.564257876326    -1.460530668513     0.628869264390
    N           -0.705964171734    -0.501979425380     0.391363200455
    C           -1.891638007191    -0.296540849412    -0.425688460092
    C            0.455001466126     0.158679848623     0.063964884057
    H           -1.803357535015    -0.762945648306    -1.403535920273
    H           -2.048030853095     0.762613304244    -0.558676350405
    H           -2.750337550523    -0.712850117136     0.084988046587
    C            1.729778662300    -0.615680253314     0.325155553756
    O            0.463620651117     1.294708490907    -0.309032941340
    H            1.849302827603    -1.395671363738    -0.421546316472
    H            2.572078161424     0.057808514790     0.270892324788
    H            1.705127112917    -1.089422736406     1.301257777430

  Mulliken Charges: (a.u.)
   Center  Symbol    Alpha    Beta     Spin     Total
       1     H     0.31881  0.31881  0.00000  0.36239
       2     N     3.87220  3.87220  0.00000 -0.74440
       3     C     3.15252  3.15252  0.00000 -0.30503
       4     C     2.63984  2.63984  0.00000  0.72031
       5     H     0.42015  0.42015  0.00000  0.15970
       6     H     0.39118  0.39118  0.00000  0.21765
       7     H     0.41219  0.41219  0.00000  0.17563
       8     C     3.29818  3.29818  0.00000 -0.59637
       9     O     4.28880  4.28880  0.00000 -0.57761
      10     H     0.40722  0.40722  0.00000  0.18557
      11     H     0.39189  0.39189  0.00000  0.21622
      12     H     0.40703  0.40703  0.00000  0.18594

   Total alpha = 20.00000, Total beta = 20.00000, Total charge =  0.00000
