  ==> Input File <==

--------------------------------------------------------------------------
set {
	reference rhf
	basis 6-31G*
}

set_num_threads( 4 )
memory 2 gb

molecule MOL {
0 1

H	 2.337707	 -5.358702	 -2.099449
C	 2.239864	 -4.377536	 -1.671885
C	 1.050301	 -3.987241	 -1.066218
C	 3.291695	 -3.485777	 -1.715127
H	 0.219758	 -4.669285	 -1.023276
C	 0.921141	 -2.729957	 -0.516898
H	 4.219325	 -3.770254	 -2.179519
C	 3.177540	 -2.213275	 -1.165431
H	 0.008162	 -2.415711	 -0.046204
C	 1.987526	 -1.834524	 -0.564188
H	 4.013296	 -1.542654	 -1.214893
O	 1.765256	 -0.628444	 0.000000
C	 2.778419	 0.335181	 0.000000
H	 2.731280	 0.961222	 -0.884976
H	 3.711703	 -0.207767	 0.000000
H	 2.731280	 0.961222	 0.884976

	symmetry c1
}
set optking {
	frozen_dihedral = ("
		10 12 13 14
	")
}

ee = optimize('scf')
oeprop('DIPOLE', 'QUADRUPOLE', 'MULLIKEN_CHARGES')
f=open( 'psi4out.xyz', 'w' )
f.write( "16  " )
f.write( str(ee) + "\n" )
f.write( MOL.save_string_xyz() )
f.close()
--------------------------------------------------------------------------

    Molecular point group: c1
  Charge       = 0
  Multiplicity = 1
  Basis Set: 6-31G*
  Basis Set:
  @DF-RHF Final Energy:  -344.57598749691340
    Total Energy =                       -344.5759874969133989
    Molecular point group: c1
  Basis Set: 6-31G*
  Basis Set:
  Basis Set: 6-31G*
  Basis Set:
  @DF-RHF Final Energy:  -344.57746016232585
    Total Energy =                       -344.5774601623258491
  Basis Set: 6-31G*
  Basis Set:
  Basis Set: 6-31G*
  Basis Set:
  @DF-RHF Final Energy:  -344.58055122023580
    Total Energy =                       -344.5805512202356908
  Basis Set: 6-31G*
  Basis Set:
  Basis Set: 6-31G*
  Basis Set:
  @DF-RHF Final Energy:  -344.58096053655674
    Total Energy =                       -344.5809605365567450
  Basis Set: 6-31G*
  Basis Set:
  Basis Set: 6-31G*
  Basis Set:
  @DF-RHF Final Energy:  -344.58109148980827
    Total Energy =                       -344.5810914898083865
  Basis Set: 6-31G*
  Basis Set:
  Basis Set: 6-31G*
  Basis Set:
  @DF-RHF Final Energy:  -344.58110087972256
    Total Energy =                       -344.5811008797224417
  Basis Set: 6-31G*
  Basis Set:
  Charge       = 0
  Multiplicity = 1
  Basis Set: 6-31G*
  Basis Set:

    Orbital Energies (a.u.)
    -----------------------

    Doubly Occupied:

       1A    -20.582175     2A    -11.293096     3A    -11.279210
       4A    -11.232961     5A    -11.231422     6A    -11.223984
       7A    -11.219941     8A    -11.219466     9A     -1.410905
      10A     -1.145829    11A     -1.020910    12A     -1.012842
      13A     -0.940473    14A     -0.830919    15A     -0.804642
      16A     -0.719881    17A     -0.663832    18A     -0.661375
      19A     -0.653569    20A     -0.615608    21A     -0.587537
      22A     -0.577710    23A     -0.525507    24A     -0.516928
      25A     -0.508008    26A     -0.478177    27A     -0.456469
      28A     -0.334468    29A     -0.306174

  @DF-RHF Final Energy:  -344.58110207358203

   => Energetics <=

    Nuclear Repulsion Energy =            347.9121911916137719
    One-Electron Energy =               -1156.8785476997193200
    Two-Electron Energy =                 464.3852544345236311
    DFT Exchange-Correlation Energy =       0.0000000000000000
    Empirical Dispersion Energy =           0.0000000000000000
    PCM Polarization Energy =               0.0000000000000000
    EFP Energy =                            0.0000000000000000
    Total Energy =                       -344.5811020735818602
    Molecular point group: c1
  Basis Set: 6-31G*
  Basis Set:

  -Total Gradient:
     Atom            X                  Y                   Z
    ------   -----------------  -----------------  -----------------
       1       -0.000014845446    -0.000002356089     0.000001527093
       2        0.000217196967     0.000043716417    -0.000052600552
       3       -0.000140269508     0.000148805899     0.000080568033
       4       -0.000098892438    -0.000188903803    -0.000041935533
       5        0.000010377073    -0.000012264079    -0.000003350341
       6       -0.000077149999    -0.000199456840    -0.000072579388
       7        0.000007981097     0.000014447566     0.000001088146
       8       -0.000141505400     0.000121867811     0.000051905903
       9        0.000007030402     0.000017234164     0.000007407091
      10        0.000235221071    -0.000890145023     0.002548497269
      11        0.000011230931    -0.000004756589    -0.000004587820
      12       -0.000599568300     0.001936847173    -0.003498981868
      13        0.002503636089    -0.003206218500     0.000171629487
      14       -0.001921701129     0.002202316854     0.000824075637
      15        0.000004977457     0.000021672138    -0.000009702072
      16       -0.000003718866    -0.000002807105    -0.000002961087

  **** Optimization is complete! (in 7 steps) ****
    Final optimized geometry and variables:
    Molecular point group: c1

    Geometry (in Angstrom), charge = 0, multiplicity = 1:

    H            0.202060017963    -3.147793964922    -1.127854382809
    C            0.091774264772    -2.140452706774    -0.769666883462
    C           -1.079761015981    -1.742608373617    -0.136216337853
    C            1.109665497183    -1.222273079514    -0.935036732178
    H           -1.882693826665    -2.445387773434    -0.000911737729
    C           -1.224041948597    -0.452056871926     0.328994352691
    H            2.019986624437    -1.511016042868    -1.430014229659
    C            0.976315449114     0.082923451834    -0.476803342827
    H           -2.122239779371    -0.131991948563     0.823562651341
    C           -0.191696423116     0.466604881292     0.163476970547
    H            1.773511350658     0.784641068949    -0.633962905963
    O           -0.423598132303     1.715274338701     0.624486444638
    C            0.652252436399     2.558788731787     0.933019571386
    H            0.949297909050     3.143781448369     0.068787859511
    H            1.500586571385     2.006489371240     1.317615353911
    H            0.299368347375     3.239333499912     1.695382689387

  Mulliken Charges: (a.u.)
   Center  Symbol    Alpha    Beta     Spin     Total
       1     H     0.40113  0.40113  0.00000  0.19774
       2     C     3.11156  3.11156  0.00000 -0.22313
       3     C     3.09238  3.09238  0.00000 -0.18475
       4     C     3.09155  3.09155  0.00000 -0.18310
       5     H     0.39877  0.39877  0.00000  0.20247
       6     C     3.12524  3.12524  0.00000 -0.25048
       7     H     0.39952  0.39952  0.00000  0.20095
       8     C     3.14106  3.14106  0.00000 -0.28211
       9     H     0.39308  0.39308  0.00000  0.21383
      10     C     2.78511  2.78511  0.00000  0.42978
      11     H     0.39734  0.39734  0.00000  0.20533
      12     O     4.32799  4.32799  0.00000 -0.65597
      13     C     3.09007  3.09007  0.00000 -0.18013
      14     H     0.41909  0.41909  0.00000  0.16182
      15     H     0.41893  0.41893  0.00000  0.16214
      16     H     0.40719  0.40719  0.00000  0.18561

   Total alpha = 29.00000, Total beta = 29.00000, Total charge =  0.00000
