  ==> Input File <==

--------------------------------------------------------------------------
set {
	reference rhf
	basis cc-pvtz
}

set_num_threads( 4 )
memory 2 gb

molecule MOL {
0 1

H	 -3.267872	 0.741949	 -0.450145
C	 -2.805877	 1.700858	 -0.226673
O	 -1.446003	 1.687377	 -0.506141
H	 -3.263050	 2.459444	 -0.845081
H	 -2.997251	 1.939557	 0.817972
C	 -0.718530	 0.758693	 0.228682
C	 0.718529	 0.758687	 -0.228709
H	 -0.751294	 1.007551	 1.289326
H	 -1.132978	 -0.239545	 0.105459
O	 1.401606	 -0.295166	 0.366636
H	 0.748705	 0.673477	 -1.312803
H	 1.176496	 1.708671	 0.046552
C	 2.714315	 -0.441627	 -0.061017
H	 2.765292	 -0.641548	 -1.128869
H	 3.305661	 0.447341	 0.150952
H	 3.143725	 -1.278506	 0.470147

	symmetry c1
}
set optking {
	frozen_dihedral = ("
		3 6 7 11
	")
}

ee = optimize('scf')
oeprop('DIPOLE', 'QUADRUPOLE', 'MULLIKEN_CHARGES')
f=open( 'psi4out.xyz', 'w' )
f.write( "16  " )
f.write( str(ee) + "\n" )
f.write( MOL.save_string_xyz() )
f.close()
--------------------------------------------------------------------------

    Molecular point group: c1
  Charge       = 0
  Multiplicity = 1
  Basis Set: CC-PVTZ
  Basis Set:
  @DF-RHF Final Energy:  -307.09867043615054
    Total Energy =                       -307.0986704361505986
    Molecular point group: c1
  Basis Set: CC-PVTZ
  Basis Set:
  Basis Set: CC-PVTZ
  Basis Set:
  @DF-RHF Final Energy:  -307.09917840803786
    Total Energy =                       -307.0991784080378011
  Basis Set: CC-PVTZ
  Basis Set:
  Basis Set: CC-PVTZ
  Basis Set:
  @DF-RHF Final Energy:  -307.09925113188569
    Total Energy =                       -307.0992511318858078
  Basis Set: CC-PVTZ
  Basis Set:
  Charge       = 0
  Multiplicity = 1
  Basis Set: CC-PVTZ
  Basis Set:

    Orbital Energies (a.u.)
    -----------------------

    Doubly Occupied:

       1A    -20.552909     2A    -20.552657     3A    -11.265934
       4A    -11.265265     5A    -11.264886     6A    -11.264786
       7A     -1.392675     8A     -1.381425     9A     -1.031723
      10A     -0.942447    11A     -0.883550    12A     -0.831901
      13A     -0.693758    14A     -0.676827    15A     -0.661820
      16A     -0.650158    17A     -0.621979    18A     -0.601441
      19A     -0.576472    20A     -0.517547    21A     -0.509559
      22A     -0.485526    23A     -0.468132    24A     -0.421091
      25A     -0.420929

  @DF-RHF Final Energy:  -307.09925478047194

   => Energetics <=

    Nuclear Repulsion Energy =            255.0586053405036466
    One-Electron Energy =                -924.4449277181328171
    Two-Electron Energy =                 362.2870675971574315
    DFT Exchange-Correlation Energy =       0.0000000000000000
    Empirical Dispersion Energy =           0.0000000000000000
    PCM Polarization Energy =               0.0000000000000000
    EFP Energy =                            0.0000000000000000
    Total Energy =                       -307.0992547804717674
    Molecular point group: c1
  Basis Set: CC-PVTZ
  Basis Set:

  -Total Gradient:
     Atom            X                  Y                   Z
    ------   -----------------  -----------------  -----------------
       1       -0.000025472942     0.000002544148    -0.000004419103
       2        0.000009476862    -0.000091375050     0.000052412278
       3       -0.000271583861    -0.000921929758    -0.000953138164
       4        0.000072083207    -0.000000117438    -0.000002982270
       5       -0.000011473621     0.000022435121     0.000003264647
       6        0.000302405470     0.001683345596     0.001146815213
       7        0.000057861753    -0.002427203743    -0.000012573365
       8        0.000013520151    -0.000005432116    -0.000035706369
       9        0.000019375546    -0.000030167509    -0.000001303430
      10       -0.000036276622    -0.000046491003    -0.000006278683
      11       -0.000087820496     0.001727477368    -0.000112301386
      12        0.000003046826     0.000016840465    -0.000026725521
      13       -0.000034260435     0.000068977203    -0.000086690234
      14        0.000025735796    -0.000014821105    -0.000000656226
      15        0.000022077108     0.000001920793     0.000017510736
      16       -0.000058694743     0.000013997027     0.000022771882

  **** Optimization is complete! (in 4 steps) ****
    Final optimized geometry and variables:
    Molecular point group: c1

    Geometry (in Angstrom), charge = 0, multiplicity = 1:

    H           -3.285707274691     0.115900850755    -0.230608275938
    C           -2.763519362749     1.060963072503    -0.099491514340
    O           -1.424964633056     0.955080225636    -0.456097560606
    H           -3.218605706750     1.802223857655    -0.740015713809
    H           -2.876117057465     1.375477793016     0.935558759509
    C           -0.704050646364     0.024379757326     0.285027935851
    C            0.729005554313     0.049056682190    -0.197683975232
    H           -0.744132987747     0.256054971816     1.347027608113
    H           -1.109772464580    -0.975673864454     0.149021608348
    O            1.408685311595    -1.005395824651     0.401297458096
    H            0.743805388796    -0.031610935083    -1.282153738842
    H            1.188291391223     1.001195859053     0.061153640454
    C            2.755353921994    -1.084016388789     0.068631800806
    H            2.893129378755    -1.220792434438    -1.001500554338
    H            3.293240290091    -0.189124565774     0.373239320100
    H            3.174324378007    -1.935009679896     0.585446487322

  Mulliken Charges: (a.u.)
   Center  Symbol    Alpha    Beta     Spin     Total
       1     H     0.47072  0.47072  0.00000  0.05856
       2     C     3.03145  3.03145  0.00000 -0.06291
       3     O     4.17528  4.17528  0.00000 -0.35057
       4     H     0.44689  0.44689  0.00000  0.10623
       5     H     0.47073  0.47073  0.00000  0.05854
       6     C     2.96362  2.96362  0.00000  0.07275
       7     C     2.96350  2.96350  0.00000  0.07300
       8     H     0.47094  0.47094  0.00000  0.05812
       9     H     0.47042  0.47042  0.00000  0.05916
      10     O     4.17502  4.17502  0.00000 -0.35004
      11     H     0.47008  0.47008  0.00000  0.05984
      12     H     0.47171  0.47171  0.00000  0.05657
      13     C     3.03155  3.03155  0.00000 -0.06310
      14     H     0.47054  0.47054  0.00000  0.05891
      15     H     0.47069  0.47069  0.00000  0.05862
      16     H     0.44684  0.44684  0.00000  0.10631

   Total alpha = 25.00000, Total beta = 25.00000, Total charge = -0.00000
