  ==> Input File <==

--------------------------------------------------------------------------
set {
	reference rhf
	basis 6-31G*
}

set_num_threads( 4 )
memory 2 gb

molecule MOL {
0 1

H	 1.500235	 -1.325766	 0.692987
O	 1.586534	 -0.678666	 -0.000226
C	 0.489431	 0.077273	 0.000046
C	 -0.764129	 -0.759190	 0.000191
O	 0.537743	 1.263962	 0.000257
C	 -2.038368	 0.075731	 -0.000248
H	 -0.717284	 -1.412404	 -0.866059
H	 -0.717458	 -1.411724	 0.866967
H	 -2.086483	 0.712501	 -0.875098
H	 -2.908485	 -0.571682	 -0.000042
H	 -2.086576	 0.713280	 0.874068

	symmetry c1
}
set optking {
	frozen_dihedral = ("
		1 2 3 5
	")
}

ee = optimize('scf')
oeprop('DIPOLE', 'QUADRUPOLE', 'MULLIKEN_CHARGES')
f=open( 'psi4out.xyz', 'w' )
f.write( "11  " )
f.write( str(ee) + "\n" )
f.write( MOL.save_string_xyz() )
f.close()
--------------------------------------------------------------------------

    Molecular point group: c1
  Charge       = 0
  Multiplicity = 1
  Basis Set: 6-31G*
  Basis Set:
  @DF-RHF Final Energy:  -266.82658821941504
    Total Energy =                       -266.8265882194151573
    Molecular point group: c1
  Basis Set: 6-31G*
  Basis Set:
  Basis Set: 6-31G*
  Basis Set:
  @DF-RHF Final Energy:  -266.82803150487143
    Total Energy =                       -266.8280315048711486
  Basis Set: 6-31G*
  Basis Set:
  Basis Set: 6-31G*
  Basis Set:
  @DF-RHF Final Energy:  -266.82815542799608
    Total Energy =                       -266.8281554279959664
  Basis Set: 6-31G*
  Basis Set:
  Basis Set: 6-31G*
  Basis Set:
  @DF-RHF Final Energy:  -266.82804520968659
    Total Energy =                       -266.8280452096865929
  Basis Set: 6-31G*
  Basis Set:
  Basis Set: 6-31G*
  Basis Set:
  @DF-RHF Final Energy:  -266.82817117264324
    Total Energy =                       -266.8281711726432945
  Basis Set: 6-31G*
  Basis Set:
  Basis Set: 6-31G*
  Basis Set:
  @DF-RHF Final Energy:  -266.82817228738782
    Total Energy =                       -266.8281722873875879
  Basis Set: 6-31G*
  Basis Set:
  Charge       = 0
  Multiplicity = 1
  Basis Set: 6-31G*
  Basis Set:

    Orbital Energies (a.u.)
    -----------------------

    Doubly Occupied:

       1A    -20.603154     2A    -20.557668     3A    -11.382052
       4A    -11.252361     5A    -11.224871     6A     -1.464091
       7A     -1.371004     8A     -1.067208     9A     -0.908622
      10A     -0.819576    11A     -0.716653    12A     -0.669499
      13A     -0.658002    14A     -0.616330    15A     -0.578743
      16A     -0.532536    17A     -0.522203    18A     -0.508756
      19A     -0.484638    20A     -0.444843

  @DF-RHF Final Energy:  -266.82817247927687

   => Energetics <=

    Nuclear Repulsion Energy =            179.2646258000673356
    One-Electron Energy =                -719.4199780887749966
    Two-Electron Energy =                 273.3271798094308451
    DFT Exchange-Correlation Energy =       0.0000000000000000
    Empirical Dispersion Energy =           0.0000000000000000
    PCM Polarization Energy =               0.0000000000000000
    EFP Energy =                            0.0000000000000000
    Total Energy =                       -266.8281724792768728
    Molecular point group: c1
  Basis Set: 6-31G*
  Basis Set:

  -Total Gradient:
     Atom            X                  Y                   Z
    ------   -----------------  -----------------  -----------------
       1        0.002739386744     0.004426868554     0.004223692096
       2       -0.003455024067    -0.005538610501    -0.002731331535
       3        0.000723441871     0.001002261341    -0.007312449379
       4        0.000022713467    -0.000007829515    -0.000029724894
       5       -0.000030367503     0.000112719492     0.005832428739
       6       -0.000005722045     0.000002650190     0.000004101294
       7       -0.000004087079    -0.000004688306     0.000007924229
       8        0.000003170785     0.000005251017     0.000011628246
       9       -0.000001469559     0.000002175170    -0.000004840775
      10        0.000005784520     0.000000294651    -0.000001804031
      11        0.000002172861    -0.000001092094     0.000000376010

  **** Optimization is complete! (in 7 steps) ****
    Final optimized geometry and variables:
    Molecular point group: c1

    Geometry (in Angstrom), charge = 0, multiplicity = 1:

    H            1.623941670993    -1.297280407311     0.704779200569
    O            1.636334193810    -0.646622311547     0.014544585306
    C            0.498121157085     0.082041224444    -0.008463520078
    C           -0.771797074033    -0.741167962582    -0.011950259608
    O            0.535438667891     1.260726358818    -0.035982431175
    C           -2.039001488222     0.104381398598    -0.006015492789
    H           -0.732312442031    -1.387406793351    -0.884495503112
    H           -0.748784553853    -1.405951336661     0.850059458525
    H           -2.075073603928     0.750402836759    -0.874117630853
    H           -2.915580071636    -0.534129346001    -0.015999519581
    H           -2.083148667456     0.733345893026     0.874696985064

  Mulliken Charges: (a.u.)
   Center  Symbol    Alpha    Beta     Spin     Total
       1     H     0.26906  0.26906  0.00000  0.46188
       2     O     4.36024  4.36024  0.00000 -0.72047
       3     C     2.62178  2.62178  0.00000  0.75644
       4     C     3.21899  3.21899  0.00000 -0.43798
       5     O     4.25062  4.25062  0.00000 -0.50124
       6     C     3.23811  3.23811  0.00000 -0.47622
       7     H     0.39660  0.39660  0.00000  0.20680
       8     H     0.41291  0.41291  0.00000  0.17418
       9     H     0.40578  0.40578  0.00000  0.18844
      10     H     0.41687  0.41687  0.00000  0.16626
      11     H     0.40904  0.40904  0.00000  0.18193

   Total alpha = 20.00000, Total beta = 20.00000, Total charge = -0.00000
