  ==> Input File <==

--------------------------------------------------------------------------
set {
	reference rhf
	basis 6-31G*
}

set_num_threads( 4 )
memory 2 gb

molecule MOL {
0 1

O	 -0.817692	 -1.118731	 0.900000
C	 0.368548	 -1.144114	 0.827552
C	 1.245376	 -0.013843	 0.345420
O	 1.094188	 -2.200923	 1.171399
C	 0.455112	 1.231400	 -0.050772
H	 1.961117	 0.192479	 1.134303
H	 1.827051	 -0.390849	 -0.491968
C	 -0.998893	 1.219485	 0.433193
H	 0.482531	 1.345121	 -1.130325
H	 0.957290	 2.103070	 0.354729
C	 -1.883438	 0.145884	 -0.207175
H	 -1.431207	 2.195402	 0.224832
H	 -1.019646	 1.105716	 1.516076
C	 -3.347647	 0.245583	 0.225435
H	 -1.822183	 0.231698	 -1.291012
H	 -1.510341	 -0.844814	 0.042401
C	 -4.239992	 -0.825570	 -0.404234
H	 -3.732888	 1.230466	 -0.033079
H	 -3.408585	 0.170602	 1.310038
C	 -5.701275	 -0.716658	 0.029921
H	 -4.179496	 -0.752714	 -1.488058
H	 -3.859041	 -1.810759	 -0.143352
H	 -6.308102	 -1.488908	 -0.432678
H	 -6.122175	 0.245478	 -0.248167
H	 -5.799072	 -0.820114	 1.106957
C	 0.392016	 -3.336989	 1.641711
H	 -0.171069	 -3.094358	 2.531413
H	 1.144355	 -4.077163	 1.865624
H	 -0.283459	 -3.707037	 0.883863

	symmetry c1
}
set optking {
	frozen_dihedral = ("
		6 3 5 9
	")
}

ee = optimize('scf')
oeprop('DIPOLE', 'QUADRUPOLE', 'MULLIKEN_CHARGES')
f=open( 'psi4out.xyz', 'w' )
f.write( "29  " )
f.write( str(ee) + "\n" )
f.write( MOL.save_string_xyz() )
f.close()
--------------------------------------------------------------------------

    Molecular point group: c1
  Charge       = 0
  Multiplicity = 1
  Basis Set: 6-31G*
  Basis Set:
  @DF-RHF Final Energy:  -500.85835249465526
    Total Energy =                       -500.8583524946541274
    Molecular point group: c1
  Basis Set: 6-31G*
  Basis Set:
  Basis Set: 6-31G*
  Basis Set:
  @DF-RHF Final Energy:  -500.95639644479741
    Total Energy =                       -500.9563964447974058
  Basis Set: 6-31G*
  Basis Set:
  Basis Set: 6-31G*
  Basis Set:
  @DF-RHF Final Energy:  -500.99356473392390
    Total Energy =                       -500.9935647339239040
  Basis Set: 6-31G*
  Basis Set:
  Basis Set: 6-31G*
  Basis Set:
  @DF-RHF Final Energy:  -501.01475704641598
    Total Energy =                       -501.0147570464150704
  Basis Set: 6-31G*
  Basis Set:
  @DF-RHF Final Energy:  -501.02291378178688
    Total Energy =                       -501.0229137817871106
  @DF-RHF Final Energy:  -501.02716553697530
    Total Energy =                       -501.0271655369759856
  @DF-RHF Final Energy:  -501.02912741707598
    Total Energy =                       -501.0291274170763245
  @DF-RHF Final Energy:  -501.02976370455769
    Total Energy =                       -501.0297637045582633
  @DF-RHF Final Energy:  -501.03064932123289
    Total Energy =                       -501.0306493212325449
  @DF-RHF Final Energy:  -501.03093098029194
    Total Energy =                       -501.0309309802923963
  @DF-RHF Final Energy:  -501.03114025326136
    Total Energy =                       -501.0311402532616967
  @DF-RHF Final Energy:  -501.03127056384074
    Total Energy =                       -501.0312705638408488
  @DF-RHF Final Energy:  -501.03132418628911
    Total Energy =                       -501.0313241862887708
  @DF-RHF Final Energy:  -501.03132811088869
    Total Energy =                       -501.0313281108883530
  @DF-RHF Final Energy:  -501.03133844162244
    Total Energy =                       -501.0313384416224380
  @DF-RHF Final Energy:  -501.03134145149954
    Total Energy =                       -501.0313414514998840
  @DF-RHF Final Energy:  -501.03134827629037
    Total Energy =                       -501.0313482762894637
  @DF-RHF Final Energy:  -501.03136000702330
    Total Energy =                       -501.0313600070235225
  @DF-RHF Final Energy:  -501.03137089654501
    Total Energy =                       -501.0313708965444448
  @DF-RHF Final Energy:  -501.03138330790966
    Total Energy =                       -501.0313833079088681
  @DF-RHF Final Energy:  -501.03153949853356
    Total Energy =                       -501.0315394985335615
  @DF-RHF Final Energy:  -501.03155244050333
    Total Energy =                       -501.0315524405032193
  @DF-RHF Final Energy:  -501.03156785993428
    Total Energy =                       -501.0315678599338298
  @DF-RHF Final Energy:  -501.03158150687830
    Total Energy =                       -501.0315815068796610
  @DF-RHF Final Energy:  -501.03159424346723
    Total Energy =                       -501.0315942434675662
  @DF-RHF Final Energy:  -501.03162838683306
    Total Energy =                       -501.0316283868329492
  @DF-RHF Final Energy:  -501.03168484930029
    Total Energy =                       -501.0316848493004045
  @DF-RHF Final Energy:  -501.03169766352948
    Total Energy =                       -501.0316976635290303
  @DF-RHF Final Energy:  -501.03170665940263
    Total Energy =                       -501.0317066594024027
  @DF-RHF Final Energy:  -501.03171184765051
    Total Energy =                       -501.0317118476502856
  @DF-RHF Final Energy:  -501.03171669778544
    Total Energy =                       -501.0317166977854413
  @DF-RHF Final Energy:  -501.03172254247988
    Total Energy =                       -501.0317225424805656
  @DF-RHF Final Energy:  -501.03172378925535
    Total Energy =                       -501.0317237892554658
  @DF-RHF Final Energy:  -501.03172462426153
    Total Energy =                       -501.0317246242607325
  @DF-RHF Final Energy:  -501.03172459596499
    Total Energy =                       -501.0317245959652155
  @DF-RHF Final Energy:  -501.03172455205743
    Total Energy =                       -501.0317245520566303
  Basis Set: 6-31G*
  Basis Set:
  @DF-RHF Final Energy:  -501.03172442768050
    Total Energy =                       -501.0317244276807287
  Basis Set: 6-31G*
  Basis Set:
  Basis Set: 6-31G*
  Basis Set:
  @DF-RHF Final Energy:  -501.03172406793351
    Total Energy =                       -501.0317240679335100
  Basis Set: 6-31G*
  Basis Set:
  Basis Set: 6-31G*
  Basis Set:
  @DF-RHF Final Energy:  -501.03172433489635
    Total Energy =                       -501.0317243348962393
  Basis Set: 6-31G*
  Basis Set:
  Charge       = 0
  Multiplicity = 1
  Basis Set: 6-31G*
  Basis Set:

    Orbital Energies (a.u.)
    -----------------------

    Doubly Occupied:

       1A    -20.605856     2A    -20.546312     3A    -11.375497
       4A    -11.282592     5A    -11.237457     6A    -11.224244
       7A    -11.210120     8A    -11.205668     9A    -11.202164
      10A    -11.201186    11A    -11.198176    12A     -1.472203
      13A     -1.364707    14A     -1.087255    15A     -1.059598
      16A     -1.015558    17A     -0.974403    18A     -0.924425
      19A     -0.856330    20A     -0.800417    21A     -0.779934
      22A     -0.764868    23A     -0.694292    24A     -0.682906
      25A     -0.671642    26A     -0.642819    27A     -0.619852
      28A     -0.609753    29A     -0.583619    30A     -0.575040
      31A     -0.561392    32A     -0.544474    33A     -0.534661
      34A     -0.526053    35A     -0.514785    36A     -0.499534
      37A     -0.496826    38A     -0.469114    39A     -0.461406
      40A     -0.457583    41A     -0.451949    42A     -0.449814
      43A     -0.438862    44A     -0.422277

  @DF-RHF Final Energy:  -501.03168276942984

   => Energetics <=

    Nuclear Repulsion Energy =            632.9107546453690247
    One-Electron Energy =               -1937.2896325212850570
    Two-Electron Energy =                 803.3471951064855148
    DFT Exchange-Correlation Energy =       0.0000000000000000
    Empirical Dispersion Energy =           0.0000000000000000
    PCM Polarization Energy =               0.0000000000000000
    EFP Energy =                            0.0000000000000000
    Total Energy =                       -501.0316827694305175
    Molecular point group: c1
  Basis Set: 6-31G*
  Basis Set:

  -Total Gradient:
     Atom            X                  Y                   Z
    ------   -----------------  -----------------  -----------------
       1        0.001493096958     0.000686959695    -0.000380324575
       2       -0.001359860885    -0.000599915907     0.001832048187
       3       -0.004553904053    -0.002243540963     0.007599787861
       4       -0.000399488835     0.000325619411    -0.001342138184
       5       -0.007135784332    -0.006772161361    -0.002555669414
       6        0.004626427220     0.001230530835    -0.004364543312
       7        0.000518751168     0.001514154572    -0.000425921465
       8        0.001751216908    -0.000444868440     0.000846327550
       9        0.004302611829     0.005560073967     0.000275252481
      10        0.000409482647    -0.000186130419    -0.000548073303
      11       -0.001075333396    -0.000614641146    -0.000178795755
      12        0.000623015565     0.000017938597     0.000188110330
      13       -0.000138097614     0.001034053081    -0.000651479849
      14        0.000754744192     0.000491706233    -0.000009615925
      15       -0.000076476587     0.000240479282    -0.000023887273
      16        0.000473309819     0.000010045142    -0.000021378725
      17       -0.000420454191    -0.000300912086    -0.000217211030
      18        0.000063324477    -0.000022201585    -0.000035299137
      19        0.000043360512    -0.000012978295     0.000026208078
      20       -0.000024881598    -0.000041683405    -0.000046945754
      21       -0.000056667045    -0.000003666243    -0.000073213088
      22       -0.000029209280     0.000063081919     0.000025836007
      23       -0.000042507730     0.000012178444     0.000004042931
      24        0.000006766429    -0.000010903962    -0.000003398281
      25        0.000008198243     0.000003858985    -0.000012892937
      26        0.000090756475     0.000806306072     0.000214753648
      27       -0.000398552329     0.000096421129     0.000253253222
      28        0.000684845254    -0.000170944364     0.000498374621
      29       -0.000138689827    -0.000668859192    -0.000873206910

    Molecular point group: c1

    Geometry (in Angstrom), charge = 0, multiplicity = 1:

    O            0.875235739839    -1.319152994617     0.127666705982
    C            1.908205765612    -0.802163171738     0.409472968896
    C            2.433924050633     0.502411727779    -0.139689305973
    O            2.796200911507    -1.357669990985     1.223417327093
    C            1.427866587468     1.559662830041    -0.648815795615
    H            3.128717369719     0.932643964616     0.569249843934
    H            3.077557001719     0.207905605803    -0.967337796987
    C            0.006337614439     1.606072167730    -0.055067897275
    H            1.386876865558     1.538715913491    -1.733396635341
    H            1.908863089086     2.510165454042    -0.434994571872
    C           -1.081100953110     0.986090559296    -0.938901159120
    H           -0.256639818443     2.647694728551     0.110547763408
    H           -0.004067481773     1.139254271485     0.924362489451
    C           -2.459946796125     1.010846410572    -0.281471791317
    H           -1.124271039259     1.536931538909    -1.877065976661
    H           -0.802961362281    -0.029031794749    -1.177652522079
    C           -3.557522534412     0.417215782794    -1.166540501495
    H           -2.725342181676     2.035539136134    -0.021412491892
    H           -2.416188001621     0.460033507694     0.655009331328
    C           -4.933476835274     0.433365225451    -0.501146028027
    H           -3.603102742297     0.967809993332    -2.103246659516
    H           -3.294384331483    -0.605878278041    -1.426962097334
    H           -5.691273631795     0.008205123691    -1.151849006897
    H           -5.237217069178     1.446981077877    -0.257223896372
    H           -4.931434422730    -0.140458505871     0.421470709094
    C            2.481770667976    -2.633319802309     1.755317329075
    H            1.576110411297    -2.587442389973     2.344007264260
    H            3.321732550413    -2.903298687637     2.379162869591
    H            2.354346851350    -3.357843524457     0.960768743244

  Mulliken Charges: (a.u.)
   Center  Symbol    Alpha    Beta     Spin     Total
       1     O     4.28706  4.28706  0.00000 -0.57411
       2     C     2.60643  2.60643  0.00000  0.78714
       3     C     3.21411  3.21411  0.00000 -0.42821
       4     O     4.30468  4.30468  0.00000 -0.60936
       5     C     3.15618  3.15618  0.00000 -0.31236
       6     H     0.39757  0.39757  0.00000  0.20487
       7     H     0.39740  0.39740  0.00000  0.20521
       8     C     3.15489  3.15489  0.00000 -0.30977
       9     H     0.41376  0.41376  0.00000  0.17248
      10     H     0.41689  0.41689  0.00000  0.16622
      11     C     3.15414  3.15414  0.00000 -0.30828
      12     H     0.42279  0.42279  0.00000  0.15443
      13     H     0.41934  0.41934  0.00000  0.16132
      14     C     3.15205  3.15205  0.00000 -0.30410
      15     H     0.43005  0.43005  0.00000  0.13990
      16     H     0.40126  0.40126  0.00000  0.19747
      17     C     3.15120  3.15120  0.00000 -0.30240
      18     H     0.42801  0.42801  0.00000  0.14398
      19     H     0.42235  0.42235  0.00000  0.15530
      20     C     3.23889  3.23889  0.00000 -0.47778
      21     H     0.42513  0.42513  0.00000  0.14973
      22     H     0.42095  0.42095  0.00000  0.15810
      23     H     0.42089  0.42089  0.00000  0.15821
      24     H     0.42335  0.42335  0.00000  0.15331
      25     H     0.42214  0.42214  0.00000  0.15573
      26     C     3.09261  3.09261  0.00000 -0.18521
      27     H     0.40867  0.40867  0.00000  0.18267
      28     H     0.40807  0.40807  0.00000  0.18385
      29     H     0.40917  0.40917  0.00000  0.18167

   Total alpha = 44.00000, Total beta = 44.00000, Total charge = -0.00000
