                              Psi4 1.0.54 Driver

  ==> Input File <==

--------------------------------------------------------------------------
set {
	reference rhf
	basis cc-pvtz
}

set_num_threads( 4 )
memory 2 gb

molecule MOL {
0 1

H	 -4.211260	 0.222029	 0.376188
O	 -3.515113	 -0.019339	 -0.206321
C	 -2.302264	 0.528872	 0.237390
C	 -1.175688	 -0.398187	 -0.171891
H	 -2.148018	 1.514076	 -0.197759
H	 -2.310727	 0.646384	 1.319032
C	 0.196029	 0.106276	 0.266738
H	 -1.201873	 -0.515469	 -1.250677
H	 -1.365975	 -1.378728	 0.252664
C	 1.330220	 -0.826136	 -0.155230
H	 0.359542	 1.097229	 -0.145561
H	 0.212134	 0.218135	 1.348778
C	 2.719700	 -0.407669	 0.328325
H	 1.339388	 -0.911200	 -1.239363
H	 1.119001	 -1.821953	 0.224128
C	 3.241564	 0.893452	 -0.276737
H	 3.418299	 -1.204729	 0.093035
H	 2.711776	 -0.323368	 1.411960
H	 3.254204	 0.841071	 -1.360784
H	 2.634460	 1.745075	 0.005842
H	 4.254264	 1.092401	 0.054971

	symmetry c1
}
set optking {
	frozen_dihedral = ("
		1 2 3 5
	")
}

ee,wfn = optimize('scf', return_wfn=True)
oeprop( wfn, 'DIPOLE', 'QUADRUPOLE', 'MULLIKEN_CHARGES')
f=open( 'psi4out.xyz', 'w' )
f.write( "21  " )
f.write( str(ee) + "\n" )
f.write( MOL.save_string_xyz() )
f.close()
--------------------------------------------------------------------------

    Molecular point group: c1
  Charge       = 0
  Multiplicity = 1
  Basis Set: CC-PVTZ
  Basis Set:
  @DF-RHF Final Energy:  -310.33211366872933
    Total Energy =                       -310.3321136687291641
    Molecular point group: c1
  Basis Set: CC-PVTZ
  Basis Set:
  Basis Set: CC-PVTZ
  Basis Set:
  @DF-RHF Final Energy:  -310.33216745368810
    Total Energy =                       -310.3321674536881574
  Basis Set: CC-PVTZ
  Basis Set:
  Basis Set: CC-PVTZ
  Basis Set:
  @DF-RHF Final Energy:  -310.33218213455160
    Total Energy =                       -310.3321821345518856
  Basis Set: CC-PVTZ
  Basis Set:
  Basis Set: CC-PVTZ
  Basis Set:
  @DF-RHF Final Energy:  -310.33217961851784
    Total Energy =                       -310.3321796185175572
  Basis Set: CC-PVTZ
  Basis Set:
  Charge       = 0
  Multiplicity = 1
  Basis Set: CC-PVTZ
  Basis Set:

    Orbital Energies (a.u.)
    -----------------------

    Doubly Occupied:

       1A    -20.544788     2A    -11.265195     3A    -11.213207
       4A    -11.213094     5A    -11.211367     6A    -11.208679
       7A    -11.206023     8A     -1.362495     9A     -1.087403
      10A     -1.034343    11A     -0.955507    12A     -0.876695
      13A     -0.808147    14A     -0.779190    15A     -0.699601
      16A     -0.658511    17A     -0.621418    18A     -0.610228
      19A     -0.588332    20A     -0.568830    21A     -0.541052
      22A     -0.522130    23A     -0.507643    24A     -0.492532
      25A     -0.476305    26A     -0.460559    27A     -0.456427
      28A     -0.452632    29A     -0.429946

  @DF-RHF Final Energy:  -310.33218334893513

   => Energetics <=

    Nuclear Repulsion Energy =            312.8230332865581431
    One-Electron Energy =               -1040.6058734531816299
    Two-Electron Energy =                 417.4506568176884684
    DFT Exchange-Correlation Energy =       0.0000000000000000
    Empirical Dispersion Energy =           0.0000000000000000
    PCM Polarization Energy =               0.0000000000000000
    EFP Energy =                            0.0000000000000000
    Total Energy =                       -310.3321833489350183
    Molecular point group: c1
  Basis Set: CC-PVTZ
  Basis Set:

  -Total Gradient:
     Atom            X                  Y                   Z
    ------   -----------------  -----------------  -----------------
       1        0.000229115116    -0.001320239631     0.000830459331
       2       -0.000089049541     0.001484719044    -0.001303152542
       3       -0.000786124371     0.000373834434     0.001528188616
       4       -0.000001831123     0.000008632063    -0.000006590154
       5        0.000646918685    -0.000546243228    -0.001060265431
       6        0.000003029140     0.000004776342     0.000014102232
       7       -0.000012047764     0.000000791274     0.000006131454
       8        0.000004366436    -0.000005308263    -0.000009572899
       9       -0.000004792233    -0.000002028703     0.000004461892
      10       -0.000006707581     0.000007230577    -0.000000813884
      11        0.000001308832    -0.000000750010     0.000000538905
      12        0.000001504352     0.000001979121    -0.000000698076
      13       -0.000013648308    -0.000002279577    -0.000002219244
      14       -0.000001584965    -0.000000676187    -0.000006388744
      15       -0.000001189892    -0.000004541600     0.000001952373
      16        0.000011360440     0.000002897154    -0.000009394279
      17        0.000023891725    -0.000022136119    -0.000004439593
      18       -0.000002732545    -0.000000234691     0.000022372902
      19        0.000003174930     0.000001165452    -0.000010064320
      20       -0.000012539931     0.000017579881     0.000006443071
      21        0.000007578583     0.000000832666    -0.000001051612

  **** Optimization is complete! (in 5 steps) ****
    Final optimized geometry and variables:
    Molecular point group: c1

    Geometry (in Angstrom), charge = 0, multiplicity = 1:

    H           -4.220629510587     0.271059589966     0.367358379477
    O           -3.519893650725     0.029246820030    -0.207789819222
    C           -2.298574901487     0.534280014266     0.268018163667
    C           -1.178728566930    -0.397004036337    -0.154698620859
    H           -2.122719418379     1.524946106628    -0.144551062376
    H           -2.315715904814     0.625238395302     1.350899415526
    C            0.199949091875     0.103556341480     0.265851939929
    H           -1.219066323995    -0.511205188319    -1.233574476495
    H           -1.365806532253    -1.378719167189     0.268731519701
    C            1.325951188977    -0.833968726203    -0.166388202987
    H            0.361713424642     1.092645406861    -0.151233639907
    H            0.229619407629     0.218748539711     1.347472287249
    C            2.721937271627    -0.421166846798     0.303093382017
    H            1.323907147412    -0.919647965685    -1.250473271522
    H            1.114261078854    -1.828675658070     0.215669757489
    C            3.243170399979     0.877452147472    -0.307809351748
    H            3.414883187984    -1.221218995457     0.061189916202
    H            2.725216844547    -0.336336903900     1.386747621763
    H            3.244078351623     0.824698868457    -1.391885109695
    H            2.642833019157     1.731809595471    -0.019109240739
    H            4.260200110605     1.071951794203     0.013111308657

  Mulliken Charges: (a.u.)
   Center  Symbol    Alpha    Beta     Spin     Total
       1     H     0.39351  0.39351  0.00000  0.21297
       2     O     4.19969  4.19969  0.00000 -0.39938
       3     C     2.96538  2.96538  0.00000  0.06924
       4     C     3.08186  3.08186  0.00000 -0.16373
       5     H     0.47182  0.47182  0.00000  0.05636
       6     H     0.47508  0.47508  0.00000  0.04984
       7     C     3.10357  3.10357  0.00000 -0.20714
       8     H     0.45031  0.45031  0.00000  0.09938
       9     H     0.45279  0.45279  0.00000  0.09442
      10     C     3.09389  3.09389  0.00000 -0.18778
      11     H     0.45283  0.45283  0.00000  0.09434
      12     H     0.45618  0.45618  0.00000  0.08764
      13     C     3.08992  3.08992  0.00000 -0.17984
      14     H     0.45293  0.45293  0.00000  0.09413
      15     H     0.44904  0.44904  0.00000  0.10191
      16     C     3.15233  3.15233  0.00000 -0.30466
      17     H     0.44847  0.44847  0.00000  0.10306
      18     H     0.45517  0.45517  0.00000  0.08966
      19     H     0.45453  0.45453  0.00000  0.09093
      20     H     0.45416  0.45416  0.00000  0.09167
      21     H     0.44653  0.44653  0.00000  0.10695

   Total alpha = 29.00000, Total beta = 29.00000, Total charge = -0.00000

*** Psi4 exiting successfully. Buy a developer a beer!
