  ==> Input File <==

--------------------------------------------------------------------------
set {
	reference rhf
	basis 6-31G*
}

set_num_threads( 1 )
memory 2 gb

molecule MOL {
0 1

H	 2.390327	 0.594679	 -1.175823
O	 1.528553	 0.194013	 -1.235828
C	 1.050492	 0.053836	 0.000068
C	 -0.318135	 -0.576402	 0.000164
O	 1.663123	 0.397873	 0.957835
C	 -1.454360	 0.441875	 -0.000474
H	 -0.374042	 -1.230163	 -0.866135
H	 -0.374274	 -1.229227	 0.867154
C	 -2.826123	 -0.230780	 0.000056
H	 -1.357605	 1.085198	 -0.868380
H	 -1.357504	 1.086451	 0.866496
H	 -2.959731	 -0.858053	 -0.876869
H	 -3.619374	 0.509403	 -0.000080
H	 -2.959371	 -0.857318	 0.877556

	symmetry c1
}
set optking {
	frozen_dihedral = ("
		7 4 6 10,
		1 2 3 5
	")
}

ee = energy('scf')
oeprop('DIPOLE', 'QUADRUPOLE', 'MULLIKEN_CHARGES')
f=open( 'psi4out.xyz', 'w' )
f.write( "14  " )
f.write( str(ee) + "\n" )
f.write( MOL.save_string_xyz() )
f.close()
--------------------------------------------------------------------------

    Molecular point group: c1

    Geometry (in Angstrom), charge = 0, multiplicity = 1:

       Center              X                  Y                   Z               Mass
    ------------   -----------------  -----------------  -----------------  -----------------
           H          2.415556704692     0.539899715390    -1.111838505720     1.007825032070
           O          1.553782704692     0.139233715390    -1.171843505720    15.994914619560
           C          1.075721704692    -0.000943284610     0.064052494280    12.000000000000
           C         -0.292905295308    -0.631181284610     0.064148494280    12.000000000000
           O          1.688352704692     0.343093715390     1.021819494280    15.994914619560
           C         -1.429130295308     0.387095715390     0.063510494280    12.000000000000
           H         -0.348812295308    -1.284942284610    -0.802150505720     1.007825032070
           H         -0.349044295308    -1.284006284610     0.931138494280     1.007825032070
           C         -2.800893295308    -0.285559284610     0.064040494280    12.000000000000
           H         -1.332375295308     1.030418715390    -0.804395505720     1.007825032070
           H         -1.332274295308     1.031671715390     0.930480494280     1.007825032070
           H         -2.934501295308    -0.912832284610    -0.812884505720     1.007825032070
           H         -3.594144295308     0.454623715390     0.063904494280     1.007825032070
           H         -2.934141295308    -0.912097284610     0.941540494280     1.007825032070

  Charge       = 0
  Multiplicity = 1
  Basis Set: 6-31G*
  Basis Set:

    Orbital Energies (a.u.)
    -----------------------

    Doubly Occupied:

       1A    -20.613412     2A    -20.549959     3A    -11.380386
       4A    -11.239105     5A    -11.236060     6A    -11.221790
       7A     -1.474350     8A     -1.364770     9A     -1.087381
      10A     -0.980305    11A     -0.854587    12A     -0.807168
      13A     -0.702161    14A     -0.685065    15A     -0.640763
      16A     -0.635726    17A     -0.594705    18A     -0.568896
      19A     -0.549725    20A     -0.518024    21A     -0.500827
      22A     -0.488237    23A     -0.472194    24A     -0.438727

  @DF-RHF Final Energy:  -305.87844352856177

   => Energetics <=

    Nuclear Repulsion Energy =            239.9427431342037664
    One-Electron Energy =                -892.4336944051475484
    Two-Electron Energy =                 346.6125077423818652
    DFT Exchange-Correlation Energy =       0.0000000000000000
    Empirical Dispersion Energy =           0.0000000000000000
    PCM Polarization Energy =               0.0000000000000000
    EFP Energy =                            0.0000000000000000
    Total Energy =                       -305.8784435285619452

  Mulliken Charges: (a.u.)
   Center  Symbol    Alpha    Beta     Spin     Total
       1     H     0.26828  0.26828  0.00000  0.46344
       2     O     4.34691  4.34691  0.00000 -0.69382
       3     C     2.63363  2.63363  0.00000  0.73274
       4     C     3.19820  3.19820  0.00000 -0.39639
       5     O     4.27799  4.27799  0.00000 -0.55598
       6     C     3.16319  3.16319  0.00000 -0.32639
       7     H     0.40219  0.40219  0.00000  0.19561
       8     H     0.39966  0.39966  0.00000  0.20067
       9     C     3.24196  3.24196  0.00000 -0.48392
      10     H     0.41081  0.41081  0.00000  0.17838
      11     H     0.40720  0.40720  0.00000  0.18559
      12     H     0.41824  0.41824  0.00000  0.16352
      13     H     0.41418  0.41418  0.00000  0.17163
      14     H     0.41754  0.41754  0.00000  0.16492

   Total alpha = 24.00000, Total beta = 24.00000, Total charge = -0.00000
