  ==> Input File <==

--------------------------------------------------------------------------
set {
	reference rhf
	basis 6-31G*
}

set_num_threads( 1 )
memory 2 gb

molecule MOL {
0 1

O	 -2.042549	 -1.228399	 -0.269030
C	 -1.653912	 -0.146171	 0.050137
C	 -0.332303	 0.024011	 0.778412
C	 -2.438579	 1.106236	 -0.272369
C	 0.845713	 -0.001731	 -0.208243
H	 -0.323783	 0.953829	 1.340327
H	 -0.235459	 -0.796807	 1.480410
C	 1.205279	 -1.418193	 -0.659215
H	 1.718578	 0.461347	 0.248647
H	 0.587700	 0.604693	 -1.071273
C	 2.370625	 -1.446052	 -1.647345
H	 1.453600	 -2.022534	 0.210575
H	 0.333017	 -1.880682	 -1.115099
H	 3.268369	 -1.020471	 -1.208040
H	 2.138710	 -0.876429	 -2.542436
H	 2.601291	 -2.461980	 -1.951829
H	 -3.277823	 0.863061	 -0.908988
H	 -1.806773	 1.843019	 -0.759671
H	 -2.802853	 1.554979	 0.648059

	symmetry c1
}
set optking {
	frozen_dihedral = ("
		11 8 5 9,
		5 3 2 4
	")
}

ee = energy('scf')
oeprop('DIPOLE', 'QUADRUPOLE', 'MULLIKEN_CHARGES')
f=open( 'psi4out.xyz', 'w' )
f.write( "19  " )
f.write( str(ee) + "\n" )
f.write( MOL.save_string_xyz() )
f.close()
--------------------------------------------------------------------------

    Molecular point group: c1

    Geometry (in Angstrom), charge = 0, multiplicity = 1:

       Center              X                  Y                   Z               Mass
    ------------   -----------------  -----------------  -----------------  -----------------
           O         -1.752553062879    -0.778492086173     0.065472466360    15.994914619560
           C         -1.363916062879     0.303735913827     0.384639466360    12.000000000000
           C         -0.042307062879     0.473917913827     1.112914466360    12.000000000000
           C         -2.148583062879     1.556142913827     0.062133466360    12.000000000000
           C          1.135708937121     0.448175913827     0.126259466360    12.000000000000
           H         -0.033787062879     1.403735913827     1.674829466360     1.007825032070
           H          0.054536937121    -0.346900086173     1.814912466360     1.007825032070
           C          1.495274937121    -0.968286086173    -0.324712533640    12.000000000000
           H          2.008573937121     0.911253913827     0.583149466360     1.007825032070
           H          0.877695937121     1.054599913827    -0.736770533640     1.007825032070
           C          2.660620937121    -0.996145086173    -1.312842533640    12.000000000000
           H          1.743595937121    -1.572627086173     0.545077466360     1.007825032070
           H          0.623012937121    -1.430775086173    -0.780596533640     1.007825032070
           H          3.558364937121    -0.570564086173    -0.873537533640     1.007825032070
           H          2.428705937121    -0.426522086173    -2.207933533640     1.007825032070
           H          2.891286937121    -2.012073086173    -1.617326533640     1.007825032070
           H         -2.987827062879     1.312967913827    -0.574485533640     1.007825032070
           H         -1.516777062879     2.292925913827    -0.425168533640     1.007825032070
           H         -2.512857062879     2.004885913827     0.982561466360     1.007825032070

  Charge       = 0
  Multiplicity = 1
  Basis Set: 6-31G*
  Basis Set:

    Orbital Energies (a.u.)
    -----------------------

    Doubly Occupied:

       1A    -20.549074     2A    -11.325778     3A    -11.230279
       4A    -11.229390     5A    -11.229145     6A    -11.214343
       7A    -11.208962     8A     -1.395217     9A     -1.088939
      10A     -1.027056    11A     -0.982196    12A     -0.886692
      13A     -0.803996    14A     -0.734502    15A     -0.662240
      16A     -0.642475    17A     -0.620014    18A     -0.606553
      19A     -0.582947    20A     -0.574381    21A     -0.551616
      22A     -0.537035    23A     -0.519773    24A     -0.493012
      25A     -0.477910    26A     -0.470815    27A     -0.460160
      28A     -0.397051

  @DF-RHF Final Energy:  -309.06334183632896

   => Energetics <=

    Nuclear Repulsion Energy =            307.7764186399803066
    One-Electron Energy =               -1028.6765018338983282
    Two-Electron Energy =                 411.8367413575895171
    DFT Exchange-Correlation Energy =       0.0000000000000000
    Empirical Dispersion Energy =           0.0000000000000000
    PCM Polarization Energy =               0.0000000000000000
    EFP Energy =                            0.0000000000000000
    Total Energy =                       -309.0633418363285045

  Mulliken Charges: (a.u.)
   Center  Symbol    Alpha    Beta     Spin     Total
       1     O     4.26079  4.26079  0.00000 -0.52158
       2     C     2.73903  2.73903  0.00000  0.52194
       3     C     3.20292  3.20292  0.00000 -0.40585
       4     C     3.28881  3.28881  0.00000 -0.57763
       5     C     3.16127  3.16127  0.00000 -0.32253
       6     H     0.41417  0.41417  0.00000  0.17166
       7     H     0.40067  0.40067  0.00000  0.19867
       8     C     3.15592  3.15592  0.00000 -0.31184
       9     H     0.41526  0.41526  0.00000  0.16948
      10     H     0.42054  0.42054  0.00000  0.15891
      11     C     3.24056  3.24056  0.00000 -0.48112
      12     H     0.42186  0.42186  0.00000  0.15628
      13     H     0.40295  0.40295  0.00000  0.19409
      14     H     0.42351  0.42351  0.00000  0.15298
      15     H     0.42204  0.42204  0.00000  0.15592
      16     H     0.41701  0.41701  0.00000  0.16598
      17     H     0.39700  0.39700  0.00000  0.20599
      18     H     0.40937  0.40937  0.00000  0.18127
      19     H     0.40633  0.40633  0.00000  0.18735

   Total alpha = 28.00000, Total beta = 28.00000, Total charge =  0.00000
