  ==> Input File <==

--------------------------------------------------------------------------
set {
	reference rhf
	basis 6-31G*
}

set_num_threads( 1 )
memory 2 gb

molecule MOL {
0 1

H	 -2.646374	 -0.642757	 1.268656
C	 -2.083525	 -0.384536	 0.393091
O	 -0.807605	 -0.127164	 0.768327
F	 -2.118945	 -1.383102	 -0.486752
F	 -2.621877	 0.670592	 -0.209486
C	 -0.236951	 -0.950939	 1.721446
C	 0.440082	 -0.046477	 2.743078
Cl	 0.940469	 -2.049142	 0.983309
H	 -0.967700	 -1.552170	 2.233599
F	 0.997855	 -0.764725	 3.694471
F	 -0.472894	 0.726892	 3.296081
F	 1.355883	 0.716667	 2.198197

	symmetry c1
}
set optking {
	frozen_dihedral = ("
		10 7 6 9,
		9 6 3 2
	")
}

ee = energy('scf')
oeprop('DIPOLE', 'QUADRUPOLE', 'MULLIKEN_CHARGES')
f=open( 'psi4out.xyz', 'w' )
f.write( "12  " )
f.write( str(ee) + "\n" )
f.write( MOL.save_string_xyz() )
f.close()
--------------------------------------------------------------------------

    Molecular point group: c1

    Geometry (in Angstrom), charge = 0, multiplicity = 1:

       Center              X                  Y                   Z               Mass
    ------------   -----------------  -----------------  -----------------  -----------------
           H         -2.317124249311    -0.136561897413    -0.198091830541     1.007825032070
           C         -1.754275249311     0.121659102587    -1.073656830541    12.000000000000
           O         -0.478355249311     0.379031102587    -0.698420830541    15.994914619560
           F         -1.789695249311    -0.876906897413    -1.953499830541    18.998403224000
           F         -2.292627249311     1.176787102587    -1.676233830541    18.998403224000
           C          0.092298750689    -0.444743897413     0.254698169459    12.000000000000
           C          0.769331750689     0.459718102587     1.276330169459    12.000000000000
          CL          1.269718750689    -1.542946897413    -0.483438830541    34.968852682000
           H         -0.638450249311    -1.045974897413     0.766851169459     1.007825032070
           F          1.327104750689    -0.258529897413     2.227723169459    18.998403224000
           F         -0.143644249311     1.233087102587     1.829333169459    18.998403224000
           F          1.685132750689     1.222862102587     0.731449169459    18.998403224000

  Charge       = 0
  Multiplicity = 1
  Basis Set: 6-31G*
  Basis Set:

    Orbital Energies (a.u.)
    -----------------------

    Doubly Occupied:

       1A   -104.849880     2A    -26.367053     3A    -26.366466
       4A    -26.362346     5A    -26.345143     6A    -26.339295
       7A    -20.651185     8A    -11.534389     9A    -11.491287
      10A    -11.411479    11A    -10.584550    12A     -8.053913
      13A     -8.050324    14A     -8.050241    15A     -1.767513
      16A     -1.710755    17A     -1.664263    18A     -1.662373
      19A     -1.632523    20A     -1.490807    21A     -1.185068
      22A     -1.055102    23A     -0.985518    24A     -0.934209
      25A     -0.860371    26A     -0.857593    27A     -0.848463
      28A     -0.827845    29A     -0.811804    30A     -0.788568
      31A     -0.734026    32A     -0.730263    33A     -0.702452
      34A     -0.690274    35A     -0.685253    36A     -0.679841
      37A     -0.664227    38A     -0.655345    39A     -0.653475
      40A     -0.636858    41A     -0.617464    42A     -0.567782
      43A     -0.523876    44A     -0.482236    45A     -0.474993

  @DF-RHF Final Energy: -1146.30686162111488

   => Energetics <=

    Nuclear Repulsion Energy =            726.0143316238257967
    One-Electron Energy =               -3034.5648064078723110
    Two-Electron Energy =                1162.2436131629310694
    DFT Exchange-Correlation Energy =       0.0000000000000000
    Empirical Dispersion Energy =           0.0000000000000000
    PCM Polarization Energy =               0.0000000000000000
    EFP Energy =                            0.0000000000000000
    Total Energy =                      -1146.3068616211153312

  Mulliken Charges: (a.u.)
   Center  Symbol    Alpha    Beta     Spin     Total
       1     H     0.42399  0.42399  0.00000  0.15202
       2     C     2.56439  2.56439  0.00000  0.87122
       3     O     4.29659  4.29659  0.00000 -0.59318
       4     F     4.67973  4.67973  0.00000 -0.35945
       5     F     4.67470  4.67470  0.00000 -0.34941
       6     C     3.04211  3.04211  0.00000 -0.08423
       7     C     2.43093  2.43093  0.00000  1.13814
       8    CL     8.49289  8.49289  0.00000  0.01422
       9     H     0.37731  0.37731  0.00000  0.24537
      10     F     4.67350  4.67350  0.00000 -0.34700
      11     F     4.67715  4.67715  0.00000 -0.35431
      12     F     4.66669  4.66669  0.00000 -0.33339

   Total alpha = 45.00000, Total beta = 45.00000, Total charge =  0.00000
