  ==> Input File <==

--------------------------------------------------------------------------
set {
	reference rhf
	basis cc-pvtz
}

set_num_threads( 4 )
memory 2 gb

molecule MOL {
0 1

H	 3.618404	 0.660029	 1.041528
N	 2.794565	 0.097090	 1.043996
C	 1.860978	 0.530248	 0.016256
H	 2.386627	 0.176094	 1.952123
C	 0.644130	 -0.381765	 -0.031064
H	 2.375960	 0.489282	 -0.937695
H	 1.531445	 1.561515	 0.149862
C	 -0.678115	 0.376691	 0.025731
H	 0.693998	 -0.977147	 -0.936845
H	 0.693309	 -1.082142	 0.800523
C	 -1.900706	 -0.535531	 -0.022488
H	 -0.725296	 1.079516	 -0.802982
H	 -0.715474	 0.974884	 0.933278
C	 -3.220513	 0.226854	 0.028039
H	 -1.865036	 -1.134397	 -0.928236
H	 -1.857948	 -1.236381	 0.806820
H	 -3.309098	 0.911849	 -0.808725
H	 -4.066838	 -0.449485	 -0.008086
H	 -3.301685	 0.809374	 0.939860

	symmetry c1
}
set optking {
	frozen_dihedral = ("
		6 3 5 9
	")
}

ee = optimize('scf')
oeprop('DIPOLE', 'QUADRUPOLE', 'MULLIKEN_CHARGES')
f=open( 'psi4out.xyz', 'w' )
f.write( "19  " )
f.write( str(ee) + "\n" )
f.write( MOL.save_string_xyz() )
f.close()
--------------------------------------------------------------------------

    Molecular point group: c1
  Charge       = 0
  Multiplicity = 1
  Basis Set: CC-PVTZ
  Basis Set:
  @DF-RHF Final Energy:  -251.44190566827098
    Total Energy =                       -251.4419056682709197
    Molecular point group: c1
  Basis Set: CC-PVTZ
  Basis Set:
  Basis Set: CC-PVTZ
  Basis Set:
  @DF-RHF Final Energy:  -251.44224539310929
    Total Energy =                       -251.4422453931094878
  Basis Set: CC-PVTZ
  Basis Set:
  Basis Set: CC-PVTZ
  Basis Set:
  @DF-RHF Final Energy:  -251.44234428768513
    Total Energy =                       -251.4423442876850459
  Basis Set: CC-PVTZ
  Basis Set:
  Basis Set: CC-PVTZ
  Basis Set:
  @DF-RHF Final Energy:  -251.44234539927064
    Total Energy =                       -251.4423453992706072
  Basis Set: CC-PVTZ
  Basis Set:
  Charge       = 0
  Multiplicity = 1
  Basis Set: CC-PVTZ
  Basis Set:

    Orbital Energies (a.u.)
    -----------------------

    Doubly Occupied:

       1A    -15.526477     2A    -11.238164     3A    -11.211970
       4A    -11.210853     5A    -11.207679     6A    -11.205904
       7A     -1.176856     8A     -1.073809     9A     -0.997759
      10A     -0.901158    11A     -0.814905    12A     -0.789066
      13A     -0.668761    14A     -0.637458    15A     -0.620172
      16A     -0.583640    17A     -0.568932    18A     -0.549078
      19A     -0.529446    20A     -0.503033    21A     -0.483721
      22A     -0.465297    23A     -0.461111    24A     -0.445492
      25A     -0.382703

  @DF-RHF Final Energy:  -251.44234597782440

   => Energetics <=

    Nuclear Repulsion Energy =            246.3287973849920149
    One-Electron Energy =                -827.0353992491536701
    Two-Electron Energy =                 329.2642558863373097
    DFT Exchange-Correlation Energy =       0.0000000000000000
    Empirical Dispersion Energy =           0.0000000000000000
    PCM Polarization Energy =               0.0000000000000000
    EFP Energy =                            0.0000000000000000
    Total Energy =                       -251.4423459778244023
    Molecular point group: c1
  Basis Set: CC-PVTZ
  Basis Set:

  -Total Gradient:
     Atom            X                  Y                   Z
    ------   -----------------  -----------------  -----------------
       1        0.000031938793    -0.000002803080     0.000022854141
       2       -0.000001158902     0.000022097466    -0.000062469310
       3       -0.001798439190     0.002400969163    -0.001106853493
       4       -0.000020371600     0.000012262264    -0.000040603901
       5        0.001646457729    -0.002282777343     0.001466723203
       6        0.001227481020    -0.001687252626     0.000747837056
       7       -0.000005519784    -0.000015064076     0.000002749368
       8        0.000029522327    -0.000008809486     0.000035911524
       9       -0.001084006516     0.001553042655    -0.001075561332
      10       -0.000000328851     0.000015091687     0.000007122038
      11        0.000002861789     0.000006938427     0.000005246345
      12        0.000021199523    -0.000003277157     0.000004299404
      13       -0.000011035053    -0.000000097178     0.000000538677
      14       -0.000023035954    -0.000013865629    -0.000002745243
      15        0.000001724755    -0.000004106457     0.000002653441
      16       -0.000007239712     0.000005348540    -0.000003850221
      17        0.000001537663    -0.000001147486     0.000000663084
      18       -0.000013658070     0.000006740994    -0.000002216237
      19        0.000002070030    -0.000003290676    -0.000002298545

  **** Optimization is complete! (in 5 steps) ****
    Final optimized geometry and variables:
    Molecular point group: c1

    Geometry (in Angstrom), charge = 0, multiplicity = 1:

    H            3.704840727130     0.594090415711     0.820937137626
    N            2.882425108041     0.028425426176     0.835933697639
    C            1.926543583127     0.471414553629    -0.171244420391
    H            2.492154381926     0.102593047705     1.752475788459
    C            0.692713599731    -0.446786145109    -0.209060104400
    H            2.440297161916     0.435525516889    -1.124015875086
    H            1.609129322753     1.502132610815    -0.019262402766
    C           -0.633100269791     0.310408536207    -0.167595852735
    H            0.715251042210    -1.051757626945    -1.109314107912
    H            0.743545881388    -1.136512816512     0.626050781149
    C           -1.853859579329    -0.602872032597    -0.222796905996
    H           -0.674380012328     1.012144823908    -0.997788667336
    H           -0.675937212477     0.912186991972     0.737945833322
    C           -3.175412192036     0.156986636896    -0.176861270153
    H           -1.813593727966    -1.200337978461    -1.129472678200
    H           -1.813290132528    -1.305514156584     0.605128890519
    H           -3.261193747096     0.843791296607    -1.012451975979
    H           -4.020459221869    -0.520665317583    -0.218477382085
    H           -3.261941253879     0.737223880260     0.735906428558

  Mulliken Charges: (a.u.)
   Center  Symbol    Alpha    Beta     Spin     Total
       1     H     0.42979  0.42979  0.00000  0.14043
       2     N     3.68839  3.68839  0.00000 -0.37677
       3     C     3.03477  3.03477  0.00000 -0.06955
       4     H     0.43107  0.43107  0.00000  0.13786
       5     C     3.09100  3.09100  0.00000 -0.18199
       6     H     0.45494  0.45494  0.00000  0.09012
       7     H     0.46511  0.46511  0.00000  0.06978
       8     C     3.08964  3.08964  0.00000 -0.17929
       9     H     0.45137  0.45137  0.00000  0.09725
      10     H     0.44921  0.44921  0.00000  0.10158
      11     C     3.08510  3.08510  0.00000 -0.17021
      12     H     0.45510  0.45510  0.00000  0.08980
      13     H     0.45668  0.45668  0.00000  0.08664
      14     C     3.14957  3.14957  0.00000 -0.29914
      15     H     0.45435  0.45435  0.00000  0.09129
      16     H     0.45436  0.45436  0.00000  0.09128
      17     H     0.45541  0.45541  0.00000  0.08918
      18     H     0.44851  0.44851  0.00000  0.10298
      19     H     0.45563  0.45563  0.00000  0.08874

   Total alpha = 25.00000, Total beta = 25.00000, Total charge =  0.00000
