                              Psi4 1.0.54 Driver

  ==> Input File <==

--------------------------------------------------------------------------
set {
	reference rhf
	basis cc-pvtz
}

set_num_threads( 4 )
memory 2 gb

molecule MOL {
0 1

H	 -1.088256	 -1.364742	 0.152233
O	 -1.432053	 -0.565244	 -0.200812
C	 -0.727158	 0.534527	 0.310686
C	 0.680222	 0.664433	 -0.252229
H	 -1.306802	 1.408001	 0.044211
H	 -0.690821	 0.490158	 1.397609
C	 0.731086	 1.243741	 -1.662854
H	 1.266114	 1.283119	 0.419478
H	 1.134063	 -0.322824	 -0.250674
H	 0.340404	 2.254985	 -1.692440
H	 1.749722	 1.284208	 -2.029319
H	 0.155133	 0.639649	 -2.357338

	symmetry c1
}
set optking {
	frozen_dihedral = ("
		8 4 3 2
	")
}

ee,wfn = optimize('scf', return_wfn=True)
oeprop( wfn, 'DIPOLE', 'QUADRUPOLE', 'MULLIKEN_CHARGES')
f=open( 'psi4out.xyz', 'w' )
f.write( "12  " )
f.write( str(ee) + "\n" )
f.write( MOL.save_string_xyz() )
f.close()
--------------------------------------------------------------------------

    Molecular point group: c1
  Charge       = 0
  Multiplicity = 1
  Basis Set: CC-PVTZ
  Basis Set:
  @DF-RHF Final Energy:  -193.18954121544601
    Total Energy =                       -193.1895412154460985
    Molecular point group: c1
  Basis Set: CC-PVTZ
  Basis Set:
  Basis Set: CC-PVTZ
  Basis Set:
  @DF-RHF Final Energy:  -193.18983115493819
    Total Energy =                       -193.1898311549383038
  Basis Set: CC-PVTZ
  Basis Set:
  Basis Set: CC-PVTZ
  Basis Set:
  @DF-RHF Final Energy:  -193.18986776121378
    Total Energy =                       -193.1898677612138613
  Basis Set: CC-PVTZ
  Basis Set:
  Basis Set: CC-PVTZ
  Basis Set:
  @DF-RHF Final Energy:  -193.18987140529856
    Total Energy =                       -193.1898714052985326
  Basis Set: CC-PVTZ
  Basis Set:
  Charge       = 0
  Multiplicity = 1
  Basis Set: CC-PVTZ
  Basis Set:

    Orbital Energies (a.u.)
    -----------------------

    Doubly Occupied:

       1A    -20.546186     2A    -11.266107     3A    -11.218488
       4A    -11.207760     5A     -1.364394     6A     -1.050387
       7A     -0.921573     8A     -0.817760     9A     -0.682392
      10A     -0.635995    11A     -0.626521    12A     -0.568803
      13A     -0.531850    14A     -0.525163    15A     -0.484798
      16A     -0.468693    17A     -0.431899

  @DF-RHF Final Energy:  -193.18987166664263

   => Energetics <=

    Nuclear Repulsion Energy =            132.7179960010630850
    One-Electron Energy =                -525.1182006636598771
    Two-Electron Energy =                 199.2103329959541043
    DFT Exchange-Correlation Energy =       0.0000000000000000
    Empirical Dispersion Energy =           0.0000000000000000
    PCM Polarization Energy =               0.0000000000000000
    EFP Energy =                            0.0000000000000000
    Total Energy =                       -193.1898716666427163
    Molecular point group: c1
  Basis Set: CC-PVTZ
  Basis Set:

  -Total Gradient:
     Atom            X                  Y                   Z
    ------   -----------------  -----------------  -----------------
       1        0.000001599267     0.000011710663     0.000004549166
       2        0.001045687319    -0.001749367362     0.002243767757
       3       -0.001166030378     0.001663274838    -0.002596007341
       4       -0.000939172112     0.003273089808    -0.001569923281
       5       -0.000009508067    -0.000023928570    -0.000012124776
       6       -0.000015379871    -0.000010180375     0.000000237631
       7        0.000014620489    -0.000017329570     0.000000626108
       8        0.001078322467    -0.003130728790     0.001935558037
       9        0.000001434712    -0.000007071235    -0.000008009911
      10        0.000014304405    -0.000012336472     0.000014573704
      11       -0.000018167234     0.000009857253    -0.000000747582
      12       -0.000007710999    -0.000006990191    -0.000012499512

  **** Optimization is complete! (in 5 steps) ****
    Final optimized geometry and variables:
    Molecular point group: c1

    Geometry (in Angstrom), charge = 0, multiplicity = 1:

    H           -0.779390435775    -1.785271074042     0.495875615402
    O           -1.209151803028    -0.987856800321     0.245840935220
    C           -0.508082362376     0.110507600016     0.766847453034
    C            0.899343699947     0.242023200271     0.197551042383
    H           -1.098449596203     0.985781641638     0.528432620570
    H           -0.460256408237     0.038778633173     1.850597542454
    C            0.938297714350     0.785445223157    -1.225207582463
    H            1.494465914014     0.855744109701     0.867562720405
    H            1.365350614547    -0.741254391195     0.223505776154
    H            0.551510099362     1.798217929046    -1.264124993974
    H            1.950398754028     0.802390654655    -1.612387062740
    H            0.335655776077     0.173931230840    -1.885727143969

  Mulliken Charges: (a.u.)
   Center  Symbol    Alpha    Beta     Spin     Total
       1     H     0.39469  0.39469  0.00000  0.21061
       2     O     4.20462  4.20462  0.00000 -0.40924
       3     C     2.96993  2.96993  0.00000  0.06013
       4     C     3.08475  3.08475  0.00000 -0.16949
       5     H     0.46107  0.46107  0.00000  0.07786
       6     H     0.46412  0.46412  0.00000  0.07176
       7     C     3.14899  3.14899  0.00000 -0.29799
       8     H     0.45474  0.45474  0.00000  0.09053
       9     H     0.46340  0.46340  0.00000  0.07320
      10     H     0.45571  0.45571  0.00000  0.08857
      11     H     0.45025  0.45025  0.00000  0.09951
      12     H     0.44772  0.44772  0.00000  0.10455

   Total alpha = 17.00000, Total beta = 17.00000, Total charge =  0.00000

*** Psi4 exiting successfully. Buy a developer a beer!
