  ==> Input File <==

--------------------------------------------------------------------------
set {
	reference rhf
	basis 6-31G*
}

set_num_threads( 1 )
memory 2 gb

molecule MOL {
0 1

H	 -3.420663	 1.227371	 -1.044276
O	 -3.452007	 0.283848	 -0.965577
C	 -3.181085	 -0.079926	 0.364119
C	 -1.765924	 0.277073	 0.805136
H	 -3.327791	 -1.152017	 0.410903
H	 -3.905698	 0.375695	 1.036898
C	 -0.938483	 0.954598	 -0.287942
H	 -1.820024	 0.925436	 1.680157
H	 -1.269720	 -0.634454	 1.133953
C	 0.472055	 1.328898	 0.171906
H	 -1.460011	 1.842911	 -0.630899
H	 -0.873062	 0.288648	 -1.146793
C	 1.296207	 2.001242	 -0.929372
H	 0.399807	 1.985833	 1.035408
H	 0.991579	 0.433845	 0.511875
C	 2.746486	 2.315214	 -0.544316
H	 0.800730	 2.920076	 -1.239119
H	 1.304095	 1.352692	 -1.802950
C	 2.898718	 3.364884	 0.558146
H	 3.270360	 2.663527	 -1.431178
H	 3.244565	 1.396853	 -0.239796
H	 2.399110	 4.291023	 0.286488
H	 3.945960	 3.593872	 0.730440
H	 2.480838	 3.027757	 1.500954

	symmetry c1
}
set optking {
	frozen_dihedral = ("
		20 16 13 17,
		17 13 10 7,
		13 10 7 11,
		11 7 4 3,
		1 2 3 5
	")
}

ee = energy('scf')
oeprop('DIPOLE', 'QUADRUPOLE', 'MULLIKEN_CHARGES')
f=open( 'psi4out.xyz', 'w' )
f.write( "24  " )
f.write( str(ee) + "\n" )
f.write( MOL.save_string_xyz() )
f.close()
--------------------------------------------------------------------------

    Molecular point group: c1

    Geometry (in Angstrom), charge = 0, multiplicity = 1:

       Center              X                  Y                   Z               Mass
    ------------   -----------------  -----------------  -----------------  -----------------
           H         -3.127025704543    -0.074858224852    -0.932375191731     1.007825032070
           O         -3.158369704543    -1.018381224852    -0.853676191731    15.994914619560
           C         -2.887447704543    -1.382155224852     0.476019808269    12.000000000000
           C         -1.472286704543    -1.025156224852     0.917036808269    12.000000000000
           H         -3.034153704543    -2.454246224852     0.522803808269     1.007825032070
           H         -3.612060704543    -0.926534224852     1.148798808269     1.007825032070
           C         -0.644845704543    -0.347631224852    -0.176041191731    12.000000000000
           H         -1.526386704543    -0.376793224852     1.792057808269     1.007825032070
           H         -0.976082704543    -1.936683224852     1.245853808269     1.007825032070
           C          0.765692295457     0.026668775148     0.283806808269    12.000000000000
           H         -1.166373704543     0.540681775148    -0.518998191731     1.007825032070
           H         -0.579424704543    -1.013581224852    -1.034892191731     1.007825032070
           C          1.589844295457     0.699012775148    -0.817471191731    12.000000000000
           H          0.693444295457     0.683603775148     1.147308808269     1.007825032070
           H          1.285216295457    -0.868384224852     0.623775808269     1.007825032070
           C          3.040123295457     1.012984775148    -0.432415191731    12.000000000000
           H          1.094367295457     1.617846775148    -1.127218191731     1.007825032070
           H          1.597732295457     0.050462775148    -1.691049191731     1.007825032070
           C          3.192355295457     2.062654775148     0.670046808269    12.000000000000
           H          3.563997295457     1.361297775148    -1.319277191731     1.007825032070
           H          3.538202295457     0.094623775148    -0.127895191731     1.007825032070
           H          2.692747295457     2.988793775148     0.398388808269     1.007825032070
           H          4.239597295457     2.291642775148     0.842340808269     1.007825032070
           H          2.774475295457     1.725527775148     1.612854808269     1.007825032070

  Charge       = 0
  Multiplicity = 1
  Basis Set: 6-31G*
  Basis Set:

    Orbital Energies (a.u.)
    -----------------------

    Doubly Occupied:

       1A    -20.551457     2A    -11.265961     3A    -11.216196
       4A    -11.215161     5A    -11.214731     6A    -11.213728
       7A    -11.213036     8A    -11.208317     9A     -1.359953
      10A     -1.089510    11A     -1.048046    12A     -0.986753
      13A     -0.919205    14A     -0.853286    15A     -0.792310
      16A     -0.778018    17A     -0.690764    18A     -0.647868
      19A     -0.628536    20A     -0.614563    21A     -0.602271
      22A     -0.587529    23A     -0.556776    24A     -0.544118
      25A     -0.516111    26A     -0.510436    27A     -0.496843
      28A     -0.481441    29A     -0.462718    30A     -0.457388
      31A     -0.453670    32A     -0.445190    33A     -0.423493

  @DF-RHF Final Energy:  -349.23764636242674

   => Energetics <=

    Nuclear Repulsion Energy =            387.2554722786514958
    One-Electron Energy =               -1240.8954461782504950
    Two-Electron Energy =                 504.4023275371727095
    DFT Exchange-Correlation Energy =       0.0000000000000000
    Empirical Dispersion Energy =           0.0000000000000000
    PCM Polarization Energy =               0.0000000000000000
    EFP Energy =                            0.0000000000000000
    Total Energy =                       -349.2376463624262897

  Mulliken Charges: (a.u.)
   Center  Symbol    Alpha    Beta     Spin     Total
       1     H     0.28066  0.28066  0.00000  0.43867
       2     O     4.36927  4.36927  0.00000 -0.73853
       3     C     2.99298  2.99298  0.00000  0.01405
       4     C     3.18258  3.18258  0.00000 -0.36516
       5     H     0.41438  0.41438  0.00000  0.17125
       6     H     0.42873  0.42873  0.00000  0.14255
       7     C     3.14764  3.14764  0.00000 -0.29528
       8     H     0.42182  0.42182  0.00000  0.15636
       9     H     0.41739  0.41739  0.00000  0.16522
      10     C     3.15412  3.15412  0.00000 -0.30824
      11     H     0.43544  0.43544  0.00000  0.12912
      12     H     0.40986  0.40986  0.00000  0.18029
      13     C     3.15245  3.15245  0.00000 -0.30490
      14     H     0.42298  0.42298  0.00000  0.15403
      15     H     0.42343  0.42343  0.00000  0.15313
      16     C     3.15235  3.15235  0.00000 -0.30470
      17     H     0.42528  0.42528  0.00000  0.14945
      18     H     0.42119  0.42119  0.00000  0.15762
      19     C     3.24110  3.24110  0.00000 -0.48221
      20     H     0.42092  0.42092  0.00000  0.15817
      21     H     0.42323  0.42323  0.00000  0.15353
      22     H     0.42271  0.42271  0.00000  0.15457
      23     H     0.41926  0.41926  0.00000  0.16148
      24     H     0.42022  0.42022  0.00000  0.15955

   Total alpha = 33.00000, Total beta = 33.00000, Total charge = -0.00000
