  ==> Input File <==

--------------------------------------------------------------------------
set {
	reference rhf
	basis 6-31G*
}

set_num_threads( 4 )
memory 2 gb

molecule MOL {
0 1

O	 3.225979	 0.970355	 -0.599647
C	 2.701189	 0.057885	 -0.047330
C	 1.245376	 -0.013843	 0.345420
O	 3.347903	 -1.046386	 0.304773
C	 0.455112	 1.231400	 -0.050772
H	 0.838542	 -0.913825	 -0.103701
H	 1.208210	 -0.175333	 1.419774
C	 -0.998893	 1.219485	 0.433193
H	 0.482531	 1.345121	 -1.130325
H	 0.957290	 2.103070	 0.354729
C	 -1.795862	 -0.031242	 0.051574
H	 -1.499485	 2.090700	 0.017122
H	 -1.022124	 1.346442	 1.514558
C	 -3.267711	 0.053297	 0.460857
H	 -1.730181	 -0.182611	 -1.024805
H	 -1.353655	 -0.912098	 0.511486
C	 -4.072746	 -1.193262	 0.089182
H	 -3.721513	 0.925628	 -0.006409
H	 -3.333878	 0.215393	 1.535588
C	 -5.542368	 -1.099206	 0.497918
H	 -4.006872	 -1.357286	 -0.984316
H	 -3.623224	 -2.065684	 0.558853
H	 -6.086262	 -1.997131	 0.221299
H	 -6.029866	 -0.255949	 0.016817
H	 -5.643129	 -0.969190	 1.571798
C	 4.728119	 -1.109107	 -0.004993
H	 4.882018	 -1.033965	 -1.071845
H	 5.068212	 -2.067527	 0.355250
H	 5.265056	 -0.311663	 0.488280

	symmetry c1
}
set optking {
	frozen_dihedral = ("
		11 8 5 9
	")
}

ee = optimize('scf')
oeprop('DIPOLE', 'QUADRUPOLE', 'MULLIKEN_CHARGES')
f=open( 'psi4out.xyz', 'w' )
f.write( "29  " )
f.write( str(ee) + "\n" )
f.write( MOL.save_string_xyz() )
f.close()
--------------------------------------------------------------------------

    Molecular point group: c1
  Charge       = 0
  Multiplicity = 1
  Basis Set: 6-31G*
  Basis Set:
  @DF-RHF Final Energy:  -501.04332887809915
    Total Energy =                       -501.0433288780991461
    Molecular point group: c1
  Basis Set: 6-31G*
  Basis Set:
  Basis Set: 6-31G*
  Basis Set:
  @DF-RHF Final Energy:  -501.04327332219680
    Total Energy =                       -501.0432733221969102
  Basis Set: 6-31G*
  Basis Set:
  Basis Set: 6-31G*
  Basis Set:
  @DF-RHF Final Energy:  -501.04344769088448
    Total Energy =                       -501.0434476908843635
  Basis Set: 6-31G*
  Basis Set:
  Basis Set: 6-31G*
  Basis Set:
  @DF-RHF Final Energy:  -501.04329647693430
    Total Energy =                       -501.0432964769343016
  Basis Set: 6-31G*
  Basis Set:
  Basis Set: 6-31G*
  Basis Set:
  @DF-RHF Final Energy:  -501.04350611159157
    Total Energy =                       -501.0435061115915687
  Basis Set: 6-31G*
  Basis Set:
  Charge       = 0
  Multiplicity = 1
  Basis Set: 6-31G*
  Basis Set:

    Orbital Energies (a.u.)
    -----------------------

    Doubly Occupied:

       1A    -20.603399     2A    -20.545256     3A    -11.372080
       4A    -11.280683     5A    -11.234940     6A    -11.218935
       7A    -11.217630     8A    -11.216145     9A    -11.215965
      10A    -11.214553    11A    -11.209145    12A     -1.469123
      13A     -1.362570    14A     -1.098149    15A     -1.066730
      16A     -1.019327    17A     -0.977206    18A     -0.928901
      19A     -0.862825    20A     -0.799052    21A     -0.790600
      22A     -0.762427    23A     -0.700566    24A     -0.682525
      25A     -0.671991    26A     -0.652423    27A     -0.628535
      28A     -0.604291    29A     -0.594013    30A     -0.580770
      31A     -0.567440    32A     -0.550801    33A     -0.531064
      34A     -0.529464    35A     -0.517201    36A     -0.512766
      37A     -0.496451    38A     -0.478249    39A     -0.469232
      40A     -0.461668    41A     -0.459182    42A     -0.455373
      43A     -0.440487    44A     -0.436023

  @DF-RHF Final Energy:  -501.04350640703001

   => Energetics <=

    Nuclear Repulsion Energy =            611.1450132884178856
    One-Electron Energy =               -1893.4047297187394179
    Two-Electron Energy =                 781.2162100232917510
    DFT Exchange-Correlation Energy =       0.0000000000000000
    Empirical Dispersion Energy =           0.0000000000000000
    PCM Polarization Energy =               0.0000000000000000
    EFP Energy =                            0.0000000000000000
    Total Energy =                       -501.0435064070297813
    Molecular point group: c1
  Basis Set: 6-31G*
  Basis Set:

  -Total Gradient:
     Atom            X                  Y                   Z
    ------   -----------------  -----------------  -----------------
       1       -0.000008619947    -0.000008589771    -0.000020257539
       2        0.000020408487     0.000029740495     0.000047790586
       3       -0.000035387471    -0.000011147997    -0.000029192219
       4       -0.000005914173    -0.000010993440    -0.000012629395
       5        0.000109334594    -0.003722403775     0.000346759511
       6       -0.000008250873    -0.000016297238    -0.000001312366
       7        0.000002279882     0.000006509887    -0.000006614381
       8       -0.000801096363     0.001913702912    -0.002320370168
       9        0.000090405108     0.002693305161     0.000320732088
      10       -0.000000845981     0.000008940122     0.000018696524
      11        0.000611278038    -0.000901577146     0.001691269893
      12       -0.000007703554    -0.000020220335    -0.000015612919
      13        0.000028170976     0.000016442665     0.000015157713
      14       -0.000005412258     0.000033072338    -0.000033093726
      15        0.000013864979     0.000014437740     0.000006924865
      16       -0.000003700844    -0.000017295555    -0.000002823273
      17        0.000008093955    -0.000011524748     0.000010199385
      18        0.000004112301    -0.000001213078    -0.000025908558
      19       -0.000015796682     0.000015252120    -0.000014223651
      20        0.000007652221    -0.000011750006     0.000030036568
      21       -0.000012769120     0.000019626460     0.000005323028
      22        0.000009696766    -0.000014575646    -0.000016275565
      23        0.000002155733    -0.000002696552     0.000006046439
      24        0.000008007281    -0.000003729313    -0.000003042676
      25       -0.000008050635     0.000003245319     0.000004291087
      26       -0.000000309558    -0.000000591152    -0.000002650078
      27        0.000000779298    -0.000000067315     0.000000225314
      28       -0.000001075657     0.000000029991     0.000000164614
      29       -0.000001306521     0.000000367860     0.000000388899

  **** Optimization is complete! (in 6 steps) ****
    Final optimized geometry and variables:
    Molecular point group: c1

    Geometry (in Angstrom), charge = 0, multiplicity = 1:

    O            3.187098791605     1.095447157035    -0.712653475208
    C            2.675119283339     0.164452826074    -0.179645287977
    C            1.216686724555     0.055834434838     0.195170920958
    O            3.340413532232    -0.931654454649     0.163259225733
    C            0.406204864757     1.288733787021    -0.194208860240
    H            0.835185071601    -0.846383667680    -0.270921307869
    H            1.170859411174    -0.121208994846     1.266879652225
    C           -1.043028433315     1.277204508418     0.306534480540
    H            0.424177649505     1.417832795998    -1.272355519198
    H            0.902153084173     2.166974274528     0.205851459024
    C           -1.860929507562     0.040862394214    -0.077775207537
    H           -1.538325625935     2.166091871576    -0.076304411527
    H           -1.045669193439     1.374227300051     1.391386131864
    C           -3.334004899494     0.157951498530     0.318964587381
    H           -1.790753318860    -0.121450942643    -1.152778083418
    H           -1.439672555173    -0.843843291400     0.393347879165
    C           -4.157035868106    -1.082617385826    -0.032738686176
    H           -3.770130475699     1.027946474324    -0.168905476006
    H           -3.404466833463     0.342962106171     1.389750856380
    C           -5.626078047764    -0.958921666818     0.370164292127
    H           -4.090969502016    -1.266747768787    -1.102969655459
    H           -3.722121467214    -1.953290063038     0.453648695103
    H           -6.182817196813    -1.853452272458     0.108499454415
    H           -6.099538172467    -0.117345179443    -0.127598939047
    H           -5.727519373122    -0.807751464147     1.441202677388
    C            4.724889477080    -0.961736822446    -0.132028956287
    H            4.888742254353    -0.867589479905    -1.195889794657
    H            5.080558626237    -1.918329752897     0.217861003994
    H            5.240037709500    -0.161012993567     0.378854486685

  Mulliken Charges: (a.u.)
   Center  Symbol    Alpha    Beta     Spin     Total
       1     O     4.28586  4.28586  0.00000 -0.57172
       2     C     2.60461  2.60461  0.00000  0.79078
       3     C     3.21069  3.21069  0.00000 -0.42139
       4     O     4.30751  4.30751  0.00000 -0.61501
       5     C     3.15390  3.15390  0.00000 -0.30780
       6     H     0.39816  0.39816  0.00000  0.20369
       7     H     0.40122  0.40122  0.00000  0.19756
       8     C     3.15554  3.15554  0.00000 -0.31107
       9     H     0.41333  0.41333  0.00000  0.17334
      10     H     0.40863  0.40863  0.00000  0.18274
      11     C     3.15650  3.15650  0.00000 -0.31301
      12     H     0.41820  0.41820  0.00000  0.16360
      13     H     0.42362  0.42362  0.00000  0.15276
      14     C     3.15023  3.15023  0.00000 -0.30047
      15     H     0.42329  0.42329  0.00000  0.15343
      16     H     0.42278  0.42278  0.00000  0.15445
      17     C     3.15144  3.15144  0.00000 -0.30288
      18     H     0.42323  0.42323  0.00000  0.15354
      19     H     0.42391  0.42391  0.00000  0.15218
      20     C     3.23935  3.23935  0.00000 -0.47871
      21     H     0.42291  0.42291  0.00000  0.15417
      22     H     0.42343  0.42343  0.00000  0.15314
      23     H     0.41924  0.41924  0.00000  0.16153
      24     H     0.42154  0.42154  0.00000  0.15692
      25     H     0.42178  0.42178  0.00000  0.15644
      26     C     3.09240  3.09240  0.00000 -0.18480
      27     H     0.40907  0.40907  0.00000  0.18186
      28     H     0.40851  0.40851  0.00000  0.18299
      29     H     0.40913  0.40913  0.00000  0.18175

   Total alpha = 44.00000, Total beta = 44.00000, Total charge =  0.00000
