  ==> Input File <==

--------------------------------------------------------------------------
set {
	reference rhf
	basis cc-pvtz
}

set_num_threads( 4 )
memory 2 gb

molecule MOL {
0 1

H	 1.821212	 -0.696749	 1.546099
C	 1.908917	 -0.182980	 0.579660
C	 0.692262	 0.592428	 0.156232
O	 2.908004	 -0.267919	 -0.046634
C	 -0.554654	 -0.292621	 0.086567
H	 0.898056	 1.059341	 -0.797958
H	 0.535716	 1.379272	 0.891248
C	 -1.846385	 0.513195	 -0.016346
H	 -0.473986	 -0.956115	 -0.769708
H	 -0.597929	 -0.929215	 0.966651
C	 -3.089953	 -0.365049	 -0.098564
H	 -1.798267	 1.154820	 -0.891143
H	 -1.925398	 1.173265	 0.842889
H	 -3.055079	 -1.012299	 -0.968245
H	 -3.988403	 0.236438	 -0.170014
H	 -3.183055	 -0.995885	 0.779079

	symmetry c1
}
set optking {
	frozen_dihedral = ("
		6 3 5 9
	")
}

ee = optimize('scf')
oeprop('DIPOLE', 'QUADRUPOLE', 'MULLIKEN_CHARGES')
f=open( 'psi4out.xyz', 'w' )
f.write( "16  " )
f.write( str(ee) + "\n" )
f.write( MOL.save_string_xyz() )
f.close()
--------------------------------------------------------------------------

    Molecular point group: c1
  Charge       = 0
  Multiplicity = 1
  Basis Set: CC-PVTZ
  Basis Set:
  @DF-RHF Final Energy:  -270.11884409723592
    Total Energy =                       -270.1188440972358080
    Molecular point group: c1
  Basis Set: CC-PVTZ
  Basis Set:
  Basis Set: CC-PVTZ
  Basis Set:
  @DF-RHF Final Energy:  -270.11886951699887
    Total Energy =                       -270.1188695169989842
  Basis Set: CC-PVTZ
  Basis Set:
  Basis Set: CC-PVTZ
  Basis Set:
  @DF-RHF Final Energy:  -270.11843169414817
    Total Energy =                       -270.1184316941483985
  Basis Set: CC-PVTZ
  Basis Set:
  Basis Set: CC-PVTZ
  Basis Set:
  @DF-RHF Final Energy:  -270.11889271836355
    Total Energy =                       -270.1188927183634405
  Basis Set: CC-PVTZ
  Basis Set:
  Basis Set: CC-PVTZ
  Basis Set:
  @DF-RHF Final Energy:  -270.11889616018459
    Total Energy =                       -270.1188961601847041
  Basis Set: CC-PVTZ
  Basis Set:
  Charge       = 0
  Multiplicity = 1
  Basis Set: CC-PVTZ
  Basis Set:

    Orbital Energies (a.u.)
    -----------------------

    Doubly Occupied:

       1A    -20.552135     2A    -11.321243     3A    -11.234691
       4A    -11.234011     5A    -11.227491     6A    -11.216698
       7A     -1.406965     8A     -1.097828     9A     -1.020082
      10A     -0.906854    11A     -0.812751    12A     -0.793898
      13A     -0.680506    14A     -0.650635    15A     -0.632425
      16A     -0.604815    17A     -0.582039    18A     -0.553977
      19A     -0.530752    20A     -0.509864    21A     -0.488133
      22A     -0.482604    23A     -0.480909    24A     -0.411395

  @DF-RHF Final Energy:  -270.11889660009496

   => Energetics <=

    Nuclear Repulsion Energy =            229.3627874680890386
    One-Electron Energy =                -820.0979700950088045
    Two-Electron Energy =                 320.6162860268245254
    DFT Exchange-Correlation Energy =       0.0000000000000000
    Empirical Dispersion Energy =           0.0000000000000000
    PCM Polarization Energy =               0.0000000000000000
    EFP Energy =                            0.0000000000000000
    Total Energy =                       -270.1188966000952973
    Molecular point group: c1
  Basis Set: CC-PVTZ
  Basis Set:

  -Total Gradient:
     Atom            X                  Y                   Z
    ------   -----------------  -----------------  -----------------
       1        0.000001646472    -0.000033470974    -0.000005462127
       2        0.000045235389     0.000021557817     0.000067097769
       3       -0.001625277113     0.002085351177     0.000337750791
       4       -0.000017251007     0.000014790586    -0.000000818184
       5        0.001358012220    -0.001918998264     0.001160797559
       6        0.001057210851    -0.001481448321    -0.000495154988
       7        0.000019005797     0.000007438677    -0.000008166685
       8       -0.000013249893     0.000029137922     0.000025960928
       9       -0.000845362293     0.001249400903    -0.001075027735
      10        0.000017465375     0.000023107760    -0.000016084629
      11        0.000009071372    -0.000002225397     0.000004402731
      12        0.000004981977    -0.000004747050     0.000003364976
      13       -0.000014268613     0.000012001306     0.000002516702
      14        0.000000231129    -0.000002012511    -0.000001443297
      15        0.000005424317     0.000001844447    -0.000000648056
      16       -0.000002875983    -0.000001728076     0.000000914244

  **** Optimization is complete! (in 6 steps) ****
    Final optimized geometry and variables:
    Molecular point group: c1

    Geometry (in Angstrom), charge = 0, multiplicity = 1:

    H            1.850183181556    -0.673239897369     1.439887892748
    C            1.915939163945    -0.173185755867     0.464467394665
    C            0.693572253234     0.607120103548     0.063581988540
    O            2.896532206225    -0.275382851897    -0.187779496585
    C           -0.553637472777    -0.280102474855     0.009066666783
    H            0.891764660447     1.065923966596    -0.895903853274
    H            0.552478691246     1.392389853161     0.802753689406
    C           -1.845885521645     0.524172595276    -0.110914879234
    H           -0.473776651075    -0.948174664172    -0.843025767829
    H           -0.601650809963    -0.904511266250     0.897357341624
    C           -3.086510408481    -0.355976502728    -0.213435204195
    H           -1.786048452891     1.167983456885    -0.983627395582
    H           -1.938696159048     1.182180185631     0.748452220722
    H           -3.039061388365    -0.999522797263    -1.085266615772
    H           -3.985203941181     0.244005530590    -0.294014321395
    H           -3.189802716249    -0.990840482870     0.660215774824

  Mulliken Charges: (a.u.)
   Center  Symbol    Alpha    Beta     Spin     Total
       1     H     0.46564  0.46564  0.00000  0.06873
       2     C     2.90803  2.90803  0.00000  0.18395
       3     C     3.07740  3.07740  0.00000 -0.15479
       4     O     4.16418  4.16418  0.00000 -0.32835
       5     C     3.10207  3.10207  0.00000 -0.20413
       6     H     0.44199  0.44199  0.00000  0.11602
       7     H     0.45044  0.45044  0.00000  0.09913
       8     C     3.08503  3.08503  0.00000 -0.17007
       9     H     0.44521  0.44521  0.00000  0.10959
      10     H     0.45207  0.45207  0.00000  0.09586
      11     C     3.14913  3.14913  0.00000 -0.29827
      12     H     0.45100  0.45100  0.00000  0.09801
      13     H     0.45347  0.45347  0.00000  0.09307
      14     H     0.45319  0.45319  0.00000  0.09361
      15     H     0.44668  0.44668  0.00000  0.10664
      16     H     0.45449  0.45449  0.00000  0.09101

   Total alpha = 24.00000, Total beta = 24.00000, Total charge = -0.00000
