  ==> Input File <==

--------------------------------------------------------------------------
set {
	reference rhf
	basis 6-31G*
}

set_num_threads( 1 )
memory 2 gb

molecule MOL {
0 1

H	 -4.031818	 -0.453427	 -0.000094
C	 -2.967712	 -0.297022	 -0.000064
C	 -2.458620	 0.992929	 0.000032
C	 -2.109895	 -1.385637	 -0.000122
H	 -3.124998	 1.836319	 0.000077
C	 -1.090278	 1.193236	 0.000070
H	 -2.506361	 -2.384847	 -0.000198
C	 -0.739812	 -1.187531	 -0.000085
H	 -0.678594	 2.184290	 0.000146
C	 -0.226438	 0.104061	 0.000012
H	 -0.072310	 -2.027032	 -0.000131
C	 1.239129	 0.373821	 0.000060
O	 1.607856	 1.238123	 0.933669
O	 2.008650	 -0.130146	 -0.756719
C	 2.987149	 1.552909	 1.005301
H	 3.567560	 0.665385	 1.210775
H	 3.085277	 2.260826	 1.813433
H	 3.323572	 1.992547	 0.077693

	symmetry c1
}
set optking {
	frozen_dihedral = ("
		12 13 15 16,
		10 12 13 15
	")
}

ee = energy('scf')
oeprop('DIPOLE', 'QUADRUPOLE', 'MULLIKEN_CHARGES')
f=open( 'psi4out.xyz', 'w' )
f.write( "18  " )
f.write( str(ee) + "\n" )
f.write( MOL.save_string_xyz() )
f.close()
--------------------------------------------------------------------------

    Molecular point group: c1

    Geometry (in Angstrom), charge = 0, multiplicity = 1:

       Center              X                  Y                   Z               Mass
    ------------   -----------------  -----------------  -----------------  -----------------
           H         -3.980417843956    -0.732651195512    -0.132533531720     1.007825032070
           C         -2.916311843956    -0.576246195512    -0.132503531720    12.000000000000
           C         -2.407219843956     0.713704804488    -0.132407531720    12.000000000000
           C         -2.058494843956    -1.664861195512    -0.132561531720    12.000000000000
           H         -3.073597843956     1.557094804488    -0.132362531720     1.007825032070
           C         -1.038877843956     0.914011804488    -0.132369531720    12.000000000000
           H         -2.454960843956    -2.664071195512    -0.132637531720     1.007825032070
           C         -0.688411843956    -1.466755195512    -0.132524531720    12.000000000000
           H         -0.627193843956     1.905065804488    -0.132293531720     1.007825032070
           C         -0.175037843956    -0.175163195512    -0.132427531720    12.000000000000
           H         -0.020909843956    -2.306256195512    -0.132570531720     1.007825032070
           C          1.290529156044     0.094596804488    -0.132379531720    12.000000000000
           O          1.659256156044     0.958898804488     0.801229468280    15.994914619560
           O          2.060050156044    -0.409370195512    -0.889158531720    15.994914619560
           C          3.038549156044     1.273684804488     0.872861468280    12.000000000000
           H          3.618960156044     0.386160804488     1.078335468280     1.007825032070
           H          3.136677156044     1.981601804488     1.680993468280     1.007825032070
           H          3.374972156044     1.713322804488    -0.054746531720     1.007825032070

  Charge       = 0
  Multiplicity = 1
  Basis Set: 6-31G*
  Basis Set:

    Orbital Energies (a.u.)
    -----------------------

    Doubly Occupied:

       1A    -20.609333     2A    -20.547083     3A    -11.378959
       4A    -11.283385     5A    -11.249681     6A    -11.245033
       7A    -11.243801     8A    -11.242765     9A    -11.239266
      10A    -11.238997    11A     -1.473974    12A     -1.364597
      13A     -1.166440    14A     -1.049447    15A     -1.026103
      16A     -0.978864    17A     -0.860790    18A     -0.837572
      19A     -0.779189    20A     -0.738436    21A     -0.685894
      22A     -0.678258    23A     -0.674630    24A     -0.630734
      25A     -0.628373    26A     -0.598146    27A     -0.589664
      28A     -0.551814    29A     -0.533988    30A     -0.517671
      31A     -0.507269    32A     -0.501364    33A     -0.458048
      34A     -0.443972    35A     -0.342958    36A     -0.342679

  @DF-RHF Final Energy:  -457.34328546328595

   => Energetics <=

    Nuclear Repulsion Energy =            492.2897506756477242
    One-Electron Energy =               -1598.7878926248772586
    Two-Electron Energy =                 649.1548564859436965
    DFT Exchange-Correlation Energy =       0.0000000000000000
    Empirical Dispersion Energy =           0.0000000000000000
    PCM Polarization Energy =               0.0000000000000000
    EFP Energy =                            0.0000000000000000
    Total Energy =                       -457.3432854632859517

  Mulliken Charges: (a.u.)
   Center  Symbol    Alpha    Beta     Spin     Total
       1     H     0.39605  0.39605  0.00000  0.20789
       2     C     3.09430  3.09430  0.00000 -0.18861
       3     C     3.10264  3.10264  0.00000 -0.20529
       4     C     3.10347  3.10347  0.00000 -0.20695
       5     H     0.39591  0.39591  0.00000  0.20819
       6     C     3.09291  3.09291  0.00000 -0.18583
       7     H     0.39516  0.39516  0.00000  0.20968
       8     C     3.09359  3.09359  0.00000 -0.18717
       9     H     0.38779  0.38779  0.00000  0.22442
      10     C     3.02746  3.02746  0.00000 -0.05492
      11     H     0.38554  0.38554  0.00000  0.22892
      12     C     2.62603  2.62603  0.00000  0.74794
      13     O     4.30061  4.30061  0.00000 -0.60122
      14     O     4.28230  4.28230  0.00000 -0.56459
      15     C     3.09367  3.09367  0.00000 -0.18733
      16     H     0.40749  0.40749  0.00000  0.18502
      17     H     0.40702  0.40702  0.00000  0.18596
      18     H     0.40805  0.40805  0.00000  0.18390

   Total alpha = 36.00000, Total beta = 36.00000, Total charge =  0.00000
