                              Psi4 1.0.54 Driver

  ==> Input File <==

--------------------------------------------------------------------------
set {
	reference rhf
	basis cc-pvtz
}

set_num_threads( 4 )
memory 2 gb

molecule MOL {
0 1

O	 1.847685	 1.294399	 -0.000190
C	 1.704209	 0.119472	 -0.000093
C	 0.380337	 -0.600947	 -0.000234
O	 2.715427	 -0.733672	 0.000025
C	 -0.824290	 0.329213	 -0.000115
H	 0.371455	 -1.255476	 -0.865660
H	 0.371410	 -1.255787	 0.864952
C	 -2.146151	 -0.432825	 -0.000068
H	 -0.773936	 0.979158	 -0.866319
H	 -0.773838	 0.979034	 0.866186
C	 -3.366283	 0.483552	 0.000557
H	 -2.189286	 -1.084450	 -0.869996
H	 -2.188867	 -1.085083	 0.869399
C	 -3.617273	 1.147812	 -1.348952
H	 -3.238712	 1.248798	 0.761005
H	 -4.243381	 -0.088558	 0.289607
H	 -2.770474	 1.755784	 -1.649843
H	 -4.489187	 1.790663	 -1.313707
H	 -3.783480	 0.407868	 -2.124898
C	 4.020999	 -0.192556	 0.000019
H	 4.182809	 0.412891	 -0.879449
H	 4.692590	 -1.035653	 0.000152
H	 4.182726	 0.413087	 0.879368

	symmetry c1
}
set optking {
	frozen_dihedral = ("
		15 11 8 12
	")
}

ee,wfn = optimize('scf', return_wfn=True)
oeprop( wfn, 'DIPOLE', 'QUADRUPOLE', 'MULLIKEN_CHARGES')
f=open( 'psi4out.xyz', 'w' )
f.write( "23  " )
f.write( str(ee) + "\n" )
f.write( MOL.save_string_xyz() )
f.close()
--------------------------------------------------------------------------

    Molecular point group: c1
  Charge       = 0
  Multiplicity = 1
  Basis Set: CC-PVTZ
  Basis Set:
  @DF-RHF Final Energy:  -423.12898891889137
    Total Energy =                       -423.1289889188915367
    Molecular point group: c1
  Basis Set: CC-PVTZ
  Basis Set:
  Basis Set: CC-PVTZ
  Basis Set:
  @DF-RHF Final Energy:  -423.12914028719513
    Total Energy =                       -423.1291402871947867
  Basis Set: CC-PVTZ
  Basis Set:
  Basis Set: CC-PVTZ
  Basis Set:
  @DF-RHF Final Energy:  -423.12918732882878
    Total Energy =                       -423.1291873288280385
  Basis Set: CC-PVTZ
  Basis Set:
  Basis Set: CC-PVTZ
  Basis Set:
  @DF-RHF Final Energy:  -423.12904630727650
    Total Energy =                       -423.1290463072763259
  Basis Set: CC-PVTZ
  Basis Set:
  Basis Set: CC-PVTZ
  Basis Set:
  @DF-RHF Final Energy:  -423.12919296361787
    Total Energy =                       -423.1291929636183795
  Basis Set: CC-PVTZ
  Basis Set:
  Charge       = 0
  Multiplicity = 1
  Basis Set: CC-PVTZ
  Basis Set:

    Orbital Energies (a.u.)
    -----------------------

    Doubly Occupied:

       1A    -20.596312     2A    -20.534140     3A    -11.364562
       4A    -11.278482     5A    -11.233691     6A    -11.216827
       7A    -11.215977     8A    -11.214778     9A    -11.206487
      10A     -1.472188    11A     -1.365770    12A     -1.094223
      13A     -1.043299    14A     -0.986450    15A     -0.931927
      16A     -0.853870    17A     -0.786573    18A     -0.769274
      19A     -0.698874    20A     -0.686548    21A     -0.676041
      22A     -0.643985    23A     -0.617315    24A     -0.597974
      25A     -0.588855    26A     -0.563358    27A     -0.534252
      28A     -0.529733    29A     -0.522816    30A     -0.511593
      31A     -0.491518    32A     -0.468142    33A     -0.463702
      34A     -0.461643    35A     -0.456919    36A     -0.438455

  @DF-RHF Final Energy:  -423.12919321743630

   => Energetics <=

    Nuclear Repulsion Energy =            457.3046681089001595
    One-Electron Energy =               -1482.6346230786898559
    Two-Electron Energy =                 602.2007617523532872
    DFT Exchange-Correlation Energy =       0.0000000000000000
    Empirical Dispersion Energy =           0.0000000000000000
    PCM Polarization Energy =               0.0000000000000000
    EFP Energy =                            0.0000000000000000
    Total Energy =                       -423.1291932174364092
    Molecular point group: c1
  Basis Set: CC-PVTZ
  Basis Set:

  -Total Gradient:
     Atom            X                  Y                   Z
    ------   -----------------  -----------------  -----------------
       1       -0.000024119329     0.000018594410     0.000008584493
       2        0.000005016932     0.000009456780     0.000003714534
       3        0.000004730361    -0.000000337629    -0.000030987169
       4        0.000006227228    -0.000037808887    -0.000009396292
       5       -0.000012587160    -0.000006978462     0.000008482059
       6        0.000002848549    -0.000001495106     0.000013714272
       7        0.000005168654     0.000003250255     0.000012335141
       8       -0.000736027004    -0.001029514491     0.000735220541
       9        0.000000835220     0.000003283124    -0.000002488061
      10       -0.000002142704     0.000002258506    -0.000003051049
      11       -0.000631934480    -0.000847620360     0.001022256297
      12        0.000723009918     0.001007199230    -0.000782715885
      13        0.000005147113    -0.000001657151     0.000000571770
      14        0.000005707461     0.000001228801     0.000007450282
      15        0.000646473086     0.000879159568    -0.000987189949
      16        0.000002306463    -0.000000234297     0.000000291454
      17       -0.000009678949    -0.000002954597    -0.000001525283
      18        0.000004006186    -0.000000622813    -0.000001338870
      19        0.000002817819     0.000000797974     0.000003324780
      20       -0.000000027833     0.000010026020     0.000002414562
      21        0.000002649016    -0.000001400428     0.000001140040
      22       -0.000003481300    -0.000003571276    -0.000000080140
      23        0.000003054756    -0.000001059174    -0.000000727528

  **** Optimization is complete! (in 6 steps) ****
    Final optimized geometry and variables:
    Molecular point group: c1

    Geometry (in Angstrom), charge = 0, multiplicity = 1:

    O            1.738892516140     1.126512036442     0.146790176445
    C            1.589121182382    -0.047650048282     0.157362587158
    C            0.261458302060    -0.760959174727     0.153497509120
    O            2.595784858048    -0.906068094377     0.173688535779
    C           -0.937932726741     0.176176368029     0.143859739582
    H            0.253650144500    -1.418201734243    -0.709925071274
    H            0.244632023110    -1.412946093454     1.020692340860
    C           -2.262332773576    -0.585755778831     0.143270016878
    H           -0.871378835699     0.823823481995    -0.721172707011
    H           -0.890527136694     0.825250686135     1.011060958899
    C           -3.499093431433     0.316187711527     0.146406551296
    H           -2.297806622902    -1.236317467867    -0.727795580312
    H           -2.294510573593    -1.233675235630     1.014706515006
    C           -3.784899830614     0.989552542570    -1.194277865453
    H           -3.380956177084     1.081827217006     0.908083514466
    H           -4.364059180676    -0.273703328477     0.431565053222
    H           -2.973065321261     1.637279585773    -1.502858891972
    H           -4.681305598117     1.596355685136    -1.137340158699
    H           -3.935427726455     0.251584410047    -1.975543681038
    C            3.904162244717    -0.371976014285     0.178115183940
    H            4.075962701516     0.223699934376    -0.706134749446
    H            4.571181401315    -1.218607067383     0.191770979615
    H            4.062684446792     0.241617126592     1.052536256943

  Mulliken Charges: (a.u.)
   Center  Symbol    Alpha    Beta     Spin     Total
       1     O     4.19718  4.19718  0.00000 -0.39436
       2     C     2.80617  2.80617  0.00000  0.38766
       3     C     3.10146  3.10146  0.00000 -0.20292
       4     O     4.14643  4.14643  0.00000 -0.29287
       5     C     3.08560  3.08560  0.00000 -0.17119
       6     H     0.43995  0.43995  0.00000  0.12011
       7     H     0.43950  0.43950  0.00000  0.12100
       8     C     3.09720  3.09720  0.00000 -0.19439
       9     H     0.44516  0.44516  0.00000  0.10968
      10     H     0.44644  0.44644  0.00000  0.10713
      11     C     3.09025  3.09025  0.00000 -0.18051
      12     H     0.45585  0.45585  0.00000  0.08830
      13     H     0.44928  0.44928  0.00000  0.10144
      14     C     3.15045  3.15045  0.00000 -0.30090
      15     H     0.45420  0.45420  0.00000  0.09160
      16     H     0.44774  0.44774  0.00000  0.10452
      17     H     0.45254  0.45254  0.00000  0.09492
      18     H     0.44692  0.44692  0.00000  0.10616
      19     H     0.45588  0.45588  0.00000  0.08823
      20     C     3.03776  3.03776  0.00000 -0.07552
      21     H     0.45434  0.45434  0.00000  0.09131
      22     H     0.44533  0.44533  0.00000  0.10933
      23     H     0.45437  0.45437  0.00000  0.09127

   Total alpha = 36.00000, Total beta = 36.00000, Total charge = -0.00000

*** Psi4 exiting successfully. Buy a developer a beer!
