  ==> Input File <==

--------------------------------------------------------------------------
set {
	reference rhf
	basis 6-31G*
}

set_num_threads( 4 )
memory 2 gb

molecule MOL {
0 1

O	 -2.563627	 0.866236	 0.297896
C	 -2.135466	 -0.235149	 0.130375
C	 -0.889235	 -0.467034	 -0.705952
C	 -2.786438	 -1.444766	 0.763178
C	 0.379448	 -0.143569	 0.099626
H	 -0.946192	 0.186931	 -1.569311
H	 -0.852355	 -1.493135	 -1.060612
C	 1.631333	 -0.777471	 -0.511575
H	 0.482768	 0.934507	 0.149241
H	 0.263088	 -0.495696	 1.123449
C	 2.915987	 -0.544314	 0.291766
H	 1.766672	 -0.399098	 -1.523130
H	 1.471257	 -1.849544	 -0.605828
C	 3.373361	 0.914346	 0.347591
H	 3.708709	 -1.142521	 -0.150311
H	 2.780642	 -0.921148	 1.303579
H	 3.506512	 1.320010	 -0.651625
H	 4.322697	 0.999599	 0.867103
H	 2.660624	 1.545032	 0.868198
H	 -3.202904	 -2.082813	 -0.011882
H	 -3.575222	 -1.132606	 1.433372
H	 -2.054029	 -2.036060	 1.305168

	symmetry c1
}
set optking {
	frozen_dihedral = ("
		6 3 5 8
	")
}

ee = optimize('scf')
oeprop('DIPOLE', 'QUADRUPOLE', 'MULLIKEN_CHARGES')
f=open( 'psi4out.xyz', 'w' )
f.write( "22  " )
f.write( str(ee) + "\n" )
f.write( MOL.save_string_xyz() )
f.close()
--------------------------------------------------------------------------

    Molecular point group: c1
  Charge       = 0
  Multiplicity = 1
  Basis Set: 6-31G*
  Basis Set:
  @DF-RHF Final Energy:  -348.09683207958045
    Total Energy =                       -348.0968320795803947
    Molecular point group: c1
  Basis Set: 6-31G*
  Basis Set:
  Basis Set: 6-31G*
  Basis Set:
  @DF-RHF Final Energy:  -348.09696292365493
    Total Energy =                       -348.0969629236548144
  Basis Set: 6-31G*
  Basis Set:
  Basis Set: 6-31G*
  Basis Set:
  @DF-RHF Final Energy:  -348.09654652091717
    Total Energy =                       -348.0965465209168315
  Basis Set: 6-31G*
  Basis Set:
  Basis Set: 6-31G*
  Basis Set:
  @DF-RHF Final Energy:  -348.09698621371200
    Total Energy =                       -348.0969862137117161
  Basis Set: 6-31G*
  Basis Set:
  @DF-RHF Final Energy:  -348.09698809215172
    Total Energy =                       -348.0969880921515482
  Basis Set: 6-31G*
  Basis Set:
  @DF-RHF Final Energy:  -348.09703705854031
    Total Energy =                       -348.0970370585400815
  Basis Set: 6-31G*
  Basis Set:
  Basis Set: 6-31G*
  Basis Set:
  @DF-RHF Final Energy:  -348.09703963308289
    Total Energy =                       -348.0970396330827157
  Basis Set: 6-31G*
  Basis Set:
  Basis Set: 6-31G*
  Basis Set:
  @DF-RHF Final Energy:  -348.09704173346853
    Total Energy =                       -348.0970417334689273
  Basis Set: 6-31G*
  Basis Set:
  Charge       = 0
  Multiplicity = 1
  Basis Set: 6-31G*
  Basis Set:

    Orbital Energies (a.u.)
    -----------------------

    Doubly Occupied:

       1A    -20.546984     2A    -11.324045     3A    -11.230748
       4A    -11.229112     5A    -11.228040     6A    -11.223569
       7A    -11.221527     8A    -11.212100     9A     -1.392752
      10A     -1.096289    11A     -1.044787    12A     -0.998807
      13A     -0.938850    14A     -0.858457    15A     -0.787766
      16A     -0.732581    17A     -0.661793    18A     -0.645229
      19A     -0.626377    20A     -0.621318    21A     -0.596450
      22A     -0.579036    23A     -0.567000    24A     -0.542470
      25A     -0.535999    26A     -0.517143    27A     -0.497902
      28A     -0.491471    29A     -0.471461    30A     -0.465702
      31A     -0.458999    32A     -0.395567

  @DF-RHF Final Energy:  -348.09704248448003

   => Energetics <=

    Nuclear Repulsion Energy =            372.9535869530745344
    One-Electron Energy =               -1210.6205996267638056
    Two-Electron Energy =                 489.5699701892092435
    DFT Exchange-Correlation Energy =       0.0000000000000000
    Empirical Dispersion Energy =           0.0000000000000000
    PCM Polarization Energy =               0.0000000000000000
    EFP Energy =                            0.0000000000000000
    Total Energy =                       -348.0970424844799709
    Molecular point group: c1
  Basis Set: 6-31G*
  Basis Set:

  -Total Gradient:
     Atom            X                  Y                   Z
    ------   -----------------  -----------------  -----------------
       1       -0.000004606378    -0.000000085870    -0.000005050055
       2        0.000025752261     0.000029879827     0.000020026885
       3        0.002078023280    -0.003674786980    -0.002005935792
       4       -0.000021966814    -0.000006801391    -0.000040184840
       5        0.000116302487     0.003533565245    -0.001332475592
       6       -0.001842058101     0.002284066359     0.002004953877
       7       -0.000004139375    -0.000006952542     0.000000510651
       8       -0.000393188837    -0.002153649063     0.001329278647
       9       -0.000006610147    -0.000010043201     0.000010846387
      10        0.000021000350     0.000005779810    -0.000006937927
      11       -0.000001646324    -0.000000492839     0.000005229218
      12       -0.000002491303     0.000003421751    -0.000001457789
      13       -0.000005900652     0.000000560393    -0.000004612680
      14        0.000007282229    -0.000003437069    -0.000001733889
      15        0.000008498759     0.000004292298     0.000006579344
      16       -0.000003187244     0.000000643070     0.000000481595
      17       -0.000004601125    -0.000000680633    -0.000000577888
      18        0.000002702849     0.000001544015    -0.000003414641
      19        0.000009145454    -0.000003576923     0.000002986505
      20        0.000009302216    -0.000007836552     0.000011206932
      21        0.000006958863     0.000001589988     0.000004036429
      22        0.000005427563     0.000003000306     0.000006244622

  **** Optimization is complete! (in 9 steps) ****
    Final optimized geometry and variables:
    Molecular point group: c1

    Geometry (in Angstrom), charge = 0, multiplicity = 1:

    O           -2.595976734012     1.087773793147     0.126200733272
    C           -2.129628750730    -0.004746617969     0.011537545340
    C           -0.879736052107    -0.239231473773    -0.818540374764
    C           -2.740900423426    -1.204658733133     0.701796676005
    C            0.381908827508     0.042446846846     0.020141839822
    H           -0.926785746741     0.451622508897    -1.652268592639
    H           -0.862445444404    -1.255836960254    -1.199438561772
    C            1.644377530284    -0.564683338901    -0.596992167166
    H            0.477784385394     1.114643874024     0.143540427638
    H            0.258083856782    -0.371291989460     1.020018446400
    C            2.924282522883    -0.323760301614     0.211407698906
    H            1.778570657493    -0.176778385603    -1.605617268693
    H            1.495021649617    -1.637089254335    -0.701010077707
    C            3.374436355982     1.137189797579     0.266846585856
    H            3.722217595658    -0.918366929484    -0.226132916615
    H            2.786787954708    -0.699568735352     1.223356849625
    H            3.512147105166     1.540757864180    -0.732572905517
    H            4.320086637507     1.228039637550     0.792033066900
    H            2.655775944586     1.765984527162     0.781558687841
    H           -3.176176764619    -1.866508791445    -0.042472643561
    H           -3.512126336015    -0.883309694463     1.387920031253
    H           -1.985895081283    -1.774571859410     1.234826071349

  Mulliken Charges: (a.u.)
   Center  Symbol    Alpha    Beta     Spin     Total
       1     O     4.26222  4.26222  0.00000 -0.52445
       2     C     2.73805  2.73805  0.00000  0.52391
       3     C     3.20020  3.20020  0.00000 -0.40041
       4     C     3.28949  3.28949  0.00000 -0.57898
       5     C     3.16324  3.16324  0.00000 -0.32649
       6     H     0.40020  0.40020  0.00000  0.19959
       7     H     0.41615  0.41615  0.00000  0.16771
       8     C     3.15320  3.15320  0.00000 -0.30641
       9     H     0.40456  0.40456  0.00000  0.19089
      10     H     0.42081  0.42081  0.00000  0.15839
      11     C     3.15359  3.15359  0.00000 -0.30719
      12     H     0.42106  0.42106  0.00000  0.15789
      13     H     0.42182  0.42182  0.00000  0.15636
      14     C     3.24190  3.24190  0.00000 -0.48380
      15     H     0.41941  0.41941  0.00000  0.16117
      16     H     0.42272  0.42272  0.00000  0.15457
      17     H     0.42105  0.42105  0.00000  0.15790
      18     H     0.41795  0.41795  0.00000  0.16410
      19     H     0.41848  0.41848  0.00000  0.16304
      20     H     0.40657  0.40657  0.00000  0.18686
      21     H     0.39702  0.39702  0.00000  0.20596
      22     H     0.41031  0.41031  0.00000  0.17939

   Total alpha = 32.00000, Total beta = 32.00000, Total charge =  0.00000
