  ==> Input File <==

--------------------------------------------------------------------------
set {
	reference rhf
	basis 6-31G*
}

set_num_threads( 4 )
memory 2 gb

molecule MOL {
0 1

H	 -4.236494	 0.538104	 0.039757
O	 -3.517110	 -0.026191	 -0.205115
C	 -2.306886	 0.532354	 0.237577
C	 -1.177863	 -0.397191	 -0.171080
H	 -2.156308	 1.517575	 -0.201710
H	 -2.315015	 0.655684	 1.319734
C	 0.198102	 0.111031	 0.262842
H	 -1.208843	 -0.518759	 -1.250427
H	 -1.368741	 -1.376554	 0.258909
C	 1.331804	 -0.827780	 -0.158768
H	 0.361943	 1.100838	 -0.156218
H	 0.217265	 0.229072	 1.345532
C	 2.723619	 -0.410569	 0.329459
H	 1.342964	 -0.912588	 -1.244120
H	 1.116806	 -1.824343	 0.220779
C	 3.877625	 -0.891749	 -0.552056
H	 2.866573	 -0.801110	 1.334014
H	 2.763809	 0.673302	 0.417632
H	 3.855419	 -1.972027	 -0.668445
H	 3.843369	 -0.451499	 -1.543108
H	 4.834440	 -0.627455	 -0.112274

	symmetry c1
}
set optking {
	frozen_dihedral = ("
		16 13 10 14
	")
}

ee = optimize('scf')
oeprop('DIPOLE', 'QUADRUPOLE', 'MULLIKEN_CHARGES')
f=open( 'psi4out.xyz', 'w' )
f.write( "21  " )
f.write( str(ee) + "\n" )
f.write( MOL.save_string_xyz() )
f.close()
--------------------------------------------------------------------------

    Molecular point group: c1
  Charge       = 0
  Multiplicity = 1
  Basis Set: 6-31G*
  Basis Set:
  @DF-RHF Final Energy:  -310.21164561191506
    Total Energy =                       -310.2116456119151167
    Molecular point group: c1
  Basis Set: 6-31G*
  Basis Set:
  Basis Set: 6-31G*
  Basis Set:
  @DF-RHF Final Energy:  -310.21205638009735
    Total Energy =                       -310.2120563800970672
  Basis Set: 6-31G*
  Basis Set:
  Basis Set: 6-31G*
  Basis Set:
  @DF-RHF Final Energy:  -310.21210147631598
    Total Energy =                       -310.2121014763158087
  Basis Set: 6-31G*
  Basis Set:
  Charge       = 0
  Multiplicity = 1
  Basis Set: 6-31G*
  Basis Set:

    Orbital Energies (a.u.)
    -----------------------

    Doubly Occupied:

       1A    -20.551906     2A    -11.267162     3A    -11.216522
       4A    -11.214655     5A    -11.213072     6A    -11.210689
       7A    -11.208274     8A     -1.358733     9A     -1.085692
      10A     -1.034271    11A     -0.956753    12A     -0.867387
      13A     -0.802540    14A     -0.790974    15A     -0.692122
      16A     -0.662816    17A     -0.629894    18A     -0.597026
      19A     -0.582459    20A     -0.562494    21A     -0.546933
      22A     -0.520842    23A     -0.507474    24A     -0.485130
      25A     -0.477304    26A     -0.463078    27A     -0.457892
      28A     -0.442796    29A     -0.434045

  @DF-RHF Final Energy:  -310.21210147549351

   => Energetics <=

    Nuclear Repulsion Energy =            308.9041645494541513
    One-Electron Energy =               -1032.5506628244033891
    Two-Electron Energy =                 413.4343967994553850
    DFT Exchange-Correlation Energy =       0.0000000000000000
    Empirical Dispersion Energy =           0.0000000000000000
    PCM Polarization Energy =               0.0000000000000000
    EFP Energy =                            0.0000000000000000
    Total Energy =                       -310.2121014754937960
    Molecular point group: c1
  Basis Set: 6-31G*
  Basis Set:

  -Total Gradient:
     Atom            X                  Y                   Z
    ------   -----------------  -----------------  -----------------
       1        0.000003692748     0.000000958289     0.000000590101
       2       -0.000009300881    -0.000005860672    -0.000004384228
       3       -0.000009774203     0.000016987884    -0.000045686329
       4       -0.000053851256     0.000109027828    -0.000021815570
       5       -0.000000891632     0.000007015085     0.000005836720
       6        0.000005045852    -0.000013510816    -0.000003070277
       7       -0.000069721230    -0.000007234121     0.000010934319
       8        0.000004841425    -0.000018092151    -0.000005539942
       9        0.000033891489     0.000027333777     0.000038021161
      10       -0.001440677308     0.006084906597    -0.000895069934
      11       -0.000007119216     0.000042052624     0.000048470663
      12        0.000022901767    -0.000069386147    -0.000034197897
      13        0.000366209494    -0.004428574414     0.002234246985
      14        0.001271358427    -0.004062171584     0.000441040895
      15        0.000081669284    -0.000114175516     0.000011923924
      16       -0.000041576877     0.002465433876    -0.001677842216
      17       -0.000171132321    -0.000039937758    -0.000100754833
      18       -0.000046814282     0.000070641569     0.000074458389
      19        0.000086836311    -0.000023381250    -0.000027252460
      20       -0.000081118736    -0.000018576101     0.000024556135
      21        0.000055531153    -0.000023456998    -0.000074465606

  **** Optimization is complete! (in 4 steps) ****
    Final optimized geometry and variables:
    Molecular point group: c1

    Geometry (in Angstrom), charge = 0, multiplicity = 1:

    H           -4.320200924787     0.827160699116     0.065624179242
    O           -3.604831225275     0.259783727214    -0.183864513914
    C           -2.392637564943     0.796371108066     0.280061345302
    C           -1.270122789362    -0.137156539796    -0.137319803646
    H           -2.227707052683     1.788360934102    -0.138312527582
    H           -2.408789202129     0.898339825101     1.364344798279
    C            0.106910508205     0.347107298812     0.317770221425
    H           -1.292935123203    -0.237579240324    -1.219035118493
    H           -1.474711874614    -1.122483156012     0.272174398480
    C            1.242068191560    -0.579351553328    -0.117462960223
    H            0.291381029842     1.345205441207    -0.076343804920
    H            0.120394722874     0.440955771304     1.402763442455
    C            2.625642260032    -0.137840711615     0.381194918313
    H            1.256615552743    -0.675432699740    -1.201258599654
    H            1.040668695094    -1.585009413994     0.248653038803
    C            3.770093457764    -0.626532883340    -0.506906172029
    H            2.772180238580    -0.480548437601     1.402044584012
    H            2.663733332062     0.949177859064     0.420657894003
    H            3.777933832300    -1.710589179401    -0.584333148557
    H            3.675340264472    -0.225723037373    -1.511744162368
    H            4.734256290227    -0.317388570181    -0.114972674854

  Mulliken Charges: (a.u.)
   Center  Symbol    Alpha    Beta     Spin     Total
       1     H     0.28117  0.28117  0.00000  0.43767
       2     O     4.37178  4.37178  0.00000 -0.74355
       3     C     2.98977  2.98977  0.00000  0.02045
       4     C     3.15962  3.15962  0.00000 -0.31924
       5     H     0.43282  0.43282  0.00000  0.13436
       6     H     0.43283  0.43283  0.00000  0.13433
       7     C     3.16066  3.16066  0.00000 -0.32133
       8     H     0.41467  0.41467  0.00000  0.17065
       9     H     0.41462  0.41462  0.00000  0.17075
      10     C     3.15228  3.15228  0.00000 -0.30455
      11     H     0.42333  0.42333  0.00000  0.15334
      12     H     0.42321  0.42321  0.00000  0.15358
      13     C     3.15240  3.15240  0.00000 -0.30480
      14     H     0.42165  0.42165  0.00000  0.15670
      15     H     0.42179  0.42179  0.00000  0.15641
      16     C     3.23990  3.23990  0.00000 -0.47980
      17     H     0.42122  0.42122  0.00000  0.15755
      18     H     0.42339  0.42339  0.00000  0.15322
      19     H     0.42158  0.42158  0.00000  0.15684
      20     H     0.42133  0.42133  0.00000  0.15734
      21     H     0.41997  0.41997  0.00000  0.16007

   Total alpha = 29.00000, Total beta = 29.00000, Total charge = -0.00000
