  ==> Input File <==

--------------------------------------------------------------------------
set {
	reference rhf
	basis 6-31G*
}

set_num_threads( 4 )
memory 2 gb

molecule MOL {
0 1

O	 1.249738	 1.247461	 0.553840
C	 0.861134	 0.272526	 -0.014869
C	 -0.623889	 -0.118271	 -0.003699
C	 1.848868	 -0.606569	 -0.761580
C	 -0.895332	 -1.256461	 -1.002431
C	 -1.473649	 1.103340	 -0.370799
C	 -0.983900	 -0.581483	 1.422328
H	 -0.615301	 -0.972064	 -2.012700
H	 -1.954261	 -1.493213	 -1.010207
H	 -0.360539	 -2.164946	 -0.747760
H	 -1.227476	 1.468527	 -1.361691
H	 -2.526716	 0.838935	 -0.358521
H	 -1.314819	 1.915855	 0.325860
H	 -2.039679	 -0.828001	 1.472951
H	 -0.427637	 -1.464071	 1.720694
H	 -0.789023	 0.202493	 2.147048
H	 1.792173	 -0.391879	 -1.824667
H	 2.847470	 -0.375873	 -0.417063
H	 1.650937	 -1.663532	 -0.631677

	symmetry c1
}
set optking {
	frozen_dihedral = ("
		1 2 3 5
	")
}

ee = optimize('scf')
oeprop('DIPOLE', 'QUADRUPOLE', 'MULLIKEN_CHARGES')
f=open( 'psi4out.xyz', 'w' )
f.write( "19  " )
f.write( str(ee) + "\n" )
f.write( MOL.save_string_xyz() )
f.close()
--------------------------------------------------------------------------

    Molecular point group: c1
  Charge       = 0
  Multiplicity = 1
  Basis Set: 6-31G*
  Basis Set:
  @DF-RHF Final Energy:  -309.06005624558765
    Total Energy =                       -309.0600562455876457
    Molecular point group: c1
  Basis Set: 6-31G*
  Basis Set:
  Basis Set: 6-31G*
  Basis Set:
  @DF-RHF Final Energy:  -309.06056213366088
    Total Energy =                       -309.0605621336606532
  Basis Set: 6-31G*
  Basis Set:
  Basis Set: 6-31G*
  Basis Set:
  @DF-RHF Final Energy:  -309.06168834121581
    Total Energy =                       -309.0616883412160973
  Basis Set: 6-31G*
  Basis Set:
  Basis Set: 6-31G*
  Basis Set:
  @DF-RHF Final Energy:  -309.06167662385883
    Total Energy =                       -309.0616766238591140
  Basis Set: 6-31G*
  Basis Set:
  @DF-RHF Final Energy:  -309.06169155693124
    Total Energy =                       -309.0616915569314074
  Basis Set: 6-31G*
  Basis Set:
  @DF-RHF Final Energy:  -309.06192869527894
    Total Energy =                       -309.0619286952790503
  Basis Set: 6-31G*
  Basis Set:
  Basis Set: 6-31G*
  Basis Set:
  @DF-RHF Final Energy:  -309.06199607816893
    Total Energy =                       -309.0619960781688746
  Basis Set: 6-31G*
  Basis Set:
  Basis Set: 6-31G*
  Basis Set:
  @DF-RHF Final Energy:  -309.06200342168256
    Total Energy =                       -309.0620034216822773
  Basis Set: 6-31G*
  Basis Set:
  Charge       = 0
  Multiplicity = 1
  Basis Set: 6-31G*
  Basis Set:

    Orbital Energies (a.u.)
    -----------------------

    Doubly Occupied:

       1A    -20.547409     2A    -11.323561     3A    -11.246278
       4A    -11.227660     5A    -11.222234     6A    -11.219349
       7A    -11.213292     8A     -1.394559     9A     -1.107879
      10A     -1.003540    11A     -0.942314    12A     -0.938177
      13A     -0.833501    14A     -0.703915    15A     -0.664736
      16A     -0.631023    17A     -0.622329    18A     -0.587812
      19A     -0.585819    20A     -0.572033    21A     -0.551443
      22A     -0.545995    23A     -0.523375    24A     -0.513402
      25A     -0.500007    26A     -0.471634    27A     -0.460379
      28A     -0.391843

  @DF-RHF Final Energy:  -309.06200302384281

   => Energetics <=

    Nuclear Repulsion Energy =            326.1824737334296174
    One-Electron Energy =               -1065.3979546926268540
    Two-Electron Energy =                 430.1534779353544309
    DFT Exchange-Correlation Energy =       0.0000000000000000
    Empirical Dispersion Energy =           0.0000000000000000
    PCM Polarization Energy =               0.0000000000000000
    EFP Energy =                            0.0000000000000000
    Total Energy =                       -309.0620030238428626
    Molecular point group: c1
  Basis Set: 6-31G*
  Basis Set:

  -Total Gradient:
     Atom            X                  Y                   Z
    ------   -----------------  -----------------  -----------------
       1        0.000129944800    -0.000645514118     0.000862268157
       2       -0.000250836794     0.000699286433    -0.000977774379
       3       -0.000068174876     0.000495745703    -0.000365683202
       4        0.000021786680     0.000054428825    -0.000109811076
       5        0.000092143644    -0.000605958104     0.000547435510
       6        0.000013973925    -0.000035738988    -0.000002718200
       7       -0.000009927304     0.000000428200    -0.000082054181
       8       -0.000032983348     0.000000267375     0.000006986425
       9        0.000010779638    -0.000023978866    -0.000002972886
      10       -0.000005879010     0.000015295331    -0.000008191429
      11       -0.000017705230    -0.000003176946     0.000019891436
      12        0.000008167107     0.000000909049     0.000056530156
      13        0.000046605829     0.000065453962    -0.000039578419
      14       -0.000030866065     0.000016591792     0.000011437759
      15       -0.000016624366    -0.000018423732    -0.000018328651
      16        0.000028135528    -0.000005100297    -0.000010771609
      17        0.000074896006    -0.000004681009     0.000049015778
      18        0.000031364667    -0.000027553352     0.000032770285
      19       -0.000024800835     0.000021718739     0.000031548524

  **** Optimization is complete! (in 9 steps) ****
    Final optimized geometry and variables:
    Molecular point group: c1

    Geometry (in Angstrom), charge = 0, multiplicity = 1:

    O            1.212404898641     1.230748210002     0.617197236221
    C            0.867781854664     0.261064304536     0.011169280577
    C           -0.621198651011    -0.133841214939    -0.008899426596
    C            1.899619394083    -0.602888518684    -0.685348485699
    C           -0.945881159221    -1.246798419703    -1.015555684686
    C           -1.448299080091     1.118150597150    -0.339600501188
    C           -0.964266998426    -0.617710761675     1.413309257427
    H           -0.717691328553    -0.951557628435    -2.035192841349
    H           -2.005953424233    -1.474811353492    -0.974849012354
    H           -0.409424888972    -2.165221172126    -0.802661351816
    H           -1.235139598982     1.476563498130    -1.342715985603
    H           -2.508460100348     0.889658555839    -0.287047340107
    H           -1.231349703870     1.918115000515     0.355158932083
    H           -2.016018511720    -0.879825808122     1.474951442159
    H           -0.388395227714    -1.498789710400     1.684182218720
    H           -0.758970001083     0.156964431238     2.141586976207
    H            1.709589105999    -0.657274582772    -1.751940602566
    H            2.878842203030    -0.178365228884    -0.514615836748
    H            1.875215165680    -1.617892652288    -0.301343041512

  Mulliken Charges: (a.u.)
   Center  Symbol    Alpha    Beta     Spin     Total
       1     O     4.26757  4.26757  0.00000 -0.53514
       2     C     2.72734  2.72734  0.00000  0.54533
       3     C     3.06122  3.06122  0.00000 -0.12243
       4     C     3.28966  3.28966  0.00000 -0.57931
       5     C     3.24028  3.24028  0.00000 -0.48056
       6     C     3.23488  3.23488  0.00000 -0.46976
       7     C     3.23835  3.23835  0.00000 -0.47671
       8     H     0.41805  0.41805  0.00000  0.16390
       9     H     0.41411  0.41411  0.00000  0.17178
      10     H     0.41825  0.41825  0.00000  0.16349
      11     H     0.42009  0.42009  0.00000  0.15983
      12     H     0.41987  0.41987  0.00000  0.16027
      13     H     0.40045  0.40045  0.00000  0.19911
      14     H     0.41627  0.41627  0.00000  0.16746
      15     H     0.42040  0.42040  0.00000  0.15919
      16     H     0.40293  0.40293  0.00000  0.19413
      17     H     0.40686  0.40686  0.00000  0.18629
      18     H     0.39544  0.39544  0.00000  0.20912
      19     H     0.40799  0.40799  0.00000  0.18402

   Total alpha = 28.00000, Total beta = 28.00000, Total charge =  0.00000
