  ==> Input File <==

--------------------------------------------------------------------------
set {
	reference rhf
	basis cc-pvtz
}

set_num_threads( 4 )
memory 2 gb

molecule MOL {
0 1

H	 0.965143	 1.890774	 -1.465788
O	 1.225192	 1.812845	 -0.565370
C	 0.706474	 0.636793	 -0.025501
C	 -0.793473	 0.591216	 0.050087
H	 1.116648	 0.551068	 0.973855
H	 1.056962	 -0.231940	 -0.579721
C	 -1.534243	 -0.493009	 -0.013340
H	 -1.266611	 1.552628	 0.164437
H	 -1.101195	 -1.466332	 -0.144046
H	 -2.604242	 -0.437780	 0.050785

	symmetry c1
}
set optking {
	frozen_dihedral = ("
		5 3 4 7
	")
}

ee = optimize('scf')
oeprop('DIPOLE', 'QUADRUPOLE', 'MULLIKEN_CHARGES')
f=open( 'psi4out.xyz', 'w' )
f.write( "10  " )
f.write( str(ee) + "\n" )
f.write( MOL.save_string_xyz() )
f.close()
--------------------------------------------------------------------------

    Molecular point group: c1
  Charge       = 0
  Multiplicity = 1
  Basis Set: CC-PVTZ
  Basis Set:
  @DF-RHF Final Energy:  -191.99706622128252
    Total Energy =                       -191.9970662212824379
    Molecular point group: c1
  Basis Set: CC-PVTZ
  Basis Set:
  Basis Set: CC-PVTZ
  Basis Set:
  @DF-RHF Final Energy:  -191.99744183866210
    Total Energy =                       -191.9974418386620982
  Basis Set: CC-PVTZ
  Basis Set:
  Basis Set: CC-PVTZ
  Basis Set:
  @DF-RHF Final Energy:  -191.99753058122155
    Total Energy =                       -191.9975305812215254
  Basis Set: CC-PVTZ
  Basis Set:
  Basis Set: CC-PVTZ
  Basis Set:
  @DF-RHF Final Energy:  -191.99753380923033
    Total Energy =                       -191.9975338092304753
  Basis Set: CC-PVTZ
  Basis Set:
  Charge       = 0
  Multiplicity = 1
  Basis Set: CC-PVTZ
  Basis Set:

    Orbital Energies (a.u.)
    -----------------------

    Doubly Occupied:

       1A    -20.553625     2A    -11.276477     3A    -11.230463
       4A    -11.221777     5A     -1.372698     6A     -1.066908
       7A     -0.924007     8A     -0.778405     9A     -0.707977
      10A     -0.626640    11A     -0.623084    12A     -0.606035
      13A     -0.528608    14A     -0.498770    15A     -0.451023
      16A     -0.372368

  @DF-RHF Final Energy:  -191.99753410937222

   => Energetics <=

    Nuclear Repulsion Energy =            117.3259665929195563
    One-Electron Energy =                -492.9692665322722860
    Two-Electron Energy =                 183.6457658299804621
    DFT Exchange-Correlation Energy =       0.0000000000000000
    Empirical Dispersion Energy =           0.0000000000000000
    PCM Polarization Energy =               0.0000000000000000
    EFP Energy =                            0.0000000000000000
    Total Energy =                       -191.9975341093722818
    Molecular point group: c1
  Basis Set: CC-PVTZ
  Basis Set:

  -Total Gradient:
     Atom            X                  Y                   Z
    ------   -----------------  -----------------  -----------------
       1       -0.000006135731    -0.000007907639     0.000002169370
       2       -0.000004535605    -0.000024391091     0.000019611143
       3       -0.000008077994     0.003730775561     0.001699849047
       4       -0.000140793021    -0.000438403888    -0.004381244858
       5        0.000039576649    -0.003062212042    -0.000221994099
       6       -0.000000380040    -0.000001726173    -0.000004320249
       7        0.000123528548    -0.000200390529     0.002892042263
       8        0.000001729406    -0.000001274187    -0.000004945059
       9       -0.000004234968     0.000004274435    -0.000002321006
      10       -0.000000677243     0.000001255557     0.000001153448

  **** Optimization is complete! (in 5 steps) ****
    Final optimized geometry and variables:
    Molecular point group: c1

    Geometry (in Angstrom), charge = 0, multiplicity = 1:

    H            0.991477377545     1.192169336212    -1.296047445695
    O            1.246760978448     1.124199710866    -0.393602163008
    C            0.738808853859    -0.057801999224     0.155920569844
    C           -0.764590726253    -0.080910168290     0.207550355515
    H            1.137758391157    -0.127664116955     1.159785561384
    H            1.103334644589    -0.927734565757    -0.383462264804
    C           -1.499260736351    -1.169977752969     0.152779289548
    H           -1.231657744812     0.876996991907     0.362736146031
    H           -1.062139668466    -2.141747018100     0.004953673415
    H           -2.567353402455    -1.131539167104     0.251883419843

  Mulliken Charges: (a.u.)
   Center  Symbol    Alpha    Beta     Spin     Total
       1     H     0.39291  0.39291  0.00000  0.21419
       2     O     4.20132  4.20132  0.00000 -0.40263
       3     C     2.94850  2.94850  0.00000  0.10299
       4     C     3.08684  3.08684  0.00000 -0.17368
       5     H     0.45378  0.45378  0.00000  0.09244
       6     H     0.46821  0.46821  0.00000  0.06357
       7     C     3.17333  3.17333  0.00000 -0.34666
       8     H     0.41677  0.41677  0.00000  0.16646
       9     H     0.43152  0.43152  0.00000  0.13697
      10     H     0.42683  0.42683  0.00000  0.14635

   Total alpha = 16.00000, Total beta = 16.00000, Total charge = -0.00000
