                              Psi4 1.0.54 Driver

  ==> Input File <==

--------------------------------------------------------------------------
set {
	reference rhf
	basis cc-pvtz
}

set_num_threads( 4 )
memory 2 gb

molecule MOL {
0 1

H	 0.119234	 -0.012926	 0.000215
N	 -0.625934	 -0.663929	 -0.000707
C	 -1.978635	 -0.158664	 0.001017
C	 -0.319363	 -1.980202	 -0.005477
H	 -2.519057	 -0.493535	 -0.876362
H	 -1.938890	 0.917202	 -0.004137
H	 -2.514266	 -0.485137	 0.884506
C	 1.163143	 -2.281809	 -0.010877
O	 -1.143924	 -2.845730	 -0.011380
H	 1.637121	 -1.864696	 0.870009
H	 1.302637	 -3.350215	 -0.021653
H	 1.635226	 -1.847079	 -0.884242

	symmetry c1
}
set optking {
	frozen_dihedral = ("
		4 2 3 5
	")
}

ee,wfn = optimize('scf', return_wfn=True)
oeprop( wfn, 'DIPOLE', 'QUADRUPOLE', 'MULLIKEN_CHARGES')
f=open( 'psi4out.xyz', 'w' )
f.write( "12  " )
f.write( str(ee) + "\n" )
f.write( MOL.save_string_xyz() )
f.close()
--------------------------------------------------------------------------

    Molecular point group: c1
  Charge       = 0
  Multiplicity = 1
  Basis Set: CC-PVTZ
  Basis Set:
  @DF-RHF Final Energy:  -247.10104042414201
    Total Energy =                       -247.1010404241418996
    Molecular point group: c1
  Basis Set: CC-PVTZ
  Basis Set:
  Basis Set: CC-PVTZ
  Basis Set:
  @DF-RHF Final Energy:  -247.10122356819772
    Total Energy =                       -247.1012235681976108
  Basis Set: CC-PVTZ
  Basis Set:
  Basis Set: CC-PVTZ
  Basis Set:
  @DF-RHF Final Energy:  -247.10093837042703
    Total Energy =                       -247.1009383704270022
  Basis Set: CC-PVTZ
  Basis Set:
  Basis Set: CC-PVTZ
  Basis Set:
  @DF-RHF Final Energy:  -247.10128148826891
    Total Energy =                       -247.1012814882689668
  Basis Set: CC-PVTZ
  Basis Set:
  Charge       = 0
  Multiplicity = 1
  Basis Set: CC-PVTZ
  Basis Set:

    Orbital Energies (a.u.)
    -----------------------

    Doubly Occupied:

       1A    -20.507011     2A    -15.574255     3A    -11.334857
       4A    -11.254102     5A    -11.228082     6A     -1.388731
       7A     -1.230344     8A     -1.016433     9A     -0.933063
      10A     -0.789524    11A     -0.690478    12A     -0.650804
      13A     -0.636455    14A     -0.584361    15A     -0.582579
      16A     -0.558597    17A     -0.546976    18A     -0.507091
      19A     -0.417258    20A     -0.390414

  @DF-RHF Final Energy:  -247.10128225564091

   => Energetics <=

    Nuclear Repulsion Energy =            181.8946421938234721
    One-Electron Energy =                -696.3490169407298254
    Two-Electron Energy =                 267.3530924912654427
    DFT Exchange-Correlation Energy =       0.0000000000000000
    Empirical Dispersion Energy =           0.0000000000000000
    PCM Polarization Energy =               0.0000000000000000
    EFP Energy =                            0.0000000000000000
    Total Energy =                       -247.1012822556408537
    Molecular point group: c1
  Basis Set: CC-PVTZ
  Basis Set:

  -Total Gradient:
     Atom            X                  Y                   Z
    ------   -----------------  -----------------  -----------------
       1        0.000003051761    -0.000015127647    -0.000006463540
       2       -0.000028648620    -0.000110582000     0.000005262373
       3        0.000031695710     0.000019419098    -0.000004274359
       4        0.000073097342     0.000131072821     0.000026149254
       5       -0.000007373508     0.000000819936    -0.000007803688
       6       -0.000006367913    -0.000017061837     0.000001083760
       7       -0.000007903712     0.000003236426     0.000008550499
       8        0.000019596482    -0.000001089663    -0.000000156211
       9       -0.000034172933    -0.000012229438    -0.000015340988
      10       -0.000017002303    -0.000006223508    -0.000008835370
      11       -0.000011983343     0.000010453312     0.000003245025
      12       -0.000013988962    -0.000002687499    -0.000001416754

  **** Optimization is complete! (in 5 steps) ****
    Final optimized geometry and variables:
    Molecular point group: c1

    Geometry (in Angstrom), charge = 0, multiplicity = 1:

    H            0.714309430692     1.577318551593     0.004128084097
    N           -0.022850513854     0.918882661018     0.002276611061
    C           -1.387780440210     1.392511547380     0.006979731151
    C            0.274106642111    -0.397220781209    -0.001859353159
    H           -1.923007237749     1.045630693371    -0.866468378366
    H           -1.378831184353     2.473241607438     0.005876035865
    H           -1.917050021275     1.047389236380     0.884839853951
    C            1.750180181982    -0.726033714453    -0.004768733552
    O           -0.572681108440    -1.241418888364    -0.003055928017
    H            2.230712751103    -0.315966034608     0.875896121682
    H            1.870253432580    -1.796959300128    -0.013218409352
    H            2.231198178718    -0.301711254587    -0.878372514226

  Mulliken Charges: (a.u.)
   Center  Symbol    Alpha    Beta     Spin     Total
       1     H     0.41155  0.41155  0.00000  0.17689
       2     N     3.61765  3.61765  0.00000 -0.23530
       3     C     3.07594  3.07594  0.00000 -0.15189
       4     C     2.83771  2.83771  0.00000  0.32459
       5     H     0.44937  0.44937  0.00000  0.10126
       6     H     0.45617  0.45617  0.00000  0.08767
       7     H     0.44962  0.44962  0.00000  0.10077
       8     C     3.15354  3.15354  0.00000 -0.30708
       9     O     4.21512  4.21512  0.00000 -0.43024
      10     H     0.44976  0.44976  0.00000  0.10049
      11     H     0.43366  0.43366  0.00000  0.13267
      12     H     0.44992  0.44992  0.00000  0.10017

   Total alpha = 20.00000, Total beta = 20.00000, Total charge = -0.00000

*** Psi4 exiting successfully. Buy a developer a beer!
