  ==> Input File <==

--------------------------------------------------------------------------
set {
	reference rhf
	basis 6-31G*
}

set_num_threads( 1 )
memory 2 gb

molecule MOL {
0 1

O	 3.179288	 0.835971	 0.926795
C	 2.843464	 0.164689	 -0.000222
C	 1.546494	 -0.624492	 -0.000609
C	 3.697852	 0.056487	 -1.246605
C	 0.291004	 0.242674	 0.000989
H	 1.557904	 -1.283758	 -0.867573
H	 1.558622	 -1.285963	 0.864672
C	 -0.994322	 -0.586602	 0.000262
H	 0.309117	 0.896430	 -0.865270
H	 0.309661	 0.894078	 0.869017
C	 -2.259874	 0.272531	 0.000494
H	 -1.004862	 -1.240012	 -0.870939
H	 -1.005220	 -1.241071	 0.870675
C	 -3.549786	 -0.549746	 -0.000374
H	 -2.250389	 0.926680	 -0.869574
H	 -2.250838	 0.925513	 0.871430
C	 -4.809590	 0.315458	 -0.000369
H	 -3.560515	 -1.202009	 -0.871156
H	 -3.561123	 -1.202955	 0.869711
H	 -4.844746	 0.956611	 -0.876632
H	 -5.706986	 -0.295590	 -0.001609
H	 -4.845960	 0.954827	 0.877144
H	 3.142490	 0.393030	 -2.117197
H	 4.588512	 0.658456	 -1.131752
H	 3.979515	 -0.977349	 -1.424036

	symmetry c1
}
set optking {
	frozen_dihedral = ("
		9 5 8 12,
		15 11 8 12,
		15 11 14 18,
		9 5 3 6
	")
}

ee = energy('scf')
oeprop('DIPOLE', 'QUADRUPOLE', 'MULLIKEN_CHARGES')
f=open( 'psi4out.xyz', 'w' )
f.write( "25  " )
f.write( str(ee) + "\n" )
f.write( MOL.save_string_xyz() )
f.close()
--------------------------------------------------------------------------

    Molecular point group: c1

    Geometry (in Angstrom), charge = 0, multiplicity = 1:

       Center              X                  Y                   Z               Mass
    ------------   -----------------  -----------------  -----------------  -----------------
           O          3.192211618776     0.814712998617     0.964594350800    15.994914619560
           C          2.856387618776     0.143430998617     0.037577350800    12.000000000000
           C          1.559417618776    -0.645750001383     0.037190350800    12.000000000000
           C          3.710775618776     0.035228998617    -1.208805649200    12.000000000000
           C          0.303927618776     0.221415998617     0.038788350800    12.000000000000
           H          1.570827618776    -1.305016001383    -0.829773649200     1.007825032070
           H          1.571545618776    -1.307221001383     0.902471350800     1.007825032070
           C         -0.981398381224    -0.607860001383     0.038061350800    12.000000000000
           H          0.322040618776     0.875171998617    -0.827470649200     1.007825032070
           H          0.322584618776     0.872819998617     0.906816350800     1.007825032070
           C         -2.246950381224     0.251272998617     0.038293350800    12.000000000000
           H         -0.991938381224    -1.261270001383    -0.833139649200     1.007825032070
           H         -0.992296381224    -1.262329001383     0.908474350800     1.007825032070
           C         -3.536862381224    -0.571004001383     0.037425350800    12.000000000000
           H         -2.237465381224     0.905421998617    -0.831774649200     1.007825032070
           H         -2.237914381224     0.904254998617     0.909229350800     1.007825032070
           C         -4.796666381224     0.294199998617     0.037430350800    12.000000000000
           H         -3.547591381224    -1.223267001383    -0.833356649200     1.007825032070
           H         -3.548199381224    -1.224213001383     0.907510350800     1.007825032070
           H         -4.831822381224     0.935352998617    -0.838832649200     1.007825032070
           H         -5.694062381224    -0.316848001383     0.036190350800     1.007825032070
           H         -4.833036381224     0.933568998617     0.914943350800     1.007825032070
           H          3.155413618776     0.371771998617    -2.079397649200     1.007825032070
           H          4.601435618776     0.637197998617    -1.093952649200     1.007825032070
           H          3.992438618776    -0.998607001383    -1.386236649200     1.007825032070

  Charge       = 0
  Multiplicity = 1
  Basis Set: 6-31G*
  Basis Set:

    Orbital Energies (a.u.)
    -----------------------

    Doubly Occupied:

       1A    -20.548238     2A    -11.324988     3A    -11.229867
       4A    -11.227572     5A    -11.227459     6A    -11.221708
       7A    -11.218235     8A    -11.217366     9A    -11.210619
      10A     -1.393667    11A     -1.098530    12A     -1.059191
      13A     -1.013765    14A     -0.970329    15A     -0.893727
      16A     -0.818662    17A     -0.794959    18A     -0.731752
      19A     -0.665609    20A     -0.647515    21A     -0.637031
      22A     -0.612339    23A     -0.602239    24A     -0.586506
      25A     -0.569085    26A     -0.558417    27A     -0.542154
      28A     -0.538390    29A     -0.508880    30A     -0.497774
      31A     -0.489021    32A     -0.474476    33A     -0.467808
      34A     -0.466134    35A     -0.453785    36A     -0.395769

  @DF-RHF Final Energy:  -387.13371778861256

   => Energetics <=

    Nuclear Repulsion Energy =            438.1214236481405351
    One-Electron Energy =               -1392.6830470845548007
    Two-Electron Energy =                 567.4279056478020493
    DFT Exchange-Correlation Energy =       0.0000000000000000
    Empirical Dispersion Energy =           0.0000000000000000
    PCM Polarization Energy =               0.0000000000000000
    EFP Energy =                            0.0000000000000000
    Total Energy =                       -387.1337177886122163

  Mulliken Charges: (a.u.)
   Center  Symbol    Alpha    Beta     Spin     Total
       1     O     4.26156  4.26156  0.00000 -0.52312
       2     C     2.73543  2.73543  0.00000  0.52914
       3     C     3.20304  3.20304  0.00000 -0.40607
       4     C     3.29069  3.29069  0.00000 -0.58137
       5     C     3.15694  3.15694  0.00000 -0.31388
       6     H     0.41777  0.41777  0.00000  0.16445
       7     H     0.40238  0.40238  0.00000  0.19524
       8     C     3.15323  3.15323  0.00000 -0.30646
       9     H     0.42004  0.42004  0.00000  0.15992
      10     H     0.40535  0.40535  0.00000  0.18930
      11     C     3.15157  3.15157  0.00000 -0.30314
      12     H     0.42334  0.42334  0.00000  0.15333
      13     H     0.42072  0.42072  0.00000  0.15856
      14     C     3.15187  3.15187  0.00000 -0.30374
      15     H     0.42350  0.42350  0.00000  0.15299
      16     H     0.42142  0.42142  0.00000  0.15716
      17     C     3.23949  3.23949  0.00000 -0.47898
      18     H     0.42327  0.42327  0.00000  0.15347
      19     H     0.42241  0.42241  0.00000  0.15518
      20     H     0.42163  0.42163  0.00000  0.15675
      21     H     0.41888  0.41888  0.00000  0.16225
      22     H     0.42092  0.42092  0.00000  0.15816
      23     H     0.40869  0.40869  0.00000  0.18262
      24     H     0.39767  0.39767  0.00000  0.20467
      25     H     0.40821  0.40821  0.00000  0.18358

   Total alpha = 36.00000, Total beta = 36.00000, Total charge = -0.00000
