  ==> Input File <==

--------------------------------------------------------------------------
set {
	reference rhf
	basis 6-31G*
}

set_num_threads( 1 )
memory 2 gb

molecule MOL {
0 1

O	 3.221288	 0.961395	 -0.618735
C	 2.698682	 0.053103	 -0.057532
C	 1.243191	 -0.017990	 0.336527
O	 3.347903	 -1.046386	 0.304773
C	 0.450101	 1.221739	 -0.071142
H	 0.838092	 -0.923069	 -0.103834
H	 1.206824	 -0.169332	 1.412384
C	 -1.003671	 1.211328	 0.413558
H	 0.476821	 1.325244	 -1.151740
H	 0.950586	 2.098296	 0.325827
C	 -1.886190	 0.129800	 -0.216178
H	 -1.438157	 2.184294	 0.196115
H	 -1.023724	 1.107821	 1.497483
C	 -3.350426	 0.230486	 0.216112
H	 -1.825576	 0.205430	 -1.300809
H	 -1.510871	 -0.857681	 0.042645
C	 -4.240746	 -0.848509	 -0.402946
H	 -3.737880	 1.212042	 -0.051588
H	 -3.410746	 0.165696	 1.301406
C	 -5.702075	 -0.738589	 0.030800
H	 -4.180863	 -0.785837	 -1.487440
H	 -3.857580	 -1.830357	 -0.132873
H	 -6.307445	 -1.516497	 -0.424164
H	 -6.125147	 0.219959	 -0.256240
H	 -5.799196	 -0.832003	 1.108815
C	 4.728119	 -1.109107	 -0.004993
H	 4.882018	 -1.033965	 -1.071845
H	 5.068212	 -2.067527	 0.355250
H	 5.265056	 -0.311663	 0.488280

	symmetry c1
}
set optking {
	frozen_dihedral = ("
		21 17 14 11,
		17 14 11 15,
		15 11 8 5,
		6 3 5 9,
		11 8 5 9,
		1 2 4 26,
		6 3 2 1
	")
}

ee = energy('scf')
oeprop('DIPOLE', 'QUADRUPOLE', 'MULLIKEN_CHARGES')
f=open( 'psi4out.xyz', 'w' )
f.write( "29  " )
f.write( str(ee) + "\n" )
f.write( MOL.save_string_xyz() )
f.close()
--------------------------------------------------------------------------

    Molecular point group: c1

    Geometry (in Angstrom), charge = 0, multiplicity = 1:

       Center              X                  Y                   Z               Mass
    ------------   -----------------  -----------------  -----------------  -----------------
           O          3.223645236600     0.971485372338    -0.610274903402    15.994914619560
           C          2.701039236600     0.063193372338    -0.049071903402    12.000000000000
           C          1.245548236600    -0.007899627662     0.344987096598    12.000000000000
           O          3.350260236600    -1.036295627662     0.313233096598    15.994914619560
           C          0.452458236600     1.231829372338    -0.062681903402    12.000000000000
           H          0.840449236600    -0.912978627662    -0.095373903402     1.007825032070
           H          1.209181236600    -0.159241627662     1.420844096598     1.007825032070
           C         -1.001313763400     1.221418372338     0.422018096598    12.000000000000
           H          0.479178236600     1.335334372338    -1.143279903402     1.007825032070
           H          0.952943236600     2.108386372338     0.334287096598     1.007825032070
           C         -1.883832763400     0.139890372338    -0.207717903402    12.000000000000
           H         -1.435799763400     2.194384372338     0.204575096598     1.007825032070
           H         -1.021366763400     1.117911372338     1.505943096598     1.007825032070
           C         -3.348068763400     0.240576372338     0.224572096598    12.000000000000
           H         -1.823218763400     0.215520372338    -1.292348903402     1.007825032070
           H         -1.508513763400    -0.847590627662     0.051105096598     1.007825032070
           C         -4.238388763400    -0.838418627662    -0.394485903402    12.000000000000
           H         -3.735522763400     1.222132372338    -0.043127903402     1.007825032070
           H         -3.408388763400     0.175786372338     1.309866096598     1.007825032070
           C         -5.699717763400    -0.728498627662     0.039260096598    12.000000000000
           H         -4.178505763400    -0.775746627662    -1.478979903402     1.007825032070
           H         -3.855222763400    -1.820266627662    -0.124412903402     1.007825032070
           H         -6.305087763400    -1.506406627662    -0.415703903402     1.007825032070
           H         -6.122789763400     0.230049372338    -0.247779903402     1.007825032070
           H         -5.796838763400    -0.821912627662     1.117275096598     1.007825032070
           C          4.730476236600    -1.099016627662     0.003467096598    12.000000000000
           H          4.884375236600    -1.023874627662    -1.063384903402     1.007825032070
           H          5.070569236600    -2.057436627662     0.363710096598     1.007825032070
           H          5.267413236600    -0.301572627662     0.496740096598     1.007825032070

  Charge       = 0
  Multiplicity = 1
  Basis Set: 6-31G*
  Basis Set:

    Orbital Energies (a.u.)
    -----------------------

    Doubly Occupied:

       1A    -20.603363     2A    -20.545198     3A    -11.372005
       4A    -11.280666     5A    -11.234743     6A    -11.219093
       7A    -11.217640     8A    -11.216001     9A    -11.215856
      10A    -11.214457    11A    -11.209071    12A     -1.469066
      13A     -1.362510    14A     -1.098075    15A     -1.066812
      16A     -1.019503    17A     -0.977228    18A     -0.928566
      19A     -0.861594    20A     -0.799269    21A     -0.790498
      22A     -0.763798    23A     -0.700744    24A     -0.682310
      25A     -0.672174    26A     -0.650891    27A     -0.628792
      28A     -0.604687    29A     -0.594957    30A     -0.580913
      31A     -0.567027    32A     -0.549207    33A     -0.531884
      34A     -0.530399    35A     -0.516049    36A     -0.511836
      37A     -0.496350    38A     -0.477816    39A     -0.470191
      40A     -0.462411    41A     -0.458835    42A     -0.455769
      43A     -0.441154    44A     -0.435393

  @DF-RHF Final Energy:  -501.04411234353643

   => Energetics <=

    Nuclear Repulsion Energy =            610.1915698283064557
    One-Electron Energy =               -1891.5018106552461177
    Two-Electron Energy =                 780.2661284834032358
    DFT Exchange-Correlation Energy =       0.0000000000000000
    Empirical Dispersion Energy =           0.0000000000000000
    PCM Polarization Energy =               0.0000000000000000
    EFP Energy =                            0.0000000000000000
    Total Energy =                       -501.0441123435364261

  Mulliken Charges: (a.u.)
   Center  Symbol    Alpha    Beta     Spin     Total
       1     O     4.28596  4.28596  0.00000 -0.57191
       2     C     2.60484  2.60484  0.00000  0.79033
       3     C     3.20973  3.20973  0.00000 -0.41947
       4     O     4.30746  4.30746  0.00000 -0.61493
       5     C     3.15378  3.15378  0.00000 -0.30756
       6     H     0.39879  0.39879  0.00000  0.20242
       7     H     0.40125  0.40125  0.00000  0.19751
       8     C     3.15663  3.15663  0.00000 -0.31326
       9     H     0.41308  0.41308  0.00000  0.17383
      10     H     0.40874  0.40874  0.00000  0.18251
      11     C     3.15507  3.15507  0.00000 -0.31015
      12     H     0.41823  0.41823  0.00000  0.16355
      13     H     0.42386  0.42386  0.00000  0.15227
      14     C     3.15029  3.15029  0.00000 -0.30059
      15     H     0.42261  0.42261  0.00000  0.15479
      16     H     0.42361  0.42361  0.00000  0.15278
      17     C     3.15146  3.15146  0.00000 -0.30292
      18     H     0.42332  0.42332  0.00000  0.15336
      19     H     0.42397  0.42397  0.00000  0.15205
      20     C     3.23935  3.23935  0.00000 -0.47871
      21     H     0.42280  0.42280  0.00000  0.15440
      22     H     0.42343  0.42343  0.00000  0.15314
      23     H     0.41923  0.41923  0.00000  0.16154
      24     H     0.42154  0.42154  0.00000  0.15691
      25     H     0.42183  0.42183  0.00000  0.15634
      26     C     3.09240  3.09240  0.00000 -0.18481
      27     H     0.40895  0.40895  0.00000  0.18211
      28     H     0.40852  0.40852  0.00000  0.18296
      29     H     0.40926  0.40926  0.00000  0.18148

   Total alpha = 44.00000, Total beta = 44.00000, Total charge =  0.00000
