  ==> Input File <==

--------------------------------------------------------------------------
set {
	reference rhf
	basis 6-31G*
}

set_num_threads( 1 )
memory 2 gb

molecule MOL {
0 1

O	 3.225979	 0.970355	 -0.599647
C	 2.701189	 0.057885	 -0.047330
C	 1.245376	 -0.013843	 0.345420
O	 3.347903	 -1.046386	 0.304773
C	 0.295441	 0.192578	 -0.832345
H	 1.092779	 -0.973664	 0.827757
H	 1.081433	 0.735055	 1.116114
C	 -1.183795	 0.227218	 -0.433403
H	 0.460006	 -0.589757	 -1.567185
H	 0.552464	 1.124266	 -1.324605
C	 -1.737396	 -1.094083	 0.107707
H	 -1.762085	 0.513586	 -1.308788
H	 -1.342381	 1.013721	 0.302989
C	 -3.240642	 -1.039240	 0.387425
H	 -1.533955	 -1.887664	 -0.609691
H	 -1.219757	 -1.370139	 1.023576
C	 -3.803870	 -2.352529	 0.933481
H	 -3.767598	 -0.776388	 -0.528250
H	 -3.445999	 -0.238847	 1.096579
C	 -5.306302	 -2.290563	 1.206532
H	 -3.598643	 -3.153613	 0.226523
H	 -3.281365	 -2.614689	 1.851109
H	 -5.675680	 -3.235644	 1.592524
H	 -5.860499	 -2.064422	 0.299934
H	 -5.540729	 -1.520916	 1.936574
C	 4.728119	 -1.109107	 -0.004993
H	 4.882018	 -1.033965	 -1.071845
H	 5.068212	 -2.067527	 0.355250
H	 5.265056	 -0.311663	 0.488280

	symmetry c1
}
set optking {
	frozen_dihedral = ("
		21 17 14 11,
		17 14 11 15,
		15 11 8 5,
		6 3 5 9,
		11 8 5 9,
		2 4 26 27,
		1 2 4 26
	")
}

ee = energy('scf')
oeprop('DIPOLE', 'QUADRUPOLE', 'MULLIKEN_CHARGES')
f=open( 'psi4out.xyz', 'w' )
f.write( "29  " )
f.write( str(ee) + "\n" )
f.write( MOL.save_string_xyz() )
f.close()
--------------------------------------------------------------------------

    Molecular point group: c1

    Geometry (in Angstrom), charge = 0, multiplicity = 1:

       Center              X                  Y                   Z               Mass
    ------------   -----------------  -----------------  -----------------  -----------------
           O          3.157974210438     1.658855024691    -0.725979978412    15.994914619560
           C          2.633184210438     0.746385024691    -0.173662978412    12.000000000000
           C          1.177371210438     0.674657024691     0.219087021588    12.000000000000
           O          3.279898210438    -0.357885975309     0.178440021588    15.994914619560
           C          0.227436210438     0.881078024691    -0.958677978412    12.000000000000
           H          1.024774210438    -0.285163975309     0.701424021588     1.007825032070
           H          1.013428210438     1.423555024691     0.989781021588     1.007825032070
           C         -1.251799789562     0.915718024691    -0.559735978412    12.000000000000
           H          0.392001210438     0.098743024691    -1.693517978412     1.007825032070
           H          0.484459210438     1.812766024691    -1.450937978412     1.007825032070
           C         -1.805400789562    -0.405582975309    -0.018625978412    12.000000000000
           H         -1.830089789562     1.202086024691    -1.435120978412     1.007825032070
           H         -1.410385789562     1.702221024691     0.176656021588     1.007825032070
           C         -3.308646789562    -0.350739975309     0.261092021588    12.000000000000
           H         -1.601959789562    -1.199163975309    -0.736023978412     1.007825032070
           H         -1.287761789562    -0.681638975309     0.897243021588     1.007825032070
           C         -3.871874789562    -1.664028975309     0.807148021588    12.000000000000
           H         -3.835602789562    -0.087887975309    -0.654582978412     1.007825032070
           H         -3.514003789562     0.449653024691     0.970246021588     1.007825032070
           C         -5.374306789562    -1.602062975309     1.080199021588    12.000000000000
           H         -3.666647789562    -2.465112975309     0.100190021588     1.007825032070
           H         -3.349369789562    -1.926188975309     1.724776021588     1.007825032070
           H         -5.743684789562    -2.547143975309     1.466191021588     1.007825032070
           H         -5.928503789562    -1.375921975309     0.173601021588     1.007825032070
           H         -5.608733789562    -0.832415975309     1.810241021588     1.007825032070
           C          4.660114210438    -0.420606975309    -0.131325978412    12.000000000000
           H          4.814013210438    -0.345464975309    -1.198177978412     1.007825032070
           H          5.000207210438    -1.379026975309     0.228917021588     1.007825032070
           H          5.197051210438     0.376837024691     0.361947021588     1.007825032070

  Charge       = 0
  Multiplicity = 1
  Basis Set: 6-31G*
  Basis Set:

    Orbital Energies (a.u.)
    -----------------------

    Doubly Occupied:

       1A    -20.604897     2A    -20.543206     3A    -11.371341
       4A    -11.280160     5A    -11.232711     6A    -11.225766
       7A    -11.220384     8A    -11.217199     9A    -11.216615
      10A    -11.215442    11A    -11.209633    12A     -1.468953
      13A     -1.361622    14A     -1.100119    15A     -1.068043
      16A     -1.019897    17A     -0.977303    18A     -0.929471
      19A     -0.863485    20A     -0.800297    21A     -0.791184
      22A     -0.769250    23A     -0.698386    24A     -0.679545
      25A     -0.672698    26A     -0.651645    27A     -0.625505
      28A     -0.606585    29A     -0.595114    30A     -0.580862
      31A     -0.561359    32A     -0.559555    33A     -0.535216
      34A     -0.529153    35A     -0.517541    36A     -0.515281
      37A     -0.497042    38A     -0.478803    39A     -0.471811
      40A     -0.463790    41A     -0.459776    42A     -0.455321
      43A     -0.443198    44A     -0.431374

  @DF-RHF Final Energy:  -501.04217738725140

   => Energetics <=

    Nuclear Repulsion Energy =            611.1565937998301479
    One-Electron Energy =               -1893.3643707030887526
    Two-Electron Energy =                 781.1655995160060684
    DFT Exchange-Correlation Energy =       0.0000000000000000
    Empirical Dispersion Energy =           0.0000000000000000
    PCM Polarization Energy =               0.0000000000000000
    EFP Energy =                            0.0000000000000000
    Total Energy =                       -501.0421773872524227

  Mulliken Charges: (a.u.)
   Center  Symbol    Alpha    Beta     Spin     Total
       1     O     4.28608  4.28608  0.00000 -0.57216
       2     C     2.60728  2.60728  0.00000  0.78543
       3     C     3.20917  3.20917  0.00000 -0.41835
       4     O     4.30359  4.30359  0.00000 -0.60718
       5     C     3.16210  3.16210  0.00000 -0.32419
       6     H     0.39794  0.39794  0.00000  0.20412
       7     H     0.40197  0.40197  0.00000  0.19606
       8     C     3.15616  3.15616  0.00000 -0.31232
       9     H     0.41673  0.41673  0.00000  0.16655
      10     H     0.40272  0.40272  0.00000  0.19455
      11     C     3.15483  3.15483  0.00000 -0.30966
      12     H     0.41803  0.41803  0.00000  0.16393
      13     H     0.42156  0.42156  0.00000  0.15688
      14     C     3.15058  3.15058  0.00000 -0.30116
      15     H     0.42290  0.42290  0.00000  0.15421
      16     H     0.42228  0.42228  0.00000  0.15543
      17     C     3.15148  3.15148  0.00000 -0.30296
      18     H     0.42344  0.42344  0.00000  0.15312
      19     H     0.42369  0.42369  0.00000  0.15263
      20     C     3.23939  3.23939  0.00000 -0.47879
      21     H     0.42285  0.42285  0.00000  0.15431
      22     H     0.42315  0.42315  0.00000  0.15370
      23     H     0.41911  0.41911  0.00000  0.16178
      24     H     0.42157  0.42157  0.00000  0.15686
      25     H     0.42167  0.42167  0.00000  0.15665
      26     C     3.09342  3.09342  0.00000 -0.18684
      27     H     0.40885  0.40885  0.00000  0.18230
      28     H     0.40859  0.40859  0.00000  0.18282
      29     H     0.40885  0.40885  0.00000  0.18229

   Total alpha = 44.00000, Total beta = 44.00000, Total charge =  0.00000
