  ==> Input File <==

--------------------------------------------------------------------------
set {
	reference rhf
	basis cc-pvtz
}

set_num_threads( 4 )
memory 2 gb

molecule MOL {
0 1

H	 2.906850	 -0.405509	 0.011376
O	 2.213561	 0.151091	 -0.291283
C	 1.135873	 0.113391	 0.608264
C	 0.027642	 1.012027	 0.090274
H	 1.448725	 0.464969	 1.588205
H	 0.777641	 -0.905293	 0.728322
C	 -1.138737	 0.285728	 -0.581921
H	 0.464661	 1.708096	 -0.618252
H	 -0.340737	 1.603071	 0.925246
C	 -1.933983	 -0.631436	 0.343653
H	 -0.763151	 -0.285569	 -1.422081
H	 -1.808359	 1.035291	 -0.992333
H	 -2.789188	 -1.049673	 -0.174718
H	 -1.335629	 -1.461368	 0.700418
H	 -2.305435	 -0.092167	 1.209725

	symmetry c1
}
set optking {
	frozen_dihedral = ("
		2 3 4 8
	")
}

ee = optimize('scf')
oeprop('DIPOLE', 'QUADRUPOLE', 'MULLIKEN_CHARGES')
f=open( 'psi4out.xyz', 'w' )
f.write( "15  " )
f.write( str(ee) + "\n" )
f.write( MOL.save_string_xyz() )
f.close()
--------------------------------------------------------------------------

    Molecular point group: c1
  Charge       = 0
  Multiplicity = 1
  Basis Set: CC-PVTZ
  Basis Set:
  @DF-RHF Final Energy:  -232.23247199797669
    Total Energy =                       -232.2324719979764609
    Molecular point group: c1
  Basis Set: CC-PVTZ
  Basis Set:
  Basis Set: CC-PVTZ
  Basis Set:
  @DF-RHF Final Energy:  -232.23301016069729
    Total Energy =                       -232.2330101606972903
  Basis Set: CC-PVTZ
  Basis Set:
  Basis Set: CC-PVTZ
  Basis Set:
  @DF-RHF Final Energy:  -232.23330055727826
    Total Energy =                       -232.2333005572782554
  Basis Set: CC-PVTZ
  Basis Set:
  Basis Set: CC-PVTZ
  Basis Set:
  @DF-RHF Final Energy:  -232.23332175118466
    Total Energy =                       -232.2333217511846897
  Basis Set: CC-PVTZ
  Basis Set:
  Basis Set: CC-PVTZ
  Basis Set:
  @DF-RHF Final Energy:  -232.23332558542199
    Total Energy =                       -232.2333255854220511
  Basis Set: CC-PVTZ
  Basis Set:
  Basis Set: CC-PVTZ
  Basis Set:
  @DF-RHF Final Energy:  -232.23332955131778
    Total Energy =                       -232.2333295513178086
  Basis Set: CC-PVTZ
  Basis Set:
  Charge       = 0
  Multiplicity = 1
  Basis Set: CC-PVTZ
  Basis Set:

    Orbital Energies (a.u.)
    -----------------------

    Doubly Occupied:

       1A    -20.545496     2A    -11.265448     3A    -11.212472
       4A    -11.209783     5A    -11.207082     6A     -1.362586
       7A     -1.067473     8A     -0.970682     9A     -0.869544
      10A     -0.781921    11A     -0.706597    12A     -0.647899
      13A     -0.605327    14A     -0.586601    15A     -0.560541
      16A     -0.537488    17A     -0.510001    18A     -0.477052
      19A     -0.472346    20A     -0.455026    21A     -0.431313

  @DF-RHF Final Energy:  -232.23332962315391

   => Energetics <=

    Nuclear Repulsion Energy =            189.1092667292650162
    One-Electron Energy =                -689.7198343576918660
    Two-Electron Energy =                 268.3772380052729432
    DFT Exchange-Correlation Energy =       0.0000000000000000
    Empirical Dispersion Energy =           0.0000000000000000
    PCM Polarization Energy =               0.0000000000000000
    EFP Energy =                            0.0000000000000000
    Total Energy =                       -232.2333296231539066
    Molecular point group: c1
  Basis Set: CC-PVTZ
  Basis Set:

  -Total Gradient:
     Atom            X                  Y                   Z
    ------   -----------------  -----------------  -----------------
       1        0.000002031970     0.000000998028     0.000001201830
       2        0.001102907530     0.002184009214     0.001516775491
       3       -0.001556638516    -0.003282760230    -0.002540771692
       4        0.001122828898     0.003383696580     0.003867653078
       5       -0.000004697176     0.000000797192     0.000000751592
       6       -0.000004907274    -0.000001822426    -0.000000317698
       7        0.000008762284    -0.000011173357    -0.000001119065
       8       -0.000662966298    -0.002274991221    -0.002846434650
       9       -0.000000231359    -0.000000035723    -0.000000657509
      10       -0.000010592681     0.000003055990     0.000000324537
      11        0.000001531742     0.000003025218    -0.000004602367
      12        0.000001453047    -0.000003522368     0.000003447836
      13       -0.000002327926    -0.000001328899     0.000002375778
      14        0.000002582256     0.000002258372    -0.000001372553
      15        0.000000263504    -0.000002206371     0.000002745393

  **** Optimization is complete! (in 7 steps) ****
    Final optimized geometry and variables:
    Molecular point group: c1

    Geometry (in Angstrom), charge = 0, multiplicity = 1:

    H            2.792445889888    -0.549752845760    -0.163019861813
    O            2.097594805092     0.045717852443    -0.375513399259
    C            1.054995955588    -0.077544290933     0.560676063843
    C           -0.101648513993     0.818075378793     0.116328560432
    H            1.408696475128     0.226405775291     1.541957340751
    H            0.737705170117    -1.113008568800     0.636849956460
    C           -1.229964362005     0.079054876356    -0.608597538261
    H            0.316447301888     1.548605104814    -0.564761683676
    H           -0.508159548788     1.353441871271     0.967872346501
    C           -2.106067143368    -0.775830592397     0.303449169236
    H           -0.801079639495    -0.538636188006    -1.392401310440
    H           -1.858916563781     0.809257781207    -1.107922237301
    H           -2.884840459284    -1.274549130875    -0.262094986492
    H           -1.534992025980    -1.542795273834     0.814739371331
    H           -2.587447388765    -0.165531736461     1.060822488049

  Mulliken Charges: (a.u.)
   Center  Symbol    Alpha    Beta     Spin     Total
       1     H     0.39515  0.39515  0.00000  0.20970
       2     O     4.20014  4.20014  0.00000 -0.40027
       3     C     2.96501  2.96501  0.00000  0.06999
       4     C     3.09415  3.09415  0.00000 -0.18830
       5     H     0.47059  0.47059  0.00000  0.05882
       6     H     0.47470  0.47470  0.00000  0.05059
       7     C     3.09472  3.09472  0.00000 -0.18945
       8     H     0.44348  0.44348  0.00000  0.11304
       9     H     0.45250  0.45250  0.00000  0.09500
      10     C     3.14983  3.14983  0.00000 -0.29965
      11     H     0.44988  0.44988  0.00000  0.10024
      12     H     0.44953  0.44953  0.00000  0.10093
      13     H     0.44764  0.44764  0.00000  0.10472
      14     H     0.45715  0.45715  0.00000  0.08571
      15     H     0.45553  0.45553  0.00000  0.08893

   Total alpha = 21.00000, Total beta = 21.00000, Total charge = -0.00000
