  ==> Input File <==

--------------------------------------------------------------------------
set {
	reference rhf
	basis cc-pvtz
}

set_num_threads( 4 )
memory 2 gb

molecule MOL {
0 1

H	 -3.162190	 0.493205	 -0.000107
C	 -2.363908	 -0.234727	 0.000005
O	 -1.158738	 0.454634	 -0.000087
H	 -2.464314	 -0.863616	 -0.882153
H	 -2.464327	 -0.863359	 0.882345
C	 -0.028611	 -0.359694	 0.000037
C	 1.212847	 0.509314	 -0.000053
H	 -0.034155	 -1.007047	 -0.877198
H	 -0.034195	 -1.006836	 0.877430
C	 1.786331	 0.705617	 1.398851
H	 1.953910	 0.052915	 -0.646931
H	 0.962812	 1.468764	 -0.439245
H	 2.066204	 -0.241530	 1.847928
H	 2.671340	 1.329249	 1.369493
H	 1.068604	 1.184044	 2.056912

	symmetry c1
}
set optking {
	frozen_dihedral = ("
		11 7 6 8
	")
}

ee = optimize('scf')
oeprop('DIPOLE', 'QUADRUPOLE', 'MULLIKEN_CHARGES')
f=open( 'psi4out.xyz', 'w' )
f.write( "15  " )
f.write( str(ee) + "\n" )
f.write( MOL.save_string_xyz() )
f.close()
--------------------------------------------------------------------------

    Molecular point group: c1
  Charge       = 0
  Multiplicity = 1
  Basis Set: CC-PVTZ
  Basis Set:
  @DF-RHF Final Energy:  -232.22414632054065
    Total Energy =                       -232.2241463205405694
    Molecular point group: c1
  Basis Set: CC-PVTZ
  Basis Set:
  Basis Set: CC-PVTZ
  Basis Set:
  @DF-RHF Final Energy:  -232.22462138243634
    Total Energy =                       -232.2246213824364531
  Basis Set: CC-PVTZ
  Basis Set:
  Basis Set: CC-PVTZ
  Basis Set:
  @DF-RHF Final Energy:  -232.22471652782374
    Total Energy =                       -232.2247165278237730
  Basis Set: CC-PVTZ
  Basis Set:
  Basis Set: CC-PVTZ
  Basis Set:
  @DF-RHF Final Energy:  -232.22471883935540
    Total Energy =                       -232.2247188393554893
  Basis Set: CC-PVTZ
  Basis Set:
  Charge       = 0
  Multiplicity = 1
  Basis Set: CC-PVTZ
  Basis Set:

    Orbital Energies (a.u.)
    -----------------------

    Doubly Occupied:

       1A    -20.548628     2A    -11.264562     3A    -11.262024
       4A    -11.212691     5A    -11.206231     6A     -1.382372
       7A     -1.054793     8A     -0.953857     9A     -0.882696
      10A     -0.806132    11A     -0.669689    12A     -0.663853
      13A     -0.633773    14A     -0.583639    15A     -0.580937
      16A     -0.546092    17A     -0.494313    18A     -0.487796
      19A     -0.482267    20A     -0.461938    21A     -0.414504

  @DF-RHF Final Energy:  -232.22471911695794

   => Energetics <=

    Nuclear Repulsion Energy =            191.5251601939702937
    One-Electron Energy =                -694.3141804475806111
    Two-Electron Energy =                 270.5643011366523183
    DFT Exchange-Correlation Energy =       0.0000000000000000
    Empirical Dispersion Energy =           0.0000000000000000
    PCM Polarization Energy =               0.0000000000000000
    EFP Energy =                            0.0000000000000000
    Total Energy =                       -232.2247191169579992
    Molecular point group: c1
  Basis Set: CC-PVTZ
  Basis Set:

  -Total Gradient:
     Atom            X                  Y                   Z
    ------   -----------------  -----------------  -----------------
       1       -0.000004834173    -0.000000040302    -0.000001632343
       2        0.000002131118     0.000000210971    -0.000000604321
       3       -0.000016216785    -0.000003384763    -0.000001230222
       4       -0.000006223798     0.000000129978    -0.000001849154
       5       -0.000003725388     0.000000102190     0.000002207607
       6       -0.003004451786     0.004755365128    -0.003774710047
       7        0.002453204318    -0.003922253923     0.005009215645
       8        0.002154146152    -0.003323082345     0.002347298004
       9       -0.000017739002     0.000011947949     0.000003381940
      10       -0.000010606290    -0.000004471319    -0.000000055713
      11       -0.001544605607     0.002473731157    -0.003555370401
      12        0.000000934391     0.000014041937    -0.000003662760
      13       -0.000002438612     0.000008640425    -0.000009083242
      14       -0.000001708739    -0.000000686413    -0.000006231153
      15        0.000002134200    -0.000010250671    -0.000007673837

  **** Optimization is complete! (in 5 steps) ****
    Final optimized geometry and variables:
    Molecular point group: c1

    Geometry (in Angstrom), charge = 0, multiplicity = 1:

    H           -3.012112775126     0.307552909945    -0.240231096867
    C           -2.220271188859    -0.427311809268    -0.257701021944
    O           -1.009472276870     0.251303055207    -0.288212219979
    H           -2.346952455958    -1.056727781807    -1.136195267888
    H           -2.304854476263    -1.053920450383     0.627686218561
    C            0.112666634123    -0.574261337077    -0.323483586914
    C            1.376811464589     0.277513778451    -0.278345970938
    H            0.103296106704    -1.205659625858    -1.210507388500
    H            0.092083482040    -1.255571958549     0.528048335877
    C            1.913024029266     0.513230639075     1.128061553013
    H            2.134083000666    -0.165603135057    -0.916412134165
    H            1.133327965727     1.228800475387    -0.738536969548
    H            2.219872892324    -0.417578791800     1.593390226697
    H            2.771546719297     1.174570330039     1.113564233455
    H            1.154145873851     0.966077731459     1.755978629541

  Mulliken Charges: (a.u.)
   Center  Symbol    Alpha    Beta     Spin     Total
       1     H     0.44711  0.44711  0.00000  0.10578
       2     C     3.03159  3.03159  0.00000 -0.06318
       3     O     4.17383  4.17383  0.00000 -0.34767
       4     H     0.47175  0.47175  0.00000  0.05651
       5     H     0.47187  0.47187  0.00000  0.05626
       6     C     2.96370  2.96370  0.00000  0.07259
       7     C     3.08293  3.08293  0.00000 -0.16587
       8     H     0.46877  0.46877  0.00000  0.06246
       9     H     0.47836  0.47836  0.00000  0.04328
      10     C     3.14983  3.14983  0.00000 -0.29965
      11     H     0.45328  0.45328  0.00000  0.09343
      12     H     0.45014  0.45014  0.00000  0.09973
      13     H     0.45742  0.45742  0.00000  0.08517
      14     H     0.44976  0.44976  0.00000  0.10047
      15     H     0.44966  0.44966  0.00000  0.10069

   Total alpha = 21.00000, Total beta = 21.00000, Total charge =  0.00000
