  ==> Input File <==

--------------------------------------------------------------------------
set {
	reference rhf
	basis 6-31G*
}

set_num_threads( 1 )
memory 2 gb

molecule MOL {
0 1

H	 2.591676	 2.013956	 0.335017
O	 3.341076	 1.666752	 -0.126416
C	 3.569581	 0.339145	 0.272707
C	 3.967313	 -0.575315	 -0.880679
H	 4.372415	 0.383724	 0.997376
H	 2.694745	 -0.061028	 0.783885
C	 2.878925	 -0.746153	 -1.943267
H	 4.867864	 -0.177591	 -1.341320
H	 4.225631	 -1.549044	 -0.467773
C	 3.288195	 -1.711768	 -3.059020
H	 2.642623	 0.223946	 -2.371559
H	 1.966568	 -1.111494	 -1.471598
C	 2.201214	 -1.984935	 -4.105056
H	 4.177540	 -1.328358	 -3.555921
H	 3.577850	 -2.658661	 -2.608250
C	 1.820059	 -0.779173	 -4.968386
H	 2.548283	 -2.782984	 -4.758108
H	 1.311580	 -2.367895	 -3.607330
C	 0.810631	 -1.126279	 -6.064748
H	 2.718300	 -0.366931	 -5.425911
H	 1.405145	 0.010305	 -4.346395
C	 0.423583	 0.076911	 -6.923929
H	 1.224283	 -1.905602	 -6.701171
H	 -0.083743	 -1.547358	 -5.610135
H	 1.292748	 0.501225	 -7.418635
H	 -0.290927	 -0.201555	 -7.692414
H	 -0.027658	 0.860428	 -6.321563

	symmetry c1
}
set optking {
	frozen_dihedral = ("
		14 10 7 4,
		14 10 13 16,
		10 7 4 8,
		8 4 3 2,
		10 13 16 20,
		20 16 19 22
	")
}

ee = energy('scf')
oeprop('DIPOLE', 'QUADRUPOLE', 'MULLIKEN_CHARGES')
f=open( 'psi4out.xyz', 'w' )
f.write( "27  " )
f.write( str(ee) + "\n" )
f.write( MOL.save_string_xyz() )
f.close()
--------------------------------------------------------------------------

    Molecular point group: c1

    Geometry (in Angstrom), charge = 0, multiplicity = 1:

       Center              X                  Y                   Z               Mass
    ------------   -----------------  -----------------  -----------------  -----------------
           H          0.113558873905     2.502603938822     3.379178096886     1.007825032070
           O          0.862958873905     2.155399938822     2.917745096886    15.994914619560
           C          1.091463873905     0.827792938822     3.316868096886    12.000000000000
           C          1.489195873905    -0.086667061178     2.163482096886    12.000000000000
           H          1.894297873905     0.872371938822     4.041537096886     1.007825032070
           H          0.216627873905     0.427619938822     3.828046096886     1.007825032070
           C          0.400807873905    -0.257505061178     1.100894096886    12.000000000000
           H          2.389746873905     0.311056938822     1.702841096886     1.007825032070
           H          1.747513873905    -1.060396061178     2.576388096886     1.007825032070
           C          0.810077873905    -1.223120061178    -0.014858903114    12.000000000000
           H          0.164505873905     0.712593938822     0.672602096886     1.007825032070
           H         -0.511549126095    -0.622846061178     1.572563096886     1.007825032070
           C         -0.276903126095    -1.496287061178    -1.060894903114    12.000000000000
           H          1.699422873905    -0.839710061178    -0.511759903114     1.007825032070
           H          1.099732873905    -2.170013061178     0.435911096886     1.007825032070
           C         -0.658058126095    -0.290525061178    -1.924224903114    12.000000000000
           H          0.070165873905    -2.294336061178    -1.713946903114     1.007825032070
           H         -1.166537126095    -1.879247061178    -0.563168903114     1.007825032070
           C         -1.667486126095    -0.637631061178    -3.020586903114    12.000000000000
           H          0.240182873905     0.121716938822    -2.381749903114     1.007825032070
           H         -1.072972126095     0.498952938822    -1.302233903114     1.007825032070
           C         -2.054534126095     0.565558938822    -3.879767903114    12.000000000000
           H         -1.253834126095    -1.416954061178    -3.657009903114     1.007825032070
           H         -2.561860126095    -1.058710061178    -2.565973903114     1.007825032070
           H         -1.185369126095     0.989872938822    -4.374473903114     1.007825032070
           H         -2.769044126095     0.287092938822    -4.648252903114     1.007825032070
           H         -2.505775126095     1.349075938822    -3.277401903114     1.007825032070

  Charge       = 0
  Multiplicity = 1
  Basis Set: 6-31G*
  Basis Set:

    Orbital Energies (a.u.)
    -----------------------

    Doubly Occupied:

       1A    -20.551013     2A    -11.267331     3A    -11.213860
       4A    -11.212135     5A    -11.211019     6A    -11.210460
       7A    -11.209238     8A    -11.209114     9A    -11.205958
      10A     -1.358514    11A     -1.089490    12A     -1.057087
      13A     -1.008393    14A     -0.944026    15A     -0.881304
      16A     -0.813297    17A     -0.795686    18A     -0.771940
      19A     -0.703917    20A     -0.645051    21A     -0.628047
      22A     -0.624483    23A     -0.588573    24A     -0.579111
      25A     -0.576585    26A     -0.547129    27A     -0.538361
      28A     -0.520285    29A     -0.506856    30A     -0.484130
      31A     -0.478293    32A     -0.475574    33A     -0.461434
      34A     -0.454521    35A     -0.450634    36A     -0.439547
      37A     -0.417607

  @DF-RHF Final Energy:  -388.27982946245686

   => Energetics <=

    Nuclear Repulsion Energy =            458.6675089333423330
    One-Electron Energy =               -1435.6346313090173226
    Two-Electron Energy =                 588.6872929132180161
    DFT Exchange-Correlation Energy =       0.0000000000000000
    Empirical Dispersion Energy =           0.0000000000000000
    PCM Polarization Energy =               0.0000000000000000
    EFP Energy =                            0.0000000000000000
    Total Energy =                       -388.2798294624569735

  Mulliken Charges: (a.u.)
   Center  Symbol    Alpha    Beta     Spin     Total
       1     H     0.27940  0.27940  0.00000  0.44119
       2     O     4.37219  4.37219  0.00000 -0.74438
       3     C     2.99606  2.99606  0.00000  0.00788
       4     C     3.15991  3.15991  0.00000 -0.31983
       5     H     0.42443  0.42443  0.00000  0.15114
       6     H     0.43383  0.43383  0.00000  0.13235
       7     C     3.15744  3.15744  0.00000 -0.31488
       8     H     0.41490  0.41490  0.00000  0.17019
       9     H     0.42372  0.42372  0.00000  0.15256
      10     C     3.15315  3.15315  0.00000 -0.30630
      11     H     0.40914  0.40914  0.00000  0.18173
      12     H     0.42896  0.42896  0.00000  0.14207
      13     C     3.15281  3.15281  0.00000 -0.30563
      14     H     0.42296  0.42296  0.00000  0.15408
      15     H     0.42414  0.42414  0.00000  0.15173
      16     C     3.15267  3.15267  0.00000 -0.30534
      17     H     0.42253  0.42253  0.00000  0.15493
      18     H     0.42498  0.42498  0.00000  0.15003
      19     C     3.15106  3.15106  0.00000 -0.30211
      20     H     0.42406  0.42406  0.00000  0.15188
      21     H     0.42149  0.42149  0.00000  0.15703
      22     C     3.23902  3.23902  0.00000 -0.47804
      23     H     0.42360  0.42360  0.00000  0.15281
      24     H     0.42381  0.42381  0.00000  0.15237
      25     H     0.42169  0.42169  0.00000  0.15662
      26     H     0.42006  0.42006  0.00000  0.15989
      27     H     0.42200  0.42200  0.00000  0.15601

   Total alpha = 37.00000, Total beta = 37.00000, Total charge =  0.00000
