  ==> Input File <==

--------------------------------------------------------------------------
set {
	reference rhf
	basis 6-31G*
}

set_num_threads( 1 )
memory 2 gb

molecule MOL {
0 1

O	 0.625848	 1.349995	 -0.000749
C	 0.486307	 0.169203	 0.000779
C	 1.608116	 -0.841643	 0.000302
O	 -0.698257	 -0.426125	 0.001050
C	 2.990107	 -0.200498	 -0.000684
H	 1.468623	 -1.481519	 -0.865924
H	 1.469683	 -1.481289	 0.866878
H	 3.129736	 0.423364	 -0.875135
H	 3.757882	 -0.966877	 -0.001197
H	 3.130964	 0.423383	 0.873533
C	 -1.844423	 0.389607	 0.220788
C	 -3.059395	 -0.512548	 0.173144
H	 -1.884334	 1.154503	 -0.542708
H	 -1.748807	 0.881253	 1.179294
H	 -3.137894	 -1.001593	 -0.791134
H	 -3.959550	 0.071119	 0.336551
H	 -3.001754	 -1.276352	 0.940306

	symmetry c1
}
set optking {
	frozen_dihedral = ("
		2 4 11 13,
		4 2 3 6
	")
}

ee = energy('scf')
oeprop('DIPOLE', 'QUADRUPOLE', 'MULLIKEN_CHARGES')
f=open( 'psi4out.xyz', 'w' )
f.write( "17  " )
f.write( str(ee) + "\n" )
f.write( MOL.save_string_xyz() )
f.close()
--------------------------------------------------------------------------

    Molecular point group: c1

    Geometry (in Angstrom), charge = 0, multiplicity = 1:

       Center              X                  Y                   Z               Mass
    ------------   -----------------  -----------------  -----------------  -----------------
           O          0.623605875926     1.354431224815    -0.058220387346    15.994914619560
           C          0.484064875926     0.173639224815    -0.056692387346    12.000000000000
           C          1.605873875926    -0.837206775185    -0.057169387346    12.000000000000
           O         -0.700499124074    -0.421688775185    -0.056421387346    15.994914619560
           C          2.987864875926    -0.196061775185    -0.058155387346    12.000000000000
           H          1.466380875926    -1.477082775185    -0.923395387346     1.007825032070
           H          1.467440875926    -1.476852775185     0.809406612654     1.007825032070
           H          3.127493875926     0.427800224815    -0.932606387346     1.007825032070
           H          3.755639875926    -0.962440775185    -0.058668387346     1.007825032070
           H          3.128721875926     0.427819224815     0.816061612654     1.007825032070
           C         -1.846665124074     0.394043224815     0.163316612654    12.000000000000
           C         -3.061637124074    -0.508111775185     0.115672612654    12.000000000000
           H         -1.886576124074     1.158939224815    -0.600179387346     1.007825032070
           H         -1.751049124074     0.885689224815     1.121822612654     1.007825032070
           H         -3.140136124074    -0.997156775185    -0.848605387346     1.007825032070
           H         -3.961792124074     0.075555224815     0.279079612654     1.007825032070
           H         -3.003996124074    -1.271915775185     0.882834612654     1.007825032070

  Charge       = 0
  Multiplicity = 1
  Basis Set: 6-31G*
  Basis Set:

    Orbital Energies (a.u.)
    -----------------------

    Doubly Occupied:

       1A    -20.600286     2A    -20.544503     3A    -11.371343
       4A    -11.285046     5A    -11.237544     6A    -11.222419
       7A    -11.215756     8A     -1.467355     9A     -1.361939
      10A     -1.069910    11A     -1.031909    12A     -0.910620
      13A     -0.847663    14A     -0.772751    15A     -0.696114
      16A     -0.688899    17A     -0.664201    18A     -0.629958
      19A     -0.583495    20A     -0.571063    21A     -0.558471
      22A     -0.523503    23A     -0.518964    24A     -0.515072
      25A     -0.504557    26A     -0.492706    27A     -0.452470
      28A     -0.435801

  @DF-RHF Final Energy:  -344.91134561888606

   => Energetics <=

    Nuclear Repulsion Energy =            314.6815583151634996
    One-Electron Energy =               -1093.6372549229963624
    Two-Electron Energy =                 434.0443509889460074
    DFT Exchange-Correlation Energy =       0.0000000000000000
    Empirical Dispersion Energy =           0.0000000000000000
    PCM Polarization Energy =               0.0000000000000000
    EFP Energy =                            0.0000000000000000
    Total Energy =                       -344.9113456188867985

  Mulliken Charges: (a.u.)
   Center  Symbol    Alpha    Beta     Spin     Total
       1     O     4.28582  4.28582  0.00000 -0.57163
       2     C     2.60557  2.60557  0.00000  0.78886
       3     C     3.20512  3.20512  0.00000 -0.41024
       4     O     4.31339  4.31339  0.00000 -0.62677
       5     C     3.23882  3.23882  0.00000 -0.47763
       6     H     0.40034  0.40034  0.00000  0.19932
       7     H     0.40133  0.40133  0.00000  0.19733
       8     H     0.40978  0.40978  0.00000  0.18044
       9     H     0.41824  0.41824  0.00000  0.16351
      10     H     0.41019  0.41019  0.00000  0.17963
      11     C     3.00243  3.00243  0.00000 -0.00487
      12     C     3.24843  3.24843  0.00000 -0.49686
      13     H     0.40796  0.40796  0.00000  0.18407
      14     H     0.41266  0.41266  0.00000  0.17469
      15     H     0.41132  0.41132  0.00000  0.17737
      16     H     0.41632  0.41632  0.00000  0.16735
      17     H     0.41229  0.41229  0.00000  0.17543

   Total alpha = 28.00000, Total beta = 28.00000, Total charge =  0.00000
