                              Psi4 1.0.54 Driver

  ==> Input File <==

--------------------------------------------------------------------------
set {
	reference rhf
	basis cc-pvtz
}

set_num_threads( 4 )
memory 2 gb

molecule MOL {
0 1

H	 -1.270228	 1.374346	 1.961832
C	 -0.993581	 0.762561	 1.129293
C	 -1.916225	 0.457929	 0.078065
C	 0.237575	 0.253692	 1.037973
H	 -2.914285	 0.851789	 0.121731
C	 -1.544577	 -0.309407	 -0.951328
H	 0.983818	 0.437038	 1.785400
N	 0.640204	 -0.530428	 -0.000115
H	 -2.207339	 -0.557654	 -1.754496
C	 -0.201385	 -0.862387	 -1.047665
C	 2.006991	 -1.033007	 -0.000020
O	 0.169810	 -1.555128	 -1.955722
H	 2.182444	 -1.636914	 -0.880881
H	 2.678769	 -0.195442	 -0.002236
H	 2.183828	 -1.633244	 0.883082

	symmetry c1
}
set optking {
	frozen_dihedral = ("
		10 8 11 13
	")
}

ee,wfn = optimize('scf', return_wfn=True)
oeprop( wfn, 'DIPOLE', 'QUADRUPOLE', 'MULLIKEN_CHARGES')
f=open( 'psi4out.xyz', 'w' )
f.write( "15  " )
f.write( str(ee) + "\n" )
f.write( MOL.save_string_xyz() )
f.close()
--------------------------------------------------------------------------

    Molecular point group: c1
  Charge       = 0
  Multiplicity = 1
  Basis Set: CC-PVTZ
  Basis Set:
  @DF-RHF Final Energy:  -360.72224441642334
    Total Energy =                       -360.7222444164234503
    Molecular point group: c1
  Basis Set: CC-PVTZ
  Basis Set:
  Basis Set: CC-PVTZ
  Basis Set:
  @DF-RHF Final Energy:  -360.72249542563043
    Total Energy =                       -360.7224954256305409
  Basis Set: CC-PVTZ
  Basis Set:
  Basis Set: CC-PVTZ
  Basis Set:
  @DF-RHF Final Energy:  -360.72252925199643
    Total Energy =                       -360.7225292519966047
  Basis Set: CC-PVTZ
  Basis Set:
  Basis Set: CC-PVTZ
  Basis Set:
  @DF-RHF Final Energy:  -360.72251636672371
    Total Energy =                       -360.7225163667239940
  Basis Set: CC-PVTZ
  Basis Set:
  Charge       = 0
  Multiplicity = 1
  Basis Set: CC-PVTZ
  Basis Set:

    Orbital Energies (a.u.)
    -----------------------

    Doubly Occupied:

       1A    -20.501768     2A    -15.616386     3A    -11.339709
       4A    -11.293137     5A    -11.263344     6A    -11.258231
       7A    -11.230787     8A    -11.228430     9A     -1.390499
      10A     -1.285765    11A     -1.118809    12A     -1.028854
      13A     -0.972274    14A     -0.875703    15A     -0.838539
      16A     -0.719087    17A     -0.703179    18A     -0.663340
      19A     -0.652662    20A     -0.625139    21A     -0.611943
      22A     -0.573853    23A     -0.558543    24A     -0.550466
      25A     -0.529219    26A     -0.482666    27A     -0.420022
      28A     -0.410903    29A     -0.311083

  @DF-RHF Final Energy:  -360.72253153701490

   => Energetics <=

    Nuclear Repulsion Energy =            358.4265881982296378
    One-Electron Energy =               -1200.1895629074833778
    Two-Electron Energy =                 481.0404431722388381
    DFT Exchange-Correlation Energy =       0.0000000000000000
    Empirical Dispersion Energy =           0.0000000000000000
    PCM Polarization Energy =               0.0000000000000000
    EFP Energy =                            0.0000000000000000
    Total Energy =                       -360.7225315370149019
    Molecular point group: c1
  Basis Set: CC-PVTZ
  Basis Set:

  -Total Gradient:
     Atom            X                  Y                   Z
    ------   -----------------  -----------------  -----------------
       1       -0.000002399193     0.000000791390    -0.000000444594
       2       -0.000020382725     0.000014741979    -0.000000939285
       3        0.000009480741     0.000001298258     0.000014651501
       4        0.000020319929    -0.000011938440     0.000006196414
       5       -0.000002007025     0.000000736365    -0.000001689832
       6        0.000006798223    -0.000004132878    -0.000009388408
       7       -0.000003824053     0.000000538615    -0.000001980931
       8       -0.000021415469     0.000002836685    -0.000009370504
       9       -0.000004371994     0.000004015929    -0.000000300762
      10       -0.000014851734     0.000028378325     0.000054193600
      11        0.000019250932     0.000019312687    -0.000009025112
      12        0.000018900732    -0.000034919133    -0.000049137628
      13        0.000001635847    -0.000012523817     0.000017348352
      14       -0.000004244431     0.000014058788    -0.000004694394
      15       -0.000002889779    -0.000023194756    -0.000005418414

  **** Optimization is complete! (in 5 steps) ****
    Final optimized geometry and variables:
    Molecular point group: c1

    Geometry (in Angstrom), charge = 0, multiplicity = 1:

    H           -1.107770049101     1.763435972546     2.212054867363
    C           -0.837983338850     1.153120477881     1.376174615276
    C           -1.764894033410     0.862192213343     0.324548302293
    C            0.388260331617     0.633264773748     1.280851406157
    H           -2.759172248120     1.265182972663     0.371292533442
    C           -1.401658006378     0.096414983061    -0.708859727677
    H            1.137036857175     0.806158035035     2.028250810803
    N            0.782389903850    -0.149547020104     0.238458895862
    H           -2.067518232484    -0.141897233671    -1.512575291262
    C           -0.063596404235    -0.468845038055    -0.809496597910
    C            2.144468706011    -0.664574641319     0.234367022212
    O            0.299866291636    -1.160667706034    -1.721207822347
    H            2.283372498390    -1.255662450717    -0.651199978491
    H            2.852892506665     0.153738725318     0.235096747996
    H            2.313041089210    -1.281179439439     1.107812063500

  Mulliken Charges: (a.u.)
   Center  Symbol    Alpha    Beta     Spin     Total
       1     H     0.41416  0.41416  0.00000  0.17169
       2     C     3.10190  3.10190  0.00000 -0.20380
       3     C     3.06196  3.06196  0.00000 -0.12392
       4     C     3.03304  3.03304  0.00000 -0.06608
       5     H     0.41832  0.41832  0.00000  0.16335
       6     C     3.11586  3.11586  0.00000 -0.23173
       7     H     0.42020  0.42020  0.00000  0.15960
       8     N     3.51285  3.51285  0.00000 -0.02570
       9     H     0.40887  0.40887  0.00000  0.18227
      10     C     2.84559  2.84559  0.00000  0.30882
      11     C     3.11045  3.11045  0.00000 -0.22089
      12     O     4.23665  4.23665  0.00000 -0.47330
      13     H     0.42053  0.42053  0.00000  0.15895
      14     H     0.44982  0.44982  0.00000  0.10037
      15     H     0.44982  0.44982  0.00000  0.10037

   Total alpha = 29.00000, Total beta = 29.00000, Total charge =  0.00000

*** Psi4 exiting successfully. Buy a developer a beer!
