  ==> Input File <==

--------------------------------------------------------------------------
set {
	reference rhf
	basis 6-31G*
}

set_num_threads( 4 )
memory 2 gb

molecule MOL {
0 1

H	 -1.989531	 0.519185	 -1.002011
N	 -1.852125	 0.165761	 -0.074816
C	 -0.563778	 -0.502042	 0.037919
H	 -2.598769	 -0.478953	 0.103015
C	 0.575259	 0.508231	 -0.048326
H	 -0.482092	 -1.204004	 -0.786564
H	 -0.460411	 -1.085169	 0.956626
C	 1.954651	 -0.143624	 0.035137
H	 0.475158	 1.060484	 -0.977307
H	 0.469181	 1.234488	 0.755973
H	 2.103292	 -0.853109	 -0.774172
H	 2.742821	 0.599562	 -0.030094
H	 2.083613	 -0.679371	 0.971560

	symmetry c1
}
set optking {
	frozen_dihedral = ("
		1 2 3 6
	")
}

ee = optimize('scf')
oeprop('DIPOLE', 'QUADRUPOLE', 'MULLIKEN_CHARGES')
f=open( 'psi4out.xyz', 'w' )
f.write( "13  " )
f.write( str(ee) + "\n" )
f.write( MOL.save_string_xyz() )
f.close()
--------------------------------------------------------------------------

    Molecular point group: c1
  Charge       = 0
  Multiplicity = 1
  Basis Set: 6-31G*
  Basis Set:
  @DF-RHF Final Energy:  -173.28006969593318
    Total Energy =                       -173.2800696959331788
    Molecular point group: c1
  Basis Set: 6-31G*
  Basis Set:
  Basis Set: 6-31G*
  Basis Set:
  @DF-RHF Final Energy:  -173.28199130363879
    Total Energy =                       -173.2819913036387902
  Basis Set: 6-31G*
  Basis Set:
  Basis Set: 6-31G*
  Basis Set:
  @DF-RHF Final Energy:  -173.28229220594008
    Total Energy =                       -173.2822922059401094
  Basis Set: 6-31G*
  Basis Set:
  Basis Set: 6-31G*
  Basis Set:
  @DF-RHF Final Energy:  -173.28229726870870
    Total Energy =                       -173.2822972687087031
  Basis Set: 6-31G*
  Basis Set:
  Basis Set: 6-31G*
  Basis Set:
  @DF-RHF Final Energy:  -173.28230132051891
    Total Energy =                       -173.2823013205189113
  Basis Set: 6-31G*
  Basis Set:
  Charge       = 0
  Multiplicity = 1
  Basis Set: 6-31G*
  Basis Set:

    Orbital Energies (a.u.)
    -----------------------

    Doubly Occupied:

       1A    -15.533292     2A    -11.240348     3A    -11.210685
       4A    -11.208504     5A     -1.176999     6A     -1.034525
       7A     -0.898481     8A     -0.798484     9A     -0.664535
      10A     -0.626017    11A     -0.602424    12A     -0.567275
      13A     -0.528468    14A     -0.490818    15A     -0.477802
      16A     -0.467910    17A     -0.382155

  @DF-RHF Final Energy:  -173.28230147640951

   => Energetics <=

    Nuclear Repulsion Energy =            131.7263941638813378
    One-Electron Energy =                -494.1999507990230995
    Two-Electron Energy =                 189.1912551587322184
    DFT Exchange-Correlation Energy =       0.0000000000000000
    Empirical Dispersion Energy =           0.0000000000000000
    PCM Polarization Energy =               0.0000000000000000
    EFP Energy =                            0.0000000000000000
    Total Energy =                       -173.2823014764095717
    Molecular point group: c1
  Basis Set: 6-31G*
  Basis Set:

  -Total Gradient:
     Atom            X                  Y                   Z
    ------   -----------------  -----------------  -----------------
       1       -0.000476329782    -0.000964169722    -0.000259132257
       2        0.000698766161     0.001407527056     0.000150814017
       3       -0.000647372045    -0.001162257500     0.000733629457
       4       -0.000006952924     0.000003926585    -0.000000680544
       5       -0.000000635245    -0.000022968939    -0.000032753679
       6        0.000427977968     0.000743118726    -0.000601003713
       7        0.000001014099    -0.000007860669     0.000004108204
       8        0.000005344319     0.000007565956     0.000008444866
       9        0.000003264060    -0.000000908608     0.000001086886
      10       -0.000003396222    -0.000005812202     0.000000822849
      11        0.000000395298     0.000002790864    -0.000005319723
      12        0.000003571426    -0.000000741830     0.000006076036
      13       -0.000005647113    -0.000000209716    -0.000006092400

  **** Optimization is complete! (in 6 steps) ****
    Final optimized geometry and variables:
    Molecular point group: c1

    Geometry (in Angstrom), charge = 0, multiplicity = 1:

    H           -2.019251512654     0.515562603314    -0.959883987198
    N           -1.852815424461     0.173532020646    -0.032419856243
    C           -0.563678312622    -0.500729611283     0.037662471863
    H           -2.596509870777    -0.466122169619     0.171377643634
    C            0.576101762598     0.511263685674    -0.022552572757
    H           -0.424402673325    -1.241746203074    -0.753303594007
    H           -0.518590761331    -1.035387328221     0.981447658329
    C            1.955032643554    -0.141414232970     0.062142372934
    H            0.499517492656     1.078102217630    -0.948830201918
    H            0.445622272658     1.223902177621     0.785548700418
    H            2.115152417676    -0.837477112325    -0.756735797821
    H            2.743539065913     0.603090801100     0.019901301029
    H            2.072427410866    -0.692672037762     0.991101547218

  Mulliken Charges: (a.u.)
   Center  Symbol    Alpha    Beta     Spin     Total
       1     H     0.33509  0.33509  0.00000  0.32982
       2     N     3.92103  3.92103  0.00000 -0.84206
       3     C     3.06164  3.06164  0.00000 -0.12328
       4     H     0.33245  0.33245  0.00000  0.33510
       5     C     3.14846  3.14846  0.00000 -0.29692
       6     H     0.43458  0.43458  0.00000  0.13084
       7     H     0.42126  0.42126  0.00000  0.15748
       8     C     3.24420  3.24420  0.00000 -0.48841
       9     H     0.42652  0.42652  0.00000  0.14695
      10     H     0.41299  0.41299  0.00000  0.17402
      11     H     0.42260  0.42260  0.00000  0.15479
      12     H     0.41770  0.41770  0.00000  0.16460
      13     H     0.42147  0.42147  0.00000  0.15706

   Total alpha = 17.00000, Total beta = 17.00000, Total charge =  0.00000
