  ==> Input File <==

--------------------------------------------------------------------------
set {
	reference rhf
	basis 6-31G*
}

set_num_threads( 1 )
memory 2 gb

molecule MOL {
0 1

H	 -0.335457	 -1.826745	 0.507925
C	 -1.356075	 -1.475882	 0.368728
O	 -1.392607	 -0.295399	 -0.366433
H	 -1.910251	 -2.221704	 -0.184246
H	 -1.814973	 -1.351988	 1.348774
C	 -0.719715	 0.768384	 0.229244
C	 0.719720	 0.768376	 -0.229267
H	 -1.185038	 1.714362	 -0.050570
H	 -0.750528	 0.687237	 1.313896
O	 1.392611	 -0.295398	 0.366430
H	 0.750534	 0.687200	 -1.313918
H	 1.185043	 1.714359	 0.050526
C	 2.706965	 -0.449871	 -0.062409
H	 2.756559	 -0.644779	 -1.131878
H	 3.305899	 0.433456	 0.155466
H	 3.125548	 -1.294566	 0.467107

	symmetry c1
}
set optking {
	frozen_dihedral = ("
		3 6 7 11,
		7 10 13 14
	")
}

ee = energy('scf')
oeprop('DIPOLE', 'QUADRUPOLE', 'MULLIKEN_CHARGES')
f=open( 'psi4out.xyz', 'w' )
f.write( "16  " )
f.write( str(ee) + "\n" )
f.write( MOL.save_string_xyz() )
f.close()
--------------------------------------------------------------------------

    Molecular point group: c1

    Geometry (in Angstrom), charge = 0, multiplicity = 1:

       Center              X                  Y                   Z               Mass
    ------------   -----------------  -----------------  -----------------  -----------------
           H         -0.572813693434    -1.646467047934     0.454102522682     1.007825032070
           C         -1.593431693434    -1.295604047934     0.314905522682    12.000000000000
           O         -1.629963693434    -0.115121047934    -0.420255477318    15.994914619560
           H         -2.147607693434    -2.041426047934    -0.238068477318     1.007825032070
           H         -2.052329693434    -1.171710047934     1.294951522682     1.007825032070
           C         -0.957071693434     0.948661952066     0.175421522682    12.000000000000
           C          0.482363306566     0.948653952066    -0.283089477318    12.000000000000
           H         -1.422394693434     1.894639952066    -0.104392477318     1.007825032070
           H         -0.987884693434     0.867514952066     1.260073522682     1.007825032070
           O          1.155254306566    -0.115120047934     0.312607522682    15.994914619560
           H          0.513177306566     0.867477952066    -1.367740477318     1.007825032070
           H          0.947686306566     1.894636952066    -0.003296477318     1.007825032070
           C          2.469608306566    -0.269593047934    -0.116231477318    12.000000000000
           H          2.519202306566    -0.464501047934    -1.185700477318     1.007825032070
           H          3.068542306566     0.613733952066     0.101643522682     1.007825032070
           H          2.888191306566    -1.114288047934     0.413284522682     1.007825032070

  Charge       = 0
  Multiplicity = 1
  Basis Set: 6-31G*
  Basis Set:

    Orbital Energies (a.u.)
    -----------------------

    Doubly Occupied:

       1A    -20.561657     2A    -20.548703     3A    -11.269478
       4A    -11.268017     5A    -11.267307     6A    -11.250690
       7A     -1.393759     8A     -1.369604     9A     -1.028433
      10A     -0.941826    11A     -0.887739    12A     -0.823508
      13A     -0.690413    14A     -0.681122    15A     -0.658848
      16A     -0.631580    17A     -0.624071    18A     -0.596464
      19A     -0.550657    20A     -0.529104    21A     -0.518605
      22A     -0.483056    23A     -0.465131    24A     -0.424736
      25A     -0.397849

  @DF-RHF Final Energy:  -306.97514267041976

   => Energetics <=

    Nuclear Repulsion Energy =            266.1867421902471165
    One-Electron Energy =                -946.5989978073369002
    Two-Electron Energy =                 373.4371129466694583
    DFT Exchange-Correlation Energy =       0.0000000000000000
    Empirical Dispersion Energy =           0.0000000000000000
    PCM Polarization Energy =               0.0000000000000000
    EFP Energy =                            0.0000000000000000
    Total Energy =                       -306.9751426704203823

  Mulliken Charges: (a.u.)
   Center  Symbol    Alpha    Beta     Spin     Total
       1     H     0.40955  0.40955  0.00000  0.18091
       2     C     3.08724  3.08724  0.00000 -0.17448
       3     O     4.30431  4.30431  0.00000 -0.60862
       4     H     0.41753  0.41753  0.00000  0.16494
       5     H     0.43288  0.43288  0.00000  0.13423
       6     C     3.00662  3.00662  0.00000 -0.01325
       7     C     2.99232  2.99232  0.00000  0.01537
       8     H     0.41595  0.41595  0.00000  0.16811
       9     H     0.42235  0.42235  0.00000  0.15529
      10     O     4.30547  4.30547  0.00000 -0.61095
      11     H     0.42281  0.42281  0.00000  0.15438
      12     H     0.43476  0.43476  0.00000  0.13049
      13     C     3.08035  3.08035  0.00000 -0.16071
      14     H     0.42695  0.42695  0.00000  0.14610
      15     H     0.42916  0.42916  0.00000  0.14168
      16     H     0.41174  0.41174  0.00000  0.17651

   Total alpha = 25.00000, Total beta = 25.00000, Total charge =  0.00000
