  ==> Input File <==

--------------------------------------------------------------------------
set {
	reference rhf
	basis cc-pvtz
}

set_num_threads( 4 )
memory 2 gb

molecule MOL {
0 1

H	 -3.162190	 0.493205	 -0.000107
C	 -2.363908	 -0.234727	 0.000005
O	 -1.158738	 0.454634	 -0.000087
H	 -2.464314	 -0.863616	 -0.882153
H	 -2.464327	 -0.863359	 0.882345
C	 -0.028611	 -0.359694	 0.000037
C	 1.212847	 0.509314	 -0.000053
H	 -0.034155	 -1.007047	 -0.877198
H	 -0.034195	 -1.006836	 0.877430
C	 2.007488	 0.389395	 -1.295629
H	 0.913623	 1.539145	 0.160689
H	 1.831489	 0.227913	 0.844960
H	 1.413994	 0.689798	 -2.152722
H	 2.887725	 1.019850	 -1.268631
H	 2.338245	 -0.630120	 -1.463726

	symmetry c1
}
set optking {
	frozen_dihedral = ("
		11 7 6 8
	")
}

ee = optimize('scf')
oeprop('DIPOLE', 'QUADRUPOLE', 'MULLIKEN_CHARGES')
f=open( 'psi4out.xyz', 'w' )
f.write( "15  " )
f.write( str(ee) + "\n" )
f.write( MOL.save_string_xyz() )
f.close()
--------------------------------------------------------------------------

    Molecular point group: c1
  Charge       = 0
  Multiplicity = 1
  Basis Set: CC-PVTZ
  Basis Set:
  @DF-RHF Final Energy:  -232.22220184225137
    Total Energy =                       -232.2222018422512519
    Molecular point group: c1
  Basis Set: CC-PVTZ
  Basis Set:
  Basis Set: CC-PVTZ
  Basis Set:
  @DF-RHF Final Energy:  -232.22261477225598
    Total Energy =                       -232.2226147722561791
  Basis Set: CC-PVTZ
  Basis Set:
  Basis Set: CC-PVTZ
  Basis Set:
  @DF-RHF Final Energy:  -232.22273488980713
    Total Energy =                       -232.2227348898072137
  Basis Set: CC-PVTZ
  Basis Set:
  Basis Set: CC-PVTZ
  Basis Set:
  @DF-RHF Final Energy:  -232.22273765813102
    Total Energy =                       -232.2227376581309954
  Basis Set: CC-PVTZ
  Basis Set:
  Charge       = 0
  Multiplicity = 1
  Basis Set: CC-PVTZ
  Basis Set:

    Orbital Energies (a.u.)
    -----------------------

    Doubly Occupied:

       1A    -20.547417     2A    -11.264790     3A    -11.261344
       4A    -11.212640     5A    -11.207788     6A     -1.380749
       7A     -1.054207     8A     -0.954122     9A     -0.879601
      10A     -0.808109    11A     -0.671418    12A     -0.660295
      13A     -0.632994    14A     -0.590943    15A     -0.576232
      16A     -0.546093    17A     -0.491265    18A     -0.489436
      19A     -0.482531    20A     -0.462254    21A     -0.414216

  @DF-RHF Final Energy:  -232.22273793563139

   => Energetics <=

    Nuclear Repulsion Energy =            190.6892093242085764
    One-Electron Energy =                -692.6470139014636516
    Two-Electron Energy =                 269.7350666416235754
    DFT Exchange-Correlation Energy =       0.0000000000000000
    Empirical Dispersion Energy =           0.0000000000000000
    PCM Polarization Energy =               0.0000000000000000
    EFP Energy =                            0.0000000000000000
    Total Energy =                       -232.2227379356314714
    Molecular point group: c1
  Basis Set: CC-PVTZ
  Basis Set:

  -Total Gradient:
     Atom            X                  Y                   Z
    ------   -----------------  -----------------  -----------------
       1        0.000014944743     0.000006138067     0.000001046705
       2       -0.000013827024    -0.000024411279    -0.000001530134
       3        0.000028614500    -0.000015242507    -0.000001194800
       4       -0.000002622770     0.000002045942    -0.000002202675
       5       -0.000002797154     0.000002403232     0.000002479286
       6        0.001232052027    -0.001815188213     0.000950538649
       7        0.000021301490     0.000083049568     0.002253435802
       8       -0.001051135095     0.001512306640    -0.001107899258
       9        0.000005961751     0.000007333629    -0.000001237732
      10       -0.000016471975     0.000002940144     0.000007949941
      11       -0.000206462236     0.000258862434    -0.002098886507
      12       -0.000014870436    -0.000021042871    -0.000008574050
      13        0.000003842544    -0.000010016792     0.000001628240
      14        0.000002653561     0.000004504856     0.000000652310
      15       -0.000001183926     0.000006317149     0.000003794222

  **** Optimization is complete! (in 5 steps) ****
    Final optimized geometry and variables:
    Molecular point group: c1

    Geometry (in Angstrom), charge = 0, multiplicity = 1:

    H           -3.063619638159     0.363961815678     0.232403098507
    C           -2.269532056085    -0.368593497123     0.248484038175
    O           -1.060673886573     0.313147269008     0.261905068761
    H           -2.361513787455    -1.002890011248    -0.630932282101
    H           -2.386908801269    -0.991514143849     1.133035302828
    C            0.065445739529    -0.514259085118     0.285987545896
    C            1.328078563429     0.352030143882     0.267107488467
    H            0.040252163855    -1.169309039414    -0.583538500035
    H            0.035493908859    -1.144036141518     1.172660365402
    C            2.107203439957     0.261811001905    -1.042189623970
    H            1.017317258106     1.376711761049     0.424304853536
    H            1.975740343618     0.081337694898     1.093057951690
    H            1.485317142679     0.551957900254    -1.882099618315
    H            2.971933000560     0.915130854813    -1.027111919645
    H            2.460016582006    -0.748152007373    -1.223494137541

  Mulliken Charges: (a.u.)
   Center  Symbol    Alpha    Beta     Spin     Total
       1     H     0.44718  0.44718  0.00000  0.10565
       2     C     3.02960  3.02960  0.00000 -0.05920
       3     O     4.17300  4.17300  0.00000 -0.34600
       4     H     0.47308  0.47308  0.00000  0.05385
       5     H     0.47237  0.47237  0.00000  0.05527
       6     C     2.96452  2.96452  0.00000  0.07097
       7     C     3.08581  3.08581  0.00000 -0.17161
       8     H     0.47536  0.47536  0.00000  0.04927
       9     H     0.47121  0.47121  0.00000  0.05758
      10     C     3.15107  3.15107  0.00000 -0.30213
      11     H     0.44581  0.44581  0.00000  0.10838
      12     H     0.45244  0.45244  0.00000  0.09511
      13     H     0.45163  0.45163  0.00000  0.09675
      14     H     0.44965  0.44965  0.00000  0.10070
      15     H     0.45728  0.45728  0.00000  0.08543

   Total alpha = 21.00000, Total beta = 21.00000, Total charge =  0.00000
