                              Psi4 1.0.54 Driver

  ==> Input File <==

--------------------------------------------------------------------------
set {
	reference rhf
	basis cc-pvtz
}

set_num_threads( 4 )
memory 2 gb

molecule MOL {
0 1

O	 -1.800304	 0.955459	 0.614327
C	 -1.081510	 0.147522	 0.122720
C	 0.327029	 -0.064006	 0.641890
C	 -1.521598	 -0.694709	 -1.050839
C	 1.349460	 -0.017068	 -0.500215
H	 0.399029	 -1.014606	 1.159950
H	 0.538021	 0.726928	 1.350471
C	 2.779782	 -0.209014	 -0.009215
H	 1.115007	 -0.782959	 -1.233891
H	 1.259071	 0.936707	 -1.006644
H	 3.481860	 -0.160270	 -0.833072
H	 2.903471	 -1.171535	 0.475559
H	 3.052569	 0.559584	 0.705428
H	 -0.784449	 -0.659085	 -1.845256
H	 -2.477137	 -0.352016	 -1.416905
H	 -1.603891	 -1.730182	 -0.736396

	symmetry c1
}
set optking {
	frozen_dihedral = ("
		4 2 3 5
	")
}

ee,wfn = optimize('scf', return_wfn=True)
oeprop( wfn, 'DIPOLE', 'QUADRUPOLE', 'MULLIKEN_CHARGES')
f=open( 'psi4out.xyz', 'w' )
f.write( "16  " )
f.write( str(ee) + "\n" )
f.write( MOL.save_string_xyz() )
f.close()
--------------------------------------------------------------------------

    Molecular point group: c1
  Charge       = 0
  Multiplicity = 1
  Basis Set: CC-PVTZ
  Basis Set:
  @DF-RHF Final Energy:  -270.12603148636151
    Total Energy =                       -270.1260314863612848
    Molecular point group: c1
  Basis Set: CC-PVTZ
  Basis Set:
  Basis Set: CC-PVTZ
  Basis Set:
  @DF-RHF Final Energy:  -270.12554536707160
    Total Energy =                       -270.1255453670715383
  Basis Set: CC-PVTZ
  Basis Set:
  Basis Set: CC-PVTZ
  Basis Set:
  @DF-RHF Final Energy:  -270.12825243191412
    Total Energy =                       -270.1282524319140634
  Basis Set: CC-PVTZ
  Basis Set:
  Basis Set: CC-PVTZ
  Basis Set:
  @DF-RHF Final Energy:  -270.12773340714853
    Total Energy =                       -270.1277334071484120
  Basis Set: CC-PVTZ
  Basis Set:
  @DF-RHF Final Energy:  -270.12858227599600
    Total Energy =                       -270.1285822759958819
  @DF-RHF Final Energy:  -270.12867849339938
    Total Energy =                       -270.1286784933994909
  Basis Set: CC-PVTZ
  Basis Set:
  @DF-RHF Final Energy:  -270.12875760671722
    Total Energy =                       -270.1287576067172722
  Basis Set: CC-PVTZ
  Basis Set:
  Basis Set: CC-PVTZ
  Basis Set:
  @DF-RHF Final Energy:  -270.12878347396975
    Total Energy =                       -270.1287834739694063
  Basis Set: CC-PVTZ
  Basis Set:
  Basis Set: CC-PVTZ
  Basis Set:
  @DF-RHF Final Energy:  -270.12878878482024
    Total Energy =                       -270.1287887848203013
  Basis Set: CC-PVTZ
  Basis Set:
  Charge       = 0
  Multiplicity = 1
  Basis Set: CC-PVTZ
  Basis Set:

    Orbital Energies (a.u.)
    -----------------------

    Doubly Occupied:

       1A    -20.537441     2A    -11.319993     3A    -11.233541
       4A    -11.229308     5A    -11.226702     6A    -11.219476
       7A     -1.397333     8A     -1.086780     9A     -1.011311
      10A     -0.952402    11A     -0.834450    12A     -0.735718
      13A     -0.660000    14A     -0.652998    15A     -0.622703
      16A     -0.605570    17A     -0.578405    18A     -0.553409
      19A     -0.536933    20A     -0.522348    21A     -0.507086
      22A     -0.487876    23A     -0.477348    24A     -0.400869

  @DF-RHF Final Energy:  -270.12878928698865

   => Energetics <=

    Nuclear Repulsion Energy =            237.3838324309309655
    One-Electron Energy =                -836.2452437284659936
    Two-Electron Energy =                 328.7326220105465495
    DFT Exchange-Correlation Energy =       0.0000000000000000
    Empirical Dispersion Energy =           0.0000000000000000
    PCM Polarization Energy =               0.0000000000000000
    EFP Energy =                            0.0000000000000000
    Total Energy =                       -270.1287892869884786
    Molecular point group: c1
  Basis Set: CC-PVTZ
  Basis Set:

  -Total Gradient:
     Atom            X                  Y                   Z
    ------   -----------------  -----------------  -----------------
       1        0.000004858033    -0.000006630409    -0.000011378828
       2       -0.000352270665    -0.000869302163     0.000450816961
       3        0.000218075670     0.000972274505     0.000009633820
       4        0.000201396749     0.000411098279    -0.000343071838
       5       -0.000057578649    -0.000571641389    -0.000126983322
       6       -0.000006716788     0.000012639278    -0.000005981340
       7       -0.000001199918     0.000007881187     0.000004883427
       8       -0.000001298869     0.000011158155     0.000009295435
       9       -0.000003717133     0.000003261865    -0.000002095057
      10        0.000000379155     0.000001881111     0.000004565065
      11        0.000003244614     0.000003692517    -0.000002999383
      12       -0.000000993063    -0.000000183430    -0.000004213191
      13        0.000004822543    -0.000004425694     0.000007987115
      14       -0.000009382273    -0.000000201974     0.000008517601
      15        0.000007873150    -0.000000343025    -0.000007145339
      16       -0.000007492561     0.000028841189     0.000008168874

  **** Optimization is complete! (in 10 steps) ****
    Final optimized geometry and variables:
    Molecular point group: c1

    Geometry (in Angstrom), charge = 0, multiplicity = 1:

    O           -1.845241387993     0.855681790228     0.683657604526
    C           -1.112621071915     0.113337838607     0.114703928763
    C            0.293967344398    -0.137115597306     0.621880591186
    C           -1.559889375925    -0.616792835766    -1.131936977640
    C            1.397078885015    -0.009325021129    -0.431194515261
    H            0.310806376023    -1.143523476704     1.035841891956
    H            0.463621881007     0.551109732899     1.438832052633
    C            2.786348355858    -0.199068963324     0.168278407749
    H            1.246483331783    -0.738156530581    -1.219790961754
    H            1.337898184923     0.969524432093    -0.897930514776
    H            3.553577264133    -0.102527440331    -0.590618747824
    H            2.886547702456    -1.180735406832     0.618877200344
    H            2.984302686577     0.539358698627     0.937034627047
    H           -1.083313344749    -0.177519751195    -2.001196712925
    H           -2.630335371117    -0.527437407713    -1.234938180977
    H           -1.274715043221    -1.661908014451    -1.098361921910

  Mulliken Charges: (a.u.)
   Center  Symbol    Alpha    Beta     Spin     Total
       1     O     4.17176  4.17176  0.00000 -0.34352
       2     C     2.85797  2.85797  0.00000  0.28406
       3     C     3.09696  3.09696  0.00000 -0.19391
       4     C     3.16438  3.16438  0.00000 -0.32876
       5     C     3.09686  3.09686  0.00000 -0.19373
       6     H     0.44867  0.44867  0.00000  0.10267
       7     H     0.43823  0.43823  0.00000  0.12355
       8     C     3.14897  3.14897  0.00000 -0.29795
       9     H     0.45076  0.45076  0.00000  0.09848
      10     H     0.44648  0.44648  0.00000  0.10705
      11     H     0.44612  0.44612  0.00000  0.10777
      12     H     0.45431  0.45431  0.00000  0.09137
      13     H     0.45069  0.45069  0.00000  0.09862
      14     H     0.44695  0.44695  0.00000  0.10610
      15     H     0.43212  0.43212  0.00000  0.13576
      16     H     0.44878  0.44878  0.00000  0.10245

   Total alpha = 24.00000, Total beta = 24.00000, Total charge = -0.00000

*** Psi4 exiting successfully. Buy a developer a beer!
