                              Psi4 1.0.54 Driver

  ==> Input File <==

--------------------------------------------------------------------------
set {
	reference rhf
	basis cc-pvtz
}

set_num_threads( 4 )
memory 2 gb

molecule MOL {
0 1

H	 2.867672	 -0.456275	 0.875795
C	 2.403497	 -0.020426	 0.000000
N	 0.989899	 -0.304564	 0.000000
H	 2.867672	 -0.456275	 -0.875795
H	 2.620366	 1.051270	 0.000000
C	 0.357164	 0.035172	 1.257693
C	 0.701263	 -1.676734	 -0.362501
H	 0.781600	 -0.539510	 2.086752
H	 0.522864	 1.085437	 1.467966
C	 -1.133556	 -0.232892	 1.179339
H	 1.119440	 -1.882551	 -1.341017
H	 1.151580	 -2.380177	 0.344696
C	 -0.798298	 -1.900812	 -0.399226
H	 -1.599379	 -0.069625	 2.141097
H	 -1.587064	 0.443017	 0.457136
O	 -1.389789	 -1.557853	 0.818831
H	 -1.021785	 -2.943183	 -0.578514
H	 -1.234458	 -1.311214	 -1.203115

	symmetry c1
}
set optking {
	frozen_dihedral = ("
		6 3 2 5
	")
}

ee,wfn = optimize('scf', return_wfn=True)
oeprop( wfn, 'DIPOLE', 'QUADRUPOLE', 'MULLIKEN_CHARGES')
f=open( 'psi4out.xyz', 'w' )
f.write( "18  " )
f.write( str(ee) + "\n" )
f.write( MOL.save_string_xyz() )
f.close()
--------------------------------------------------------------------------

    Molecular point group: c1
  Charge       = 0
  Multiplicity = 1
  Basis Set: CC-PVTZ
  Basis Set:
  @DF-RHF Final Energy:  -325.14451218165999
    Total Energy =                       -325.1445121816598203
    Molecular point group: c1
  Basis Set: CC-PVTZ
  Basis Set:
  Basis Set: CC-PVTZ
  Basis Set:
  @DF-RHF Final Energy:  -325.14521117021309
    Total Energy =                       -325.1452111702129741
  Basis Set: CC-PVTZ
  Basis Set:
  Basis Set: CC-PVTZ
  Basis Set:
  @DF-RHF Final Energy:  -325.14528662181505
    Total Energy =                       -325.1452866218153304
  Basis Set: CC-PVTZ
  Basis Set:
  Charge       = 0
  Multiplicity = 1
  Basis Set: CC-PVTZ
  Basis Set:

    Orbital Energies (a.u.)
    -----------------------

    Doubly Occupied:

       1A    -20.547585     2A    -15.544975     3A    -11.264375
       4A    -11.264346     5A    -11.242572     6A    -11.242458
       7A    -11.239100     8A     -1.386561     9A     -1.234166
      10A     -1.039015    11A     -0.982123    12A     -0.883790
      13A     -0.869639    14A     -0.775044    15A     -0.685164
      16A     -0.646482    17A     -0.645157    18A     -0.634588
      19A     -0.631734    20A     -0.574413    21A     -0.556600
      22A     -0.542155    23A     -0.526653    24A     -0.501602
      25A     -0.484227    26A     -0.453972    27A     -0.410694
      28A     -0.357132

  @DF-RHF Final Energy:  -325.14528729717239

   => Energetics <=

    Nuclear Repulsion Energy =            341.9624072966087738
    One-Electron Energy =               -1119.8827440872194074
    Two-Electron Energy =                 452.7750494934384164
    DFT Exchange-Correlation Energy =       0.0000000000000000
    Empirical Dispersion Energy =           0.0000000000000000
    PCM Polarization Energy =               0.0000000000000000
    EFP Energy =                            0.0000000000000000
    Total Energy =                       -325.1452872971722741
    Molecular point group: c1
  Basis Set: CC-PVTZ
  Basis Set:

  -Total Gradient:
     Atom            X                  Y                   Z
    ------   -----------------  -----------------  -----------------
       1        0.000017411266    -0.000009007604     0.000022284295
       2        0.000081097003    -0.000721055421     0.003607028423
       3       -0.000494070009     0.002488882344    -0.001541467593
       4       -0.000016862317    -0.000003900927    -0.000000798738
       5       -0.000022470545     0.000005312919    -0.002675902500
       6        0.000407873578    -0.001808658306     0.000590521531
       7        0.000049001750     0.000040659185    -0.000067299059
       8        0.000004852270    -0.000008314655    -0.000006711348
       9       -0.000007423262     0.000014919344     0.000039304148
      10       -0.000016626804    -0.000002908083    -0.000003256629
      11        0.000009267438    -0.000028397576    -0.000010779041
      12       -0.000005025122     0.000007093898     0.000006943086
      13        0.000004182734     0.000043891803    -0.000004269730
      14       -0.000003019187    -0.000013624333    -0.000002980189
      15        0.000001324940     0.000008177272     0.000002372256
      16       -0.000022084886    -0.000016240791     0.000047792275
      17        0.000011895116     0.000008026722     0.000008786622
      18        0.000000676040    -0.000004855791    -0.000011567810

  **** Optimization is complete! (in 4 steps) ****
    Final optimized geometry and variables:
    Molecular point group: c1

    Geometry (in Angstrom), charge = 0, multiplicity = 1:

    H            2.763839606535     0.347982528489     0.465958452351
    C            2.238701483881     0.787981487767    -0.384871575395
    N            0.822872259945     0.507584283795    -0.380185785935
    H            2.684346527682     0.395954469918    -1.290542091931
    H            2.406348999540     1.858296562105    -0.383984174673
    C            0.205056071426     0.850905542149     0.884725604862
    C            0.529572513825    -0.870684427394    -0.720776393011
    H            0.638525044377     0.273944856818     1.707141123633
    H            0.378331166375     1.900596906285     1.094235868356
    C           -1.287526207428     0.588801143941     0.826367021982
    H            0.936999323701    -1.090980635986    -1.700487542197
    H            0.984047006112    -1.566019587597    -0.008239963482
    C           -0.970912594325    -1.092126308587    -0.741717652718
    H           -1.740474839698     0.759855179695     1.792998798138
    H           -1.747441891882     1.262303467546     0.105919767456
    O           -1.552576677002    -0.737437620899     0.477610826647
    H           -1.197359641828    -2.135716474413    -0.910294435985
    H           -1.412006013688    -0.508951188633    -1.547722540265

  Mulliken Charges: (a.u.)
   Center  Symbol    Alpha    Beta     Spin     Total
       1     H     0.46853  0.46853  0.00000  0.06294
       2     C     3.09500  3.09500  0.00000 -0.18999
       3     N     3.61774  3.61774  0.00000 -0.23549
       4     H     0.45302  0.45302  0.00000  0.09397
       5     H     0.45014  0.45014  0.00000  0.09971
       6     C     3.04186  3.04186  0.00000 -0.08373
       7     C     3.04027  3.04027  0.00000 -0.08054
       8     H     0.46794  0.46794  0.00000  0.06412
       9     H     0.45407  0.45407  0.00000  0.09186
      10     C     2.98341  2.98341  0.00000  0.03318
      11     H     0.45379  0.45379  0.00000  0.09241
      12     H     0.46939  0.46939  0.00000  0.06123
      13     C     2.98384  2.98384  0.00000  0.03233
      14     H     0.44980  0.44980  0.00000  0.10041
      15     H     0.46744  0.46744  0.00000  0.06511
      16     O     4.18647  4.18647  0.00000 -0.37294
      17     H     0.44974  0.44974  0.00000  0.10053
      18     H     0.46755  0.46755  0.00000  0.06490

   Total alpha = 28.00000, Total beta = 28.00000, Total charge =  0.00000

*** Psi4 exiting successfully. Buy a developer a beer!
