  ==> Input File <==

--------------------------------------------------------------------------
set {
	reference rhf
	basis 6-31G*
}

set_num_threads( 4 )
memory 2 gb

molecule MOL {
0 1

O	 -0.291628	 1.323815	 -0.000732
C	 -0.449655	 0.146360	 0.000961
C	 -1.783294	 -0.549321	 -0.000296
O	 0.550821	 -0.724572	 0.000672
H	 -1.863538	 -1.185371	 -0.874187
H	 -2.574672	 0.185258	 -0.002793
H	 -1.866414	 -1.182381	 0.875436
C	 1.320072	 -0.818728	 1.186281
H	 1.785932	 0.129461	 1.412708
H	 2.071463	 -1.567857	 0.991434
H	 0.699343	 -1.117853	 2.018485

	symmetry c1
}
set optking {
	frozen_dihedral = ("
		8 4 2 1
	")
}

ee = optimize('scf')
oeprop('DIPOLE', 'QUADRUPOLE', 'MULLIKEN_CHARGES')
f=open( 'psi4out.xyz', 'w' )
f.write( "11  " )
f.write( str(ee) + "\n" )
f.write( MOL.save_string_xyz() )
f.close()
--------------------------------------------------------------------------

    Molecular point group: c1
  Charge       = 0
  Multiplicity = 1
  Basis Set: 6-31G*
  Basis Set:
  @DF-RHF Final Energy:  -266.81826574403055
    Total Energy =                       -266.8182657440306116
    Molecular point group: c1
  Basis Set: 6-31G*
  Basis Set:
  Basis Set: 6-31G*
  Basis Set:
  @DF-RHF Final Energy:  -266.81632538161148
    Total Energy =                       -266.8163253816114775
  Basis Set: 6-31G*
  Basis Set:
  Basis Set: 6-31G*
  Basis Set:
  @DF-RHF Final Energy:  -266.81921856336027
    Total Energy =                       -266.8192185633600388
  Basis Set: 6-31G*
  Basis Set:
  Basis Set: 6-31G*
  Basis Set:
  @DF-RHF Final Energy:  -266.81937232593737
    Total Energy =                       -266.8193723259371950
  Basis Set: 6-31G*
  Basis Set:
  Basis Set: 6-31G*
  Basis Set:
  @DF-RHF Final Energy:  -266.81937711290686
    Total Energy =                       -266.8193771129069773
  Basis Set: 6-31G*
  Basis Set:
  Charge       = 0
  Multiplicity = 1
  Basis Set: 6-31G*
  Basis Set:

    Orbital Energies (a.u.)
    -----------------------

    Doubly Occupied:

       1A    -20.589141     2A    -20.557157     3A    -11.379113
       4A    -11.290550     5A    -11.237465     6A     -1.461769
       7A     -1.368016     8A     -1.029293     9A     -0.959494
      10A     -0.777799    11A     -0.694755    12A     -0.681746
      13A     -0.669329    14A     -0.608494    15A     -0.592637
      16A     -0.573780    17A     -0.538017    18A     -0.501229
      19A     -0.457099    20A     -0.441505

  @DF-RHF Final Energy:  -266.81937770020573

   => Energetics <=

    Nuclear Repulsion Energy =            182.3417897633932512
    One-Electron Energy =                -725.5055586909325029
    Two-Electron Energy =                 276.3443912273334035
    DFT Exchange-Correlation Energy =       0.0000000000000000
    Empirical Dispersion Energy =           0.0000000000000000
    PCM Polarization Energy =               0.0000000000000000
    EFP Energy =                            0.0000000000000000
    Total Energy =                       -266.8193777002057914
    Molecular point group: c1
  Basis Set: 6-31G*
  Basis Set:

  -Total Gradient:
     Atom            X                  Y                   Z
    ------   -----------------  -----------------  -----------------
       1       -0.000260123266    -0.000249040921    -0.007131592503
       2       -0.001174360886    -0.001575792777     0.011500530296
       3        0.000009274363     0.000008618107     0.000004490694
       4        0.004875650437     0.005701915551    -0.006600366252
       5        0.000002018522     0.000006955622     0.000013643304
       6       -0.000018764323     0.000006829721    -0.000000552989
       7        0.000007394363     0.000006914742    -0.000011562515
       8       -0.003470634315    -0.003897045124     0.002241808073
       9        0.000013240363    -0.000012462998    -0.000005550210
      10        0.000000804687     0.000006988436    -0.000009351799
      11        0.000015500053    -0.000003880364    -0.000001496098

  **** Optimization is complete! (in 6 steps) ****
    Final optimized geometry and variables:
    Molecular point group: c1

    Geometry (in Angstrom), charge = 0, multiplicity = 1:

    O           -0.164220814868     1.442251323188    -0.275898961093
    C           -0.348081852067     0.275402205144    -0.227802002183
    C           -1.698859943437    -0.384203079389    -0.267153990349
    O            0.664144602799    -0.617625671377    -0.230125819791
    H           -1.754315906610    -1.031521549054    -1.135193635589
    H           -2.478304807659     0.362107610890    -0.309604331877
    H           -1.829033161233    -1.009165007566     0.610142746944
    C            1.466881940660    -0.672837114871     0.932202475746
    H            1.884419139826     0.299355000441     1.157015894382
    H            2.261280161020    -1.372390982213     0.724202624578
    H            0.888474592352    -1.028962953772     1.778198219144

  Mulliken Charges: (a.u.)
   Center  Symbol    Alpha    Beta     Spin     Total
       1     O     4.25462  4.25462  0.00000 -0.50924
       2     C     2.62712  2.62712  0.00000  0.74575
       3     C     3.28444  3.28444  0.00000 -0.56887
       4     O     4.30945  4.30945  0.00000 -0.61891
       5     H     0.39702  0.39702  0.00000  0.20596
       6     H     0.39726  0.39726  0.00000  0.20548
       7     H     0.40604  0.40604  0.00000  0.18793
       8     C     3.09341  3.09341  0.00000 -0.18682
       9     H     0.40536  0.40536  0.00000  0.18927
      10     H     0.40381  0.40381  0.00000  0.19238
      11     H     0.42147  0.42147  0.00000  0.15706

   Total alpha = 20.00000, Total beta = 20.00000, Total charge = -0.00000
