  ==> Input File <==

--------------------------------------------------------------------------
set {
	reference rhf
	basis cc-pvtz
}

set_num_threads( 4 )
memory 2 gb

molecule MOL {
0 1

H	 1.994225	 -0.187144	 0.458134
C	 1.155977	 -0.206113	 -0.222814
O	 -0.000000	 0.000000	 0.518769
H	 1.294228	 0.572550	 -0.970093
H	 1.138126	 -1.168861	 -0.729423
C	 -1.165153	 0.000000	 -0.236961
H	 -1.229451	 0.882440	 -0.870223
H	 -2.002557	 0.000000	 0.445289
H	 -1.229451	 -0.882440	 -0.870223

	symmetry c1
}
set optking {
	frozen_dihedral = ("
		2 3 6 7
	")
}

ee = optimize('scf')
oeprop('DIPOLE', 'QUADRUPOLE', 'MULLIKEN_CHARGES')
f=open( 'psi4out.xyz', 'w' )
f.write( "9  " )
f.write( str(ee) + "\n" )
f.write( MOL.save_string_xyz() )
f.close()
--------------------------------------------------------------------------

    Molecular point group: c1
  Charge       = 0
  Multiplicity = 1
  Basis Set: CC-PVTZ
  Basis Set:
  @DF-RHF Final Energy:  -154.12697195791100
    Total Energy =                       -154.1269719579109960
    Molecular point group: c1
  Basis Set: CC-PVTZ
  Basis Set:
  Basis Set: CC-PVTZ
  Basis Set:
  @DF-RHF Final Energy:  -154.12698138317296
    Total Energy =                       -154.1269813831729891
  Basis Set: CC-PVTZ
  Basis Set:
  Charge       = 0
  Multiplicity = 1
  Basis Set: CC-PVTZ
  Basis Set:

    Orbital Energies (a.u.)
    -----------------------

    Doubly Occupied:

       1A    -20.550235     2A    -11.263257     3A    -11.263168
       4A     -1.382568     5A     -0.975935     6A     -0.872635
       7A     -0.664091     8A     -0.655577     9A     -0.646907
      10A     -0.552392    11A     -0.529408    12A     -0.476739
      13A     -0.420255

  @DF-RHF Final Energy:  -154.12698207823286

   => Energetics <=

    Nuclear Repulsion Energy =             84.8390262601223100
    One-Electron Energy =                -377.4256840351168876
    Two-Electron Energy =                 138.4596756967617921
    DFT Exchange-Correlation Energy =       0.0000000000000000
    Empirical Dispersion Energy =           0.0000000000000000
    PCM Polarization Energy =               0.0000000000000000
    EFP Energy =                            0.0000000000000000
    Total Energy =                       -154.1269820782327997
    Molecular point group: c1
  Basis Set: CC-PVTZ
  Basis Set:

  -Total Gradient:
     Atom            X                  Y                   Z
    ------   -----------------  -----------------  -----------------
       1       -0.000007117801     0.000009187448     0.000011415042
       2       -0.000092160500    -0.001090048269     0.000115784177
       3       -0.000061258760     0.001675001775     0.000072185530
       4       -0.000000207677     0.000005759645     0.000006752260
       5        0.000015551091    -0.000002959627    -0.000005529467
       6        0.000774661229    -0.001248451919    -0.001198678248
       7       -0.000647651849     0.000667423795     0.000989802870
       8       -0.000001277076     0.000003951572    -0.000006349824
       9        0.000019461342    -0.000019864420     0.000014617661

  **** Optimization is complete! (in 3 steps) ****
    Final optimized geometry and variables:
    Molecular point group: c1

    Geometry (in Angstrom), charge = 0, multiplicity = 1:

    H            1.997983821534    -0.110791043153     0.455408200439
    C            1.160585469666    -0.133490341670    -0.226804134819
    O            0.002707981264     0.067987588839     0.513246646006
    H            1.298408284132     0.645071038552    -0.974695202462
    H            1.146385321844    -1.096523526285    -0.732741380528
    C           -1.162711687905     0.071404710965    -0.242598168724
    H           -1.227024219113     0.957342193649    -0.871081831036
    H           -1.999847969547     0.076405642345     0.440786992752
    H           -1.233566350331    -0.811273708839    -0.874180693179

  Mulliken Charges: (a.u.)
   Center  Symbol    Alpha    Beta     Spin     Total
       1     H     0.44844  0.44844  0.00000  0.10312
       2     C     3.02187  3.02187  0.00000 -0.04374
       3     O     4.16750  4.16750  0.00000 -0.33501
       4     H     0.47363  0.47363  0.00000  0.05275
       5     H     0.47246  0.47246  0.00000  0.05508
       6     C     3.02168  3.02168  0.00000 -0.04336
       7     H     0.47114  0.47114  0.00000  0.05773
       8     H     0.44884  0.44884  0.00000  0.10232
       9     H     0.47444  0.47444  0.00000  0.05111

   Total alpha = 13.00000, Total beta = 13.00000, Total charge = -0.00000
