                              Psi4 1.0.54 Driver

  ==> Input File <==

--------------------------------------------------------------------------
set {
	reference rhf
	basis cc-pvtz
}

set_num_threads( 4 )
memory 2 gb

molecule MOL {
0 1

H	 2.798970	 0.465119	 2.223047
O	 1.879946	 0.303174	 2.335266
C	 1.217532	 0.409360	 1.166763
C	 1.858962	 0.720602	 -0.022513
C	 -0.145769	 0.196585	 1.179336
H	 2.921034	 0.886039	 -0.030492
C	 1.136941	 0.818246	 -1.194736
H	 -0.644069	 -0.043954	 2.096223
C	 -0.861704	 0.296439	 0.000000
H	 1.643900	 1.059624	 -2.108822
C	 -0.227142	 0.606875	 -1.190707
C	 -2.330689	 0.069587	 0.000000
H	 -0.791236	 0.682116	 -2.100666
O	 -2.848621	 -0.993976	 0.000000
H	 -2.934306	 0.982410	 0.000000

	symmetry c1
}
set optking {
	frozen_dihedral = ("
		11 9 12 14
	")
}

ee,wfn = optimize('scf', return_wfn=True)
oeprop( wfn, 'DIPOLE', 'QUADRUPOLE', 'MULLIKEN_CHARGES')
f=open( 'psi4out.xyz', 'w' )
f.write( "15  " )
f.write( str(ee) + "\n" )
f.write( MOL.save_string_xyz() )
f.close()
--------------------------------------------------------------------------

    Molecular point group: c1
  Charge       = 0
  Multiplicity = 1
  Basis Set: CC-PVTZ
  Basis Set:
  @DF-RHF Final Energy:  -418.42726809853542
    Total Energy =                       -418.4272680985352508
    Molecular point group: c1
  Basis Set: CC-PVTZ
  Basis Set:
  Basis Set: CC-PVTZ
  Basis Set:
  @DF-RHF Final Energy:  -418.42679729526839
    Total Energy =                       -418.4267972952682157
  Basis Set: CC-PVTZ
  Basis Set:
  Basis Set: CC-PVTZ
  Basis Set:
  @DF-RHF Final Energy:  -418.42741181183709
    Total Energy =                       -418.4274118118366914
  Basis Set: CC-PVTZ
  Basis Set:
  Basis Set: CC-PVTZ
  Basis Set:
  @DF-RHF Final Energy:  -418.42760455036154
    Total Energy =                       -418.4276045503617070
  Basis Set: CC-PVTZ
  Basis Set:
  Basis Set: CC-PVTZ
  Basis Set:
  @DF-RHF Final Energy:  -418.42760697585771
    Total Energy =                       -418.4276069758575431
  Basis Set: CC-PVTZ
  Basis Set:
  Charge       = 0
  Multiplicity = 1
  Basis Set: CC-PVTZ
  Basis Set:

    Orbital Energies (a.u.)
    -----------------------

    Doubly Occupied:

       1A    -20.596321     2A    -20.564008     3A    -11.333188
       4A    -11.312046     5A    -11.256215     6A    -11.249564
       7A    -11.238712     8A    -11.236972     9A    -11.236488
      10A     -1.428252    11A     -1.418492    12A     -1.171983
      13A     -1.050676    14A     -1.027152    15A     -0.901505
      16A     -0.845691    17A     -0.821048    18A     -0.742632
      19A     -0.703480    20A     -0.682124    21A     -0.665616
      22A     -0.644170    23A     -0.616209    24A     -0.607292
      25A     -0.586612    26A     -0.546884    27A     -0.534808
      28A     -0.515577    29A     -0.498142    30A     -0.426786
      31A     -0.357388    32A     -0.328428

  @DF-RHF Final Energy:  -418.42760782082598

   => Energetics <=

    Nuclear Repulsion Energy =            403.0305903394447569
    One-Electron Energy =               -1368.6274786044650682
    Two-Electron Energy =                 547.1692804441946691
    DFT Exchange-Correlation Energy =       0.0000000000000000
    Empirical Dispersion Energy =           0.0000000000000000
    PCM Polarization Energy =               0.0000000000000000
    EFP Energy =                            0.0000000000000000
    Total Energy =                       -418.4276078208256422
    Molecular point group: c1
  Basis Set: CC-PVTZ
  Basis Set:

  -Total Gradient:
     Atom            X                  Y                   Z
    ------   -----------------  -----------------  -----------------
       1       -0.000003561403     0.000009693502    -0.000005351896
       2       -0.000004593878     0.000021725616    -0.000013527350
       3       -0.000006428431    -0.000107777073     0.000030358407
       4       -0.000002085149     0.000051110629    -0.000040658105
       5       -0.000020942013    -0.000010343544     0.000024000283
       6       -0.000002458900    -0.000007505987     0.000004015981
       7        0.000085912836     0.000006580290     0.000030861420
       8        0.000028264521     0.000029752734    -0.000031395091
       9       -0.000482654568     0.002900982761    -0.000686554764
      10       -0.000008627338     0.000000009422     0.000000941539
      11        0.000262635585    -0.002004582017    -0.000271046809
      12        0.000119890139    -0.000833439422     0.003405158665
      13        0.000012843869     0.000011309671     0.000004542561
      14        0.000005076886    -0.000061179952    -0.002460465913
      15        0.000016727840    -0.000006336633     0.000009121075

  **** Optimization is complete! (in 6 steps) ****
    Final optimized geometry and variables:
    Molecular point group: c1

    Geometry (in Angstrom), charge = 0, multiplicity = 1:

    H            2.828384924812     0.224614300500     1.927258222311
    O            1.906603583357     0.074880701821     2.036195305056
    C            1.256129201987     0.175985435083     0.862145339486
    C            1.900746274494     0.485689515762    -0.320838507269
    C           -0.110733481396    -0.047822097115     0.870720934227
    H            2.961888148015     0.655234514172    -0.328249989553
    C            1.173955812601     0.572423088729    -1.493244556340
    H           -0.591146301837    -0.302834553144     1.794832870462
    C           -0.824201840350     0.049893298930    -0.304997683851
    H            1.680528586605     0.805690741231    -2.410047802842
    C           -0.188626751554     0.361307146485    -1.496580642558
    C           -2.303179282218    -0.202329556061    -0.298936914525
    H           -0.745931269028     0.429181594945    -2.410924938255
    O           -2.786328442078    -1.279228807464    -0.288682812346
    H           -2.936696133654     0.690217497734    -0.329650235185

  Mulliken Charges: (a.u.)
   Center  Symbol    Alpha    Beta     Spin     Total
       1     H     0.38635  0.38635  0.00000  0.22730
       2     O     4.17130  4.17130  0.00000 -0.34261
       3     C     2.83597  2.83597  0.00000  0.32806
       4     C     3.14114  3.14114  0.00000 -0.28229
       5     C     3.13413  3.13413  0.00000 -0.26826
       6     H     0.43266  0.43266  0.00000  0.13468
       7     C     3.05370  3.05370  0.00000 -0.10739
       8     H     0.41683  0.41683  0.00000  0.16635
       9     C     2.92179  2.92179  0.00000  0.15642
      10     H     0.41973  0.41973  0.00000  0.16054
      11     C     3.11872  3.11872  0.00000 -0.23744
      12     C     2.93109  2.93109  0.00000  0.13782
      13     H     0.42457  0.42457  0.00000  0.15085
      14     O     4.15483  4.15483  0.00000 -0.30966
      15     H     0.45718  0.45718  0.00000  0.08564

   Total alpha = 32.00000, Total beta = 32.00000, Total charge = -0.00000

*** Psi4 exiting successfully. Buy a developer a beer!
