                              Psi4 1.0.54 Driver

  ==> Input File <==

--------------------------------------------------------------------------
set {
	reference rhf
	basis cc-pvtz
}

set_num_threads( 4 )
memory 2 gb

molecule MOL {
0 1

H	 0.010068	 -0.302909	 -0.667226
N	 -0.625934	 -0.663929	 -0.000707
C	 -1.978635	 -0.158664	 0.001017
C	 -0.178721	 -1.606620	 0.858312
H	 -2.519057	 -0.493535	 -0.876362
H	 -1.938890	 0.917202	 -0.004137
H	 -2.514266	 -0.485137	 0.884506
C	 1.273091	 -1.989789	 0.673262
O	 -0.866662	 -2.109269	 1.696857
H	 1.912884	 -1.126225	 0.812982
H	 1.529677	 -2.747215	 1.395436
H	 1.439473	 -2.373053	 -0.326760

	symmetry c1
}
set optking {
	frozen_dihedral = ("
		4 2 3 5
	")
}

ee,wfn = optimize('scf', return_wfn=True)
oeprop( wfn, 'DIPOLE', 'QUADRUPOLE', 'MULLIKEN_CHARGES')
f=open( 'psi4out.xyz', 'w' )
f.write( "12  " )
f.write( str(ee) + "\n" )
f.write( MOL.save_string_xyz() )
f.close()
--------------------------------------------------------------------------

    Molecular point group: c1
  Charge       = 0
  Multiplicity = 1
  Basis Set: CC-PVTZ
  Basis Set:
  @DF-RHF Final Energy:  -247.10057147715386
    Total Energy =                       -247.1005714771538351
    Molecular point group: c1
  Basis Set: CC-PVTZ
  Basis Set:
  Basis Set: CC-PVTZ
  Basis Set:
  @DF-RHF Final Energy:  -247.10088684652848
    Total Energy =                       -247.1008868465285104
  Basis Set: CC-PVTZ
  Basis Set:
  Basis Set: CC-PVTZ
  Basis Set:
  @DF-RHF Final Energy:  -247.10058924151622
    Total Energy =                       -247.1005892415161043
  Basis Set: CC-PVTZ
  Basis Set:
  Basis Set: CC-PVTZ
  Basis Set:
  @DF-RHF Final Energy:  -247.10099596318452
    Total Energy =                       -247.1009959631845732
  Basis Set: CC-PVTZ
  Basis Set:
  Basis Set: CC-PVTZ
  Basis Set:
  @DF-RHF Final Energy:  -247.10100170823580
    Total Energy =                       -247.1010017082357990
  Basis Set: CC-PVTZ
  Basis Set:
  Basis Set: CC-PVTZ
  Basis Set:
  @DF-RHF Final Energy:  -247.10100497594968
    Total Energy =                       -247.1010049759496496
  Basis Set: CC-PVTZ
  Basis Set:
  Basis Set: CC-PVTZ
  Basis Set:
  @DF-RHF Final Energy:  -247.10100660296212
    Total Energy =                       -247.1010066029620589
  Basis Set: CC-PVTZ
  Basis Set:
  Charge       = 0
  Multiplicity = 1
  Basis Set: CC-PVTZ
  Basis Set:

    Orbital Energies (a.u.)
    -----------------------

    Doubly Occupied:

       1A    -20.506699     2A    -15.574875     3A    -11.336846
       4A    -11.252471     5A    -11.228075     6A     -1.388521
       7A     -1.231016     8A     -1.016697     9A     -0.932865
      10A     -0.788213    11A     -0.690970    12A     -0.651692
      13A     -0.635372    14A     -0.586771    15A     -0.582983
      16A     -0.555643    17A     -0.545012    18A     -0.511232
      19A     -0.417307    20A     -0.389362

  @DF-RHF Final Energy:  -247.10100682213900

   => Energetics <=

    Nuclear Repulsion Energy =            181.6453550029824271
    One-Electron Energy =                -695.8474813261344707
    Two-Electron Energy =                 267.1011195010130450
    DFT Exchange-Correlation Energy =       0.0000000000000000
    Empirical Dispersion Energy =           0.0000000000000000
    PCM Polarization Energy =               0.0000000000000000
    EFP Energy =                            0.0000000000000000
    Total Energy =                       -247.1010068221389702
    Molecular point group: c1
  Basis Set: CC-PVTZ
  Basis Set:

  -Total Gradient:
     Atom            X                  Y                   Z
    ------   -----------------  -----------------  -----------------
       1       -0.000000188595    -0.000006677432    -0.000002187820
       2       -0.000037326664    -0.000070908802    -0.000139122558
       3       -0.000028065665    -0.000085047333     0.000115195879
       4        0.000025429650     0.000058669764     0.000092043828
       5        0.000034999663     0.000098179620    -0.000061242492
       6       -0.000002020264     0.000002256962    -0.000001505566
       7        0.000002026141    -0.000001575654    -0.000000045976
       8       -0.000011140589    -0.000017316089    -0.000019164174
       9        0.000009736452     0.000008302373     0.000003089459
      10       -0.000004386182     0.000006196244     0.000012793886
      11        0.000001004089     0.000000128258     0.000000321207
      12        0.000009931961     0.000007792087    -0.000000175673

  **** Optimization is complete! (in 8 steps) ****
    Final optimized geometry and variables:
    Molecular point group: c1

    Geometry (in Angstrom), charge = 0, multiplicity = 1:

    H            0.488478823720     0.957276265058    -1.337870665604
    N           -0.139243812658     0.628814503323    -0.647006638310
    C           -1.495735547039     1.123478513217    -0.660978702490
    C            0.305016262158    -0.305880633205     0.222514214231
    H           -2.032750182311     0.783821029171    -1.539342227540
    H           -1.504759489797     2.206338854489    -0.646473033752
    H           -2.001183496607     0.757710909479     0.216616843884
    C            1.756261306458    -0.694786237996     0.043298027131
    O           -0.383063941288    -0.789989337240     1.071588691470
    H            2.397427454793     0.171120364119     0.160040073543
    H            2.013913531005    -1.435176320317     0.782663864779
    H            1.919266431513    -1.102653183687    -0.947608808886

  Mulliken Charges: (a.u.)
   Center  Symbol    Alpha    Beta     Spin     Total
       1     H     0.41040  0.41040  0.00000  0.17919
       2     N     3.62173  3.62173  0.00000 -0.24346
       3     C     3.08555  3.08555  0.00000 -0.17110
       4     C     2.83663  2.83663  0.00000  0.32675
       5     H     0.45625  0.45625  0.00000  0.08750
       6     H     0.45526  0.45526  0.00000  0.08948
       7     H     0.43146  0.43146  0.00000  0.13708
       8     C     3.15356  3.15356  0.00000 -0.30712
       9     O     4.21552  4.21552  0.00000 -0.43103
      10     H     0.44978  0.44978  0.00000  0.10045
      11     H     0.43354  0.43354  0.00000  0.13293
      12     H     0.45033  0.45033  0.00000  0.09934

   Total alpha = 20.00000, Total beta = 20.00000, Total charge = -0.00000

*** Psi4 exiting successfully. Buy a developer a beer!
