  ==> Input File <==

--------------------------------------------------------------------------
set {
	reference rhf
	basis cc-pvtz
}

set_num_threads( 4 )
memory 2 gb

molecule MOL {
0 1

H	 -1.490085	 -0.657071	 0.783881
N	 -1.173824	 -0.310545	 -0.096857
C	 -0.022588	 0.563366	 0.065815
H	 -0.942795	 -1.102575	 -0.659820
C	 1.270420	 -0.230572	 -0.014245
H	 -0.045354	 1.293678	 -0.735129
H	 -0.043155	 1.123061	 1.001180
H	 1.336273	 -0.754933	 -0.959364
H	 2.130728	 0.422015	 0.082222
H	 1.323344	 -0.967006	 0.781773

	symmetry c1
}
set optking {
	frozen_dihedral = ("
		1 2 3 6
	")
}

ee = optimize('scf')
oeprop('DIPOLE', 'QUADRUPOLE', 'MULLIKEN_CHARGES')
f=open( 'psi4out.xyz', 'w' )
f.write( "10  " )
f.write( str(ee) + "\n" )
f.write( MOL.save_string_xyz() )
f.close()
--------------------------------------------------------------------------

    Molecular point group: c1
  Charge       = 0
  Multiplicity = 1
  Basis Set: CC-PVTZ
  Basis Set:
  @DF-RHF Final Energy:  -134.30107400325934
    Total Energy =                       -134.3010740032594299
    Molecular point group: c1
  Basis Set: CC-PVTZ
  Basis Set:
  Basis Set: CC-PVTZ
  Basis Set:
  @DF-RHF Final Energy:  -134.30289771266865
    Total Energy =                       -134.3028977126687096
  Basis Set: CC-PVTZ
  Basis Set:
  Basis Set: CC-PVTZ
  Basis Set:
  @DF-RHF Final Energy:  -134.30312443234692
    Total Energy =                       -134.3031244323470048
  Basis Set: CC-PVTZ
  Basis Set:
  Basis Set: CC-PVTZ
  Basis Set:
  @DF-RHF Final Energy:  -134.30313503462071
    Total Energy =                       -134.3031350346208228
  Basis Set: CC-PVTZ
  Basis Set:
  Charge       = 0
  Multiplicity = 1
  Basis Set: CC-PVTZ
  Basis Set:

    Orbital Energies (a.u.)
    -----------------------

    Doubly Occupied:

       1A    -15.524886     2A    -11.240972     3A    -11.208672
       4A     -1.176423     5A     -0.988652     6A     -0.832153
       7A     -0.674347     8A     -0.601904     9A     -0.584285
      10A     -0.551229    11A     -0.508044    12A     -0.483335
      13A     -0.380090

  @DF-RHF Final Energy:  -134.30313600687668

   => Energetics <=

    Nuclear Repulsion Energy =             83.3153857551084371
    One-Electron Energy =                -345.7270615169147732
    Two-Electron Energy =                 128.1085397549296943
    DFT Exchange-Correlation Energy =       0.0000000000000000
    Empirical Dispersion Energy =           0.0000000000000000
    PCM Polarization Energy =               0.0000000000000000
    EFP Energy =                            0.0000000000000000
    Total Energy =                       -134.3031360068766560
    Molecular point group: c1
  Basis Set: CC-PVTZ
  Basis Set:

  -Total Gradient:
     Atom            X                  Y                   Z
    ------   -----------------  -----------------  -----------------
       1       -0.001727702714     0.002467951460     0.000414933953
       2        0.001811293368    -0.002680760294    -0.000165035502
       3        0.001327116781    -0.001561751293    -0.001971268113
       4        0.000025581402     0.000043764228     0.000022773011
       5       -0.000068427500     0.000007602116     0.000003747363
       6       -0.001381112267     0.001670117486     0.001682651265
       7       -0.000018941087     0.000034391577     0.000025991369
       8        0.000006677960    -0.000002487970     0.000019234079
       9        0.000024114086     0.000011427632    -0.000001861286
      10        0.000001399974     0.000009745058    -0.000031166138

  **** Optimization is complete! (in 5 steps) ****
    Final optimized geometry and variables:
    Molecular point group: c1

    Geometry (in Angstrom), charge = 0, multiplicity = 1:

    H           -1.512975999255    -0.632481710450     0.817035910211
    N           -1.224884966116    -0.271354030071    -0.065357434178
    C           -0.034289373473     0.554750154330     0.049436073727
    H           -1.098028124311    -1.033222659168    -0.695780319134
    C            1.287339501671    -0.201229087328    -0.000872087146
    H           -0.058738917855     1.311850292132    -0.727464609136
    H           -0.103025866394     1.099234440515     0.984771837207
    H            1.389064892297    -0.739969467031    -0.937918323779
    H            2.129175439248     0.478071440130     0.082321259923
    H            1.353656125368    -0.922509176457     0.806890259403

  Mulliken Charges: (a.u.)
   Center  Symbol    Alpha    Beta     Spin     Total
       1     H     0.42770  0.42770  0.00000  0.14459
       2     N     3.69428  3.69428  0.00000 -0.38855
       3     C     3.02228  3.02228  0.00000 -0.04455
       4     H     0.42880  0.42880  0.00000  0.14241
       5     C     3.13882  3.13882  0.00000 -0.27764
       6     H     0.45709  0.45709  0.00000  0.08582
       7     H     0.45793  0.45793  0.00000  0.08414
       8     H     0.45881  0.45881  0.00000  0.08239
       9     H     0.45580  0.45580  0.00000  0.08840
      10     H     0.45850  0.45850  0.00000  0.08299

   Total alpha = 13.00000, Total beta = 13.00000, Total charge =  0.00000
