  ==> Input File <==

--------------------------------------------------------------------------
set {
	reference rhf
	basis cc-pvtz
}

set_num_threads( 4 )
memory 2 gb

molecule MOL {
0 1

H	 -2.750716	 1.567060	 1.565472
O	 -1.927510	 1.488719	 2.013408
C	 -0.880839	 1.654997	 1.107616
C	 -0.793473	 0.591216	 0.050087
H	 0.032515	 1.653934	 1.690786
H	 -0.937968	 2.628091	 0.623339
C	 -1.534243	 -0.493009	 -0.013340
H	 -0.044194	 0.768238	 -0.703896
H	 -1.101195	 -1.466332	 -0.144046
H	 -2.604242	 -0.437780	 0.050785

	symmetry c1
}
set optking {
	frozen_dihedral = ("
		3 4 7 9
	")
}

ee = optimize('scf')
oeprop('DIPOLE', 'QUADRUPOLE', 'MULLIKEN_CHARGES')
f=open( 'psi4out.xyz', 'w' )
f.write( "10  " )
f.write( str(ee) + "\n" )
f.write( MOL.save_string_xyz() )
f.close()
--------------------------------------------------------------------------

    Molecular point group: c1
  Charge       = 0
  Multiplicity = 1
  Basis Set: CC-PVTZ
  Basis Set:
  @DF-RHF Final Energy:  -191.94037241175420
    Total Energy =                       -191.9403724117541969
    Molecular point group: c1
  Basis Set: CC-PVTZ
  Basis Set:
  Basis Set: CC-PVTZ
  Basis Set:
  @DF-RHF Final Energy:  -191.96145895746457
    Total Energy =                       -191.9614589574646288
  Basis Set: CC-PVTZ
  Basis Set:
  Basis Set: CC-PVTZ
  Basis Set:
  @DF-RHF Final Energy:  -191.97287200413905
    Total Energy =                       -191.9728720041389636
  Basis Set: CC-PVTZ
  Basis Set:
  Basis Set: CC-PVTZ
  Basis Set:
  @DF-RHF Final Energy:  -191.97504534500916
    Total Energy =                       -191.9750453450091641
  Basis Set: CC-PVTZ
  Basis Set:
  Basis Set: CC-PVTZ
  Basis Set:
  @DF-RHF Final Energy:  -191.97508112977135
    Total Energy =                       -191.9750811297713824
  Basis Set: CC-PVTZ
  Basis Set:
  Basis Set: CC-PVTZ
  Basis Set:
  @DF-RHF Final Energy:  -191.97508335453304
    Total Energy =                       -191.9750833545330124
  Basis Set: CC-PVTZ
  Basis Set:
  Charge       = 0
  Multiplicity = 1
  Basis Set: CC-PVTZ
  Basis Set:

    Orbital Energies (a.u.)
    -----------------------

    Doubly Occupied:

       1A    -20.556137     2A    -11.283595     3A    -11.233053
       4A    -11.215890     5A     -1.376264     6A     -1.062880
       7A     -0.932942     8A     -0.771936     9A     -0.693380
      10A     -0.658385    11A     -0.622931    12A     -0.578090
      13A     -0.540147    14A     -0.490752    15A     -0.455717
      16A     -0.357510

  @DF-RHF Final Energy:  -191.97508310692450

   => Energetics <=

    Nuclear Repulsion Energy =            119.0457757724362295
    One-Electron Energy =                -496.3825034636622604
    Two-Electron Energy =                 185.3616445843015583
    DFT Exchange-Correlation Energy =       0.0000000000000000
    Empirical Dispersion Energy =           0.0000000000000000
    PCM Polarization Energy =               0.0000000000000000
    EFP Energy =                            0.0000000000000000
    Total Energy =                       -191.9750831069244725
    Molecular point group: c1
  Basis Set: CC-PVTZ
  Basis Set:

  -Total Gradient:
     Atom            X                  Y                   Z
    ------   -----------------  -----------------  -----------------
       1        0.000020102057     0.000006212547     0.000000760364
       2       -0.000013886245    -0.000042945757     0.000031606896
       3        0.018127006016    -0.010426341877     0.009779413661
       4       -0.027569509466     0.015267604918    -0.003108828522
       5       -0.000032729795    -0.000020234013     0.000020654828
       6        0.000019329294    -0.000002674984    -0.000007918937
       7        0.003272055653     0.000404509101    -0.036616168891
       8       -0.000115113523     0.000178960297    -0.000169110032
       9        0.006249885069    -0.005230922756     0.030032595654
      10        0.000042860940    -0.000134167475     0.000036994980

  **** Optimization is complete! (in 7 steps) ****
    Final optimized geometry and variables:
    Molecular point group: c1

    Geometry (in Angstrom), charge = 0, multiplicity = 1:

    H           -1.430902704747     0.942571741725     0.707269196913
    O           -0.650792408080     0.666868608910     1.153650161066
    C            0.446636404795     0.769918839951     0.299854618211
    C            0.480037595284    -0.224956204861    -0.830382070080
    H            1.324853031361     0.551642005551     0.893787435035
    H            0.557354432006     1.789008276202    -0.064953031823
    C           -0.155888922568    -1.378330764918    -0.897798820869
    H            1.381316160663    -0.117313765925    -1.418258631233
    H            0.331549616552    -2.299835942307    -1.158384046828
    H           -1.013228621054    -1.526989520960    -0.261889927557

  Mulliken Charges: (a.u.)
   Center  Symbol    Alpha    Beta     Spin     Total
       1     H     0.39115  0.39115  0.00000  0.21770
       2     O     4.19727  4.19727  0.00000 -0.39453
       3     C     2.95339  2.95339  0.00000  0.09321
       4     C     3.08792  3.08792  0.00000 -0.17584
       5     H     0.44982  0.44982  0.00000  0.10036
       6     H     0.46424  0.46424  0.00000  0.07152
       7     C     3.16495  3.16495  0.00000 -0.32990
       8     H     0.43081  0.43081  0.00000  0.13838
       9     H     0.42440  0.42440  0.00000  0.15121
      10     H     0.43606  0.43606  0.00000  0.12789

   Total alpha = 16.00000, Total beta = 16.00000, Total charge =  0.00000
