  ==> Input File <==

--------------------------------------------------------------------------
set {
	reference rhf
	basis 6-31G*
}

set_num_threads( 4 )
memory 2 gb

molecule MOL {
0 1

O	 -1.278516	 0.323016	 -1.047694
C	 -1.083277	 0.139568	 0.115197
C	 0.323299	 -0.082943	 0.642902
C	 -2.218431	 0.093871	 1.113779
C	 1.355627	 -0.005344	 -0.493127
H	 0.396251	 -1.044647	 1.143147
H	 0.528637	 0.693580	 1.371677
C	 2.786168	 -0.195604	 0.007473
H	 1.132807	 -0.760304	 -1.243899
H	 1.259610	 0.958506	 -0.981915
H	 3.495561	 -0.130713	 -0.811210
H	 2.912696	 -1.165395	 0.480041
H	 3.049284	 0.565503	 0.735850
H	 -2.162378	 -0.805679	 1.719861
H	 -3.167322	 0.130228	 0.597039
H	 -2.143546	 0.941143	 1.790334

	symmetry c1
}
set optking {
	frozen_dihedral = ("
		4 2 3 5
	")
}

ee = optimize('scf')
oeprop('DIPOLE', 'QUADRUPOLE', 'MULLIKEN_CHARGES')
f=open( 'psi4out.xyz', 'w' )
f.write( "16  " )
f.write( str(ee) + "\n" )
f.write( MOL.save_string_xyz() )
f.close()
--------------------------------------------------------------------------

    Molecular point group: c1
  Charge       = 0
  Multiplicity = 1
  Basis Set: 6-31G*
  Basis Set:
  @DF-RHF Final Energy:  -270.03126310525806
    Total Energy =                       -270.0312631052581764
    Molecular point group: c1
  Basis Set: 6-31G*
  Basis Set:
  Basis Set: 6-31G*
  Basis Set:
  @DF-RHF Final Energy:  -270.03132545908329
    Total Energy =                       -270.0313254590830638
  Basis Set: 6-31G*
  Basis Set:
  Basis Set: 6-31G*
  Basis Set:
  @DF-RHF Final Energy:  -270.03208950161763
    Total Energy =                       -270.0320895016174063
  Basis Set: 6-31G*
  Basis Set:
  Basis Set: 6-31G*
  Basis Set:
  @DF-RHF Final Energy:  -270.03228596641623
    Total Energy =                       -270.0322859664162252
  Basis Set: 6-31G*
  Basis Set:
  @DF-RHF Final Energy:  -270.03238104569618
    Total Energy =                       -270.0323810456961837
  @DF-RHF Final Energy:  -270.03239154347773
    Total Energy =                       -270.0323915434778428
  @DF-RHF Final Energy:  -270.03224324530436
    Total Energy =                       -270.0322432453043007
  Basis Set: 6-31G*
  Basis Set:
  @DF-RHF Final Energy:  -270.03240305643862
    Total Energy =                       -270.0324030564385680
  Basis Set: 6-31G*
  Basis Set:
  Basis Set: 6-31G*
  Basis Set:
  @DF-RHF Final Energy:  -270.03240703192535
    Total Energy =                       -270.0324070319256862
  Basis Set: 6-31G*
  Basis Set:
  Basis Set: 6-31G*
  Basis Set:
  @DF-RHF Final Energy:  -270.03241025911342
    Total Energy =                       -270.0324102591134761
  Basis Set: 6-31G*
  Basis Set:
  Charge       = 0
  Multiplicity = 1
  Basis Set: 6-31G*
  Basis Set:

    Orbital Energies (a.u.)
    -----------------------

    Doubly Occupied:

       1A    -20.551040     2A    -11.326834     3A    -11.232548
       4A    -11.228764     5A    -11.219642     6A    -11.213635
       7A     -1.396350     8A     -1.077149     9A     -1.015713
      10A     -0.946873    11A     -0.824271    12A     -0.732109
      13A     -0.654672    14A     -0.650622    15A     -0.625191
      16A     -0.598245    17A     -0.566946    18A     -0.559320
      19A     -0.546490    20A     -0.499563    21A     -0.490974
      22A     -0.483775    23A     -0.476425    24A     -0.401637

  @DF-RHF Final Energy:  -270.03241075137987

   => Energetics <=

    Nuclear Repulsion Energy =            236.7839207363035996
    One-Electron Energy =                -834.9950854600274397
    Two-Electron Energy =                 328.1787539723441114
    DFT Exchange-Correlation Energy =       0.0000000000000000
    Empirical Dispersion Energy =           0.0000000000000000
    PCM Polarization Energy =               0.0000000000000000
    EFP Energy =                            0.0000000000000000
    Total Energy =                       -270.0324107513797571
    Molecular point group: c1
  Basis Set: 6-31G*
  Basis Set:

  -Total Gradient:
     Atom            X                  Y                   Z
    ------   -----------------  -----------------  -----------------
       1        0.000014764486     0.000002934174     0.000004237718
       2       -0.000030073361    -0.000011379928    -0.000003680612
       3        0.000006661664     0.000024739227     0.000008086468
       4       -0.000003279805     0.000014658497    -0.000005859010
       5        0.000006730900    -0.000016420299     0.000001030278
       6       -0.000001969638     0.000002039619    -0.000001313914
       7       -0.000008508004    -0.000000488372     0.000007221027
       8       -0.000005251657     0.000001443190    -0.000011257436
       9        0.000006743657    -0.000000899204    -0.000001183981
      10        0.000005249522    -0.000000776297    -0.000006003358
      11        0.000001926201     0.000008142633     0.000000885983
      12        0.000007266847    -0.000006872250    -0.000004160590
      13       -0.000010437028    -0.000005510766     0.000003169288
      14        0.000003252008    -0.000004275677     0.000006476666
      15        0.000003662864    -0.000001809169     0.000000259858
      16        0.000003261349    -0.000005525379     0.000002091614

  **** Optimization is complete! (in 11 steps) ****
    Final optimized geometry and variables:
    Molecular point group: c1

    Geometry (in Angstrom), charge = 0, multiplicity = 1:

    O           -1.331346450622     0.248248385799    -1.112239595752
    C           -1.080283629758     0.084226803186     0.042223972233
    C            0.341724989572    -0.095501697403     0.542734938842
    C           -2.173492077165     0.044740645044     1.090124626554
    C            1.398720269733    -0.046596050124    -0.556814335736
    H            0.389863948143    -1.041923671783     1.079899447290
    H            0.531613391711     0.671565619223     1.292486616851
    C            2.813325525648    -0.232052694237    -0.009733801219
    H            1.183009555205    -0.813578623832    -1.292761484902
    H            1.325343550522     0.900921080391    -1.079553266288
    H            3.546489084947    -0.191465268507    -0.808800489123
    H            2.922745904356    -1.191088249157     0.489318734108
    H            3.065374379601     0.543618202467     0.708293413448
    H           -2.160362131163    -0.905706399203     1.615606882471
    H           -3.136303296625     0.182963782858     0.618237921352
    H           -2.017158764755     0.824163395664     1.830180636133

  Mulliken Charges: (a.u.)
   Center  Symbol    Alpha    Beta     Spin     Total
       1     O     4.26088  4.26088  0.00000 -0.52177
       2     C     2.73624  2.73624  0.00000  0.52753
       3     C     3.20871  3.20871  0.00000 -0.41743
       4     C     3.28679  3.28679  0.00000 -0.57357
       5     C     3.14793  3.14793  0.00000 -0.29585
       6     H     0.41027  0.41027  0.00000  0.17947
       7     H     0.41026  0.41026  0.00000  0.17948
       8     C     3.24208  3.24208  0.00000 -0.48416
       9     H     0.41131  0.41131  0.00000  0.17738
      10     H     0.41133  0.41133  0.00000  0.17734
      11     H     0.41564  0.41564  0.00000  0.16872
      12     H     0.42245  0.42245  0.00000  0.15510
      13     H     0.42247  0.42247  0.00000  0.15506
      14     H     0.40864  0.40864  0.00000  0.18272
      15     H     0.39638  0.39638  0.00000  0.20724
      16     H     0.40864  0.40864  0.00000  0.18273

   Total alpha = 24.00000, Total beta = 24.00000, Total charge = -0.00000
