  ==> Input File <==

--------------------------------------------------------------------------
set {
	reference rhf
	basis 6-31G*
}

set_num_threads( 4 )
memory 2 gb

molecule MOL {
0 1

O	 3.225979	 0.970355	 -0.599647
C	 2.701189	 0.057885	 -0.047330
C	 1.245376	 -0.013843	 0.345420
O	 3.347903	 -1.046386	 0.304773
C	 0.455112	 1.231400	 -0.050772
H	 0.838542	 -0.913825	 -0.103701
H	 1.208210	 -0.175333	 1.419774
C	 -0.998893	 1.219485	 0.433193
H	 0.482531	 1.345121	 -1.130325
H	 0.957290	 2.103070	 0.354729
C	 -1.883438	 0.145884	 -0.207175
H	 -1.431207	 2.195402	 0.224832
H	 -1.019646	 1.105716	 1.516076
C	 -1.224703	 -0.525771	 -1.413802
H	 -2.124230	 -0.610541	 0.538251
H	 -2.830853	 0.578752	 -0.520230
C	 -2.101667	 -1.596762	 -2.064988
H	 -0.281344	 -0.973457	 -1.105765
H	 -0.973929	 0.231468	 -2.155017
C	 -1.435008	 -2.265268	 -3.266805
H	 -2.354026	 -2.353733	 -1.325426
H	 -3.043336	 -1.150236	 -2.377485
H	 -2.080823	 -3.019061	 -3.706491
H	 -0.506876	 -2.751569	 -2.979961
H	 -1.200986	 -1.538633	 -4.039792
C	 4.728119	 -1.109107	 -0.004993
H	 4.882018	 -1.033965	 -1.071845
H	 5.068212	 -2.067527	 0.355250
H	 5.265056	 -0.311663	 0.488280

	symmetry c1
}
set optking {
	frozen_dihedral = ("
		15 11 8 5
	")
}

ee = optimize('scf')
oeprop('DIPOLE', 'QUADRUPOLE', 'MULLIKEN_CHARGES')
f=open( 'psi4out.xyz', 'w' )
f.write( "29  " )
f.write( str(ee) + "\n" )
f.write( MOL.save_string_xyz() )
f.close()
--------------------------------------------------------------------------

    Molecular point group: c1
  Charge       = 0
  Multiplicity = 1
  Basis Set: 6-31G*
  Basis Set:
  @DF-RHF Final Energy:  -501.02055090565864
    Total Energy =                       -501.0205509056581832
    Molecular point group: c1
  Basis Set: 6-31G*
  Basis Set:
  Basis Set: 6-31G*
  Basis Set:
  @DF-RHF Final Energy:  -501.03151965851009
    Total Energy =                       -501.0315196585098647
  Basis Set: 6-31G*
  Basis Set:
  Basis Set: 6-31G*
  Basis Set:
  @DF-RHF Final Energy:  -501.03381458126637
    Total Energy =                       -501.0338145812670518
  Basis Set: 6-31G*
  Basis Set:
  Basis Set: 6-31G*
  Basis Set:
  @DF-RHF Final Energy:  -501.03378725985522
    Total Energy =                       -501.0337872598545346
  Basis Set: 6-31G*
  Basis Set:
  @DF-RHF Final Energy:  -501.03297049922753
    Total Energy =                       -501.0329704992280995
  @DF-RHF Final Energy:  -501.03443249506881
    Total Energy =                       -501.0344324950683585
  @DF-RHF Final Energy:  -501.03443485769117
    Total Energy =                       -501.0344348576909397
  @DF-RHF Final Energy:  -501.03450854782238
    Total Energy =                       -501.0345085478220426
  Basis Set: 6-31G*
  Basis Set:
  @DF-RHF Final Energy:  -501.03451703088513
    Total Energy =                       -501.0345170308858087
  Basis Set: 6-31G*
  Basis Set:
  Basis Set: 6-31G*
  Basis Set:
  @DF-RHF Final Energy:  -501.03451897114792
    Total Energy =                       -501.0345189711480316
  Basis Set: 6-31G*
  Basis Set:
  Basis Set: 6-31G*
  Basis Set:
  @DF-RHF Final Energy:  -501.03452020369627
    Total Energy =                       -501.0345202036961609
  Basis Set: 6-31G*
  Basis Set:
  Charge       = 0
  Multiplicity = 1
  Basis Set: 6-31G*
  Basis Set:

    Orbital Energies (a.u.)
    -----------------------

    Doubly Occupied:

       1A    -20.603166     2A    -20.544949     3A    -11.371585
       4A    -11.280519     5A    -11.234005     6A    -11.218527
       7A    -11.217941     8A    -11.216308     9A    -11.216092
      10A    -11.215286    11A    -11.208955    12A     -1.468780
      13A     -1.362206    14A     -1.095825    15A     -1.064902
      16A     -1.017257    17A     -0.975575    18A     -0.930503
      19A     -0.866912    20A     -0.809214    21A     -0.777738
      22A     -0.759583    23A     -0.700098    24A     -0.682375
      25A     -0.671702    26A     -0.646981    27A     -0.633843
      28A     -0.602610    29A     -0.593722    30A     -0.580710
      31A     -0.564419    32A     -0.550397    33A     -0.541073
      34A     -0.525722    35A     -0.521318    36A     -0.506446
      37A     -0.493555    38A     -0.480575    39A     -0.472436
      40A     -0.456571    41A     -0.456092    42A     -0.450577
      43A     -0.441945    44A     -0.434208

  @DF-RHF Final Energy:  -501.03452024090814

   => Energetics <=

    Nuclear Repulsion Energy =            628.8521286420353817
    One-Electron Energy =               -1928.8468907946137278
    Two-Electron Energy =                 798.9602419116704368
    DFT Exchange-Correlation Energy =       0.0000000000000000
    Empirical Dispersion Energy =           0.0000000000000000
    PCM Polarization Energy =               0.0000000000000000
    EFP Energy =                            0.0000000000000000
    Total Energy =                       -501.0345202409080230
    Molecular point group: c1
  Basis Set: 6-31G*
  Basis Set:

  -Total Gradient:
     Atom            X                  Y                   Z
    ------   -----------------  -----------------  -----------------
       1        0.000001068192     0.000003859383    -0.000000454920
       2        0.000001963880    -0.000004435661     0.000014004913
       3        0.000000367128    -0.000010227587    -0.000015443921
       4       -0.000002129640    -0.000002059168    -0.000010319241
       5       -0.001248529583     0.003291154677    -0.003601488147
       6        0.000000771834     0.000006383023     0.000006726995
       7        0.000003009376     0.000005765541     0.000003152697
       8        0.000554636695    -0.004003954035     0.005720328857
       9        0.000000335834     0.000001899540    -0.000001935276
      10        0.000002186745    -0.000006141670     0.000000291529
      11        0.006094084670    -0.002733123912    -0.003956718771
      12       -0.000009911635    -0.000002900886    -0.000001273047
      13       -0.000000109931     0.000000515678    -0.000000410568
      14        0.000003715357    -0.000002240207     0.000000352560
      15       -0.005398272110     0.003452401347     0.001837703731
      16        0.000000906231    -0.000003454749     0.000001774707
      17       -0.000004678426     0.000005425825    -0.000001674280
      18       -0.000000879232     0.000002347095     0.000002812310
      19       -0.000000977855    -0.000001897285    -0.000002261093
      20        0.000001376945    -0.000001449140     0.000002324502
      21        0.000001037232    -0.000000019497    -0.000002517906
      22       -0.000002082370    -0.000000003762     0.000000242911
      23        0.000000280360    -0.000000553880     0.000001254032
      24        0.000000869402     0.000000861430    -0.000000312752
      25       -0.000001601458     0.000000507832     0.000000545394
      26        0.000003057921     0.000002545686     0.000004985846
      27       -0.000001592059    -0.000000013762    -0.000000276807
      28        0.000000120751    -0.000000431811    -0.000000650503
      29        0.000000975732    -0.000000760047    -0.000000763751

  **** Optimization is complete! (in 12 steps) ****
    Final optimized geometry and variables:
    Molecular point group: c1

    Geometry (in Angstrom), charge = 0, multiplicity = 1:

    O            2.521929741860     1.208382334300    -0.064751030821
    C            2.060355973961     0.390346254261     0.664014751666
    C            0.619886773738     0.323652128872     1.109752160600
    O            2.774475549539    -0.594814927095     1.194280325618
    C           -0.246814959334     1.437459824461     0.523754400838
    H            0.247545710550    -0.662920132967     0.853995306510
    H            0.616551692451     0.364428384751     2.195856053430
    C           -1.715484919562     1.362400391471     0.964948968492
    H           -0.167625798569     1.434469876663    -0.555935674455
    H            0.161318115064     2.389101629723     0.847607258418
    C           -2.626100438414     0.291670284859     0.303001126157
    H           -2.148305732479     2.337081694399     0.758166755394
    H           -1.759062689700     1.249357261759     2.044968249746
    C           -2.157107651663    -0.339396588592    -1.010013561762
    H           -2.873205379095    -0.480728569722     1.027816276181
    H           -3.583423210541     0.768946992881     0.104265134463
    C           -3.183219571480    -1.322240060594    -1.579218219190
    H           -1.213150958037    -0.859831143349    -0.874512667575
    H           -1.971675871467     0.441517159376    -1.744332921170
    C           -2.735524361190    -1.955505352624    -2.896139412754
    H           -3.375071126832    -2.105640078691    -0.849051732994
    H           -4.129824733289    -0.807934379482    -1.730042288084
    H           -3.482954926020    -2.646092236291    -3.274353926627
    H           -1.808483890147    -2.507997625945    -2.771113587497
    H           -2.568134361314    -1.199474001410    -3.658018513109
    C            4.148862005423    -0.645504408750     0.857638411968
    H            4.274882715648    -0.763557697462    -0.208999882744
    H            4.548950525001    -1.501510565977     1.378396396863
    H            4.651971879258     0.255843502463     1.177004372941

  Mulliken Charges: (a.u.)
   Center  Symbol    Alpha    Beta     Spin     Total
       1     O     4.28601  4.28601  0.00000 -0.57201
       2     C     2.60575  2.60575  0.00000  0.78851
       3     C     3.20885  3.20885  0.00000 -0.41769
       4     O     4.30746  4.30746  0.00000 -0.61493
       5     C     3.15689  3.15689  0.00000 -0.31377
       6     H     0.39937  0.39937  0.00000  0.20127
       7     H     0.40089  0.40089  0.00000  0.19823
       8     C     3.16070  3.16070  0.00000 -0.32140
       9     H     0.40768  0.40768  0.00000  0.18465
      10     H     0.41069  0.41069  0.00000  0.17861
      11     C     3.15813  3.15813  0.00000 -0.31625
      12     H     0.41729  0.41729  0.00000  0.16541
      13     H     0.42106  0.42106  0.00000  0.15789
      14     C     3.15472  3.15472  0.00000 -0.30945
      15     H     0.42172  0.42172  0.00000  0.15656
      16     H     0.42033  0.42033  0.00000  0.15934
      17     C     3.15148  3.15148  0.00000 -0.30295
      18     H     0.42388  0.42388  0.00000  0.15224
      19     H     0.42083  0.42083  0.00000  0.15834
      20     C     3.23934  3.23934  0.00000 -0.47868
      21     H     0.42311  0.42311  0.00000  0.15377
      22     H     0.42251  0.42251  0.00000  0.15499
      23     H     0.41914  0.41914  0.00000  0.16171
      24     H     0.42194  0.42194  0.00000  0.15611
      25     H     0.42102  0.42102  0.00000  0.15795
      26     C     3.09236  3.09236  0.00000 -0.18471
      27     H     0.40914  0.40914  0.00000  0.18171
      28     H     0.40857  0.40857  0.00000  0.18285
      29     H     0.40914  0.40914  0.00000  0.18171

   Total alpha = 44.00000, Total beta = 44.00000, Total charge = -0.00000
