                              Psi4 1.0.54 Driver

  ==> Input File <==

--------------------------------------------------------------------------
set {
	reference rhf
	basis cc-pvtz
}

set_num_threads( 4 )
memory 2 gb

molecule MOL {
0 1

H	 -2.993162	 -0.762455	 0.881901
O	 -2.658848	 -0.704215	 -0.000460
C	 -1.605397	 0.107680	 0.001145
C	 -0.310616	 -0.658853	 0.000791
O	 -1.718351	 1.284629	 -0.000627
C	 0.926581	 0.227233	 0.000178
H	 -0.327628	 -1.313681	 -0.864448
H	 -0.327041	 -1.313334	 0.866298
C	 2.220156	 -0.582071	 -0.000088
H	 0.899945	 0.878221	 -0.866390
H	 0.900542	 0.878581	 0.866486
C	 3.466689	 0.296012	 -0.000457
H	 2.239073	 -1.234095	 -0.869382
H	 2.239505	 -1.233985	 0.869270
H	 3.493549	 0.935857	 -0.875887
H	 4.368821	 -0.304526	 -0.001199
H	 3.494559	 0.935166	 0.875458

	symmetry c1
}
set optking {
	frozen_dihedral = ("
		1 2 3 5
	")
}

ee,wfn = optimize('scf', return_wfn=True)
oeprop( wfn, 'DIPOLE', 'QUADRUPOLE', 'MULLIKEN_CHARGES')
f=open( 'psi4out.xyz', 'w' )
f.write( "17  " )
f.write( str(ee) + "\n" )
f.write( MOL.save_string_xyz() )
f.close()
--------------------------------------------------------------------------

    Molecular point group: c1
  Charge       = 0
  Multiplicity = 1
  Basis Set: CC-PVTZ
  Basis Set:
  @DF-RHF Final Energy:  -345.02871160930692
    Total Energy =                       -345.0287116093069812
    Molecular point group: c1
  Basis Set: CC-PVTZ
  Basis Set:
  Basis Set: CC-PVTZ
  Basis Set:
  @DF-RHF Final Energy:  -345.02739095227616
    Total Energy =                       -345.0273909522763915
  Basis Set: CC-PVTZ
  Basis Set:
  Basis Set: CC-PVTZ
  Basis Set:
  @DF-RHF Final Energy:  -345.03006385656300
    Total Energy =                       -345.0300638565629470
  Basis Set: CC-PVTZ
  Basis Set:
  Basis Set: CC-PVTZ
  Basis Set:
  @DF-RHF Final Energy:  -345.03021899655465
    Total Energy =                       -345.0302189965548223
  Basis Set: CC-PVTZ
  Basis Set:
  Basis Set: CC-PVTZ
  Basis Set:
  @DF-RHF Final Energy:  -345.03033462222470
    Total Energy =                       -345.0303346222244727
  Basis Set: CC-PVTZ
  Basis Set:
  Basis Set: CC-PVTZ
  Basis Set:
  @DF-RHF Final Energy:  -345.03033700285334
    Total Energy =                       -345.0303370028534573
  Basis Set: CC-PVTZ
  Basis Set:
  Charge       = 0
  Multiplicity = 1
  Basis Set: CC-PVTZ
  Basis Set:

    Orbital Energies (a.u.)
    -----------------------

    Doubly Occupied:

       1A    -20.586452     2A    -20.550485     3A    -11.374322
       4A    -11.240719     5A    -11.222483     6A    -11.221859
       7A    -11.211717     8A     -1.463762     9A     -1.370210
      10A     -1.093263    11A     -1.018610    12A     -0.910629
      13A     -0.824288    14A     -0.794884    15A     -0.710224
      16A     -0.677859    17A     -0.666704    18A     -0.640812
      19A     -0.593880    20A     -0.587279    21A     -0.542488
      22A     -0.531798    23A     -0.519274    24A     -0.500921
      25A     -0.481644    26A     -0.474661    27A     -0.474296
      28A     -0.445753

  @DF-RHF Final Energy:  -345.03033706727268

   => Energetics <=

    Nuclear Repulsion Energy =            303.9736902308059712
    One-Electron Energy =               -1072.5454983262579844
    Two-Electron Energy =                 423.5414710281792168
    DFT Exchange-Correlation Energy =       0.0000000000000000
    Empirical Dispersion Energy =           0.0000000000000000
    PCM Polarization Energy =               0.0000000000000000
    EFP Energy =                            0.0000000000000000
    Total Energy =                       -345.0303370672728533
    Molecular point group: c1
  Basis Set: CC-PVTZ
  Basis Set:

  -Total Gradient:
     Atom            X                  Y                   Z
    ------   -----------------  -----------------  -----------------
       1        0.003157654332    -0.004281906002     0.001203712420
       2       -0.003785156146     0.005370181336    -0.003691827812
       3        0.000238266705    -0.001070492298     0.007282759104
       4        0.000007851474     0.000014029575     0.000016744079
       5        0.000394733051    -0.000023597753    -0.004788942416
       6        0.000001917667     0.000002187731    -0.000013602520
       7       -0.000001396310     0.000000801952    -0.000009640878
       8        0.000003800524    -0.000005305789    -0.000008013165
       9       -0.000002113448    -0.000008604451     0.000003390039
      10       -0.000003807602    -0.000001002392     0.000000335838
      11       -0.000001100425     0.000000799147     0.000004526851
      12       -0.000007203144     0.000004746153     0.000000389717
      13       -0.000001064003     0.000000180338    -0.000000769524
      14        0.000000764459    -0.000001285260     0.000000350016
      15        0.000000370495     0.000000398954    -0.000000378175
      16       -0.000004612050    -0.000002157061     0.000000202862
      17        0.000001094417     0.000001025820     0.000000763564

  **** Optimization is complete! (in 7 steps) ****
    Final optimized geometry and variables:
    Molecular point group: c1

    Geometry (in Angstrom), charge = 0, multiplicity = 1:

    H           -3.128666999841    -0.793735271618     0.752421656752
    O           -2.690603982383    -0.709322835376    -0.078255460480
    C           -1.608815601288     0.110126253254     0.003020007565
    C           -0.307290647595    -0.645467229269     0.011128945428
    O           -1.717275578126     1.279408682967    -0.012544510033
    C            0.930134138174     0.239452129113     0.010475189229
    H           -0.325261106582    -1.304961150121    -0.850882168234
    H           -0.322364154164    -1.302019125572     0.877034923086
    C            2.224565590567    -0.568600226741     0.013000721366
    H            0.903254435249     0.888102442202    -0.857854094177
    H            0.903713401020     0.893590523734     0.875044599445
    C            3.470432118916     0.310369727308     0.011376711507
    H            2.244339755575    -1.222441500373    -0.854797850737
    H            2.244111975486    -1.218644152578     0.883899105275
    H            3.497479494143     0.947694687545    -0.865825437406
    H            4.372981901774    -0.289513366614     0.013066610041
    H            3.497097570265     0.952054938163     0.885500720027

  Mulliken Charges: (a.u.)
   Center  Symbol    Alpha    Beta     Spin     Total
       1     H     0.38659  0.38659  0.00000  0.22683
       2     O     4.17683  4.17683  0.00000 -0.35366
       3     C     2.80014  2.80014  0.00000  0.39972
       4     C     3.11409  3.11409  0.00000 -0.22818
       5     O     4.16333  4.16333  0.00000 -0.32665
       6     C     3.08382  3.08382  0.00000 -0.16764
       7     H     0.43656  0.43656  0.00000  0.12689
       8     H     0.44674  0.44674  0.00000  0.10652
       9     C     3.08605  3.08605  0.00000 -0.17211
      10     H     0.44491  0.44491  0.00000  0.11019
      11     H     0.44715  0.44715  0.00000  0.10569
      12     C     3.14911  3.14911  0.00000 -0.29823
      13     H     0.45425  0.45425  0.00000  0.09150
      14     H     0.45543  0.45543  0.00000  0.08914
      15     H     0.45323  0.45323  0.00000  0.09355
      16     H     0.44789  0.44789  0.00000  0.10422
      17     H     0.45389  0.45389  0.00000  0.09222

   Total alpha = 28.00000, Total beta = 28.00000, Total charge = -0.00000

*** Psi4 exiting successfully. Buy a developer a beer!
