  ==> Input File <==

--------------------------------------------------------------------------
set {
	reference rhf
	basis cc-pvtz
}

set_num_threads( 4 )
memory 2 gb

molecule MOL {
0 1

H	 -2.680771	 -0.791747	 1.439802
C	 -2.673383	 -0.966075	 0.366284
O	 -1.395157	 -0.839096	 -0.160551
H	 -3.011000	 -1.974306	 0.175566
H	 -3.369072	 -0.270587	 -0.099761
C	 -0.830035	 0.420165	 0.002348
C	 0.588348	 0.413198	 -0.509987
H	 -1.401655	 1.164803	 -0.551489
H	 -0.829970	 0.709326	 1.051069
O	 1.401606	 -0.295166	 0.366636
H	 0.608342	 -0.035016	 -1.501015
H	 0.936292	 1.442222	 -0.599519
C	 2.714315	 -0.441627	 -0.061017
H	 2.765292	 -0.641548	 -1.128869
H	 3.305661	 0.447341	 0.150952
H	 3.143725	 -1.278506	 0.470147

	symmetry c1
}
set optking {
	frozen_dihedral = ("
		7 10 13 14
	")
}

ee = optimize('scf')
oeprop('DIPOLE', 'QUADRUPOLE', 'MULLIKEN_CHARGES')
f=open( 'psi4out.xyz', 'w' )
f.write( "16  " )
f.write( str(ee) + "\n" )
f.write( MOL.save_string_xyz() )
f.close()
--------------------------------------------------------------------------

    Molecular point group: c1
  Charge       = 0
  Multiplicity = 1
  Basis Set: CC-PVTZ
  Basis Set:
  @DF-RHF Final Energy:  -307.09691002761440
    Total Energy =                       -307.0969100276140580
    Molecular point group: c1
  Basis Set: CC-PVTZ
  Basis Set:
  Basis Set: CC-PVTZ
  Basis Set:
  @DF-RHF Final Energy:  -307.09695823730965
    Total Energy =                       -307.0969582373096500
  Basis Set: CC-PVTZ
  Basis Set:
  Basis Set: CC-PVTZ
  Basis Set:
  @DF-RHF Final Energy:  -307.09697220965739
    Total Energy =                       -307.0969722096575083
  Basis Set: CC-PVTZ
  Basis Set:
  Charge       = 0
  Multiplicity = 1
  Basis Set: CC-PVTZ
  Basis Set:

    Orbital Energies (a.u.)
    -----------------------

    Doubly Occupied:

       1A    -20.547729     2A    -20.546931     3A    -11.267691
       4A    -11.266927     5A    -11.261561     6A    -11.261535
       7A     -1.391212     8A     -1.373875     9A     -1.032062
      10A     -0.937270    11A     -0.892258    12A     -0.824438
      13A     -0.685989    14A     -0.682293    15A     -0.659652
      16A     -0.638142    17A     -0.631217    18A     -0.598865
      19A     -0.551810    20A     -0.535592    21A     -0.510310
      22A     -0.479797    23A     -0.464633    24A     -0.422666
      25A     -0.412633

  @DF-RHF Final Energy:  -307.09697234943252

   => Energetics <=

    Nuclear Repulsion Energy =            258.8407578340624582
    One-Electron Energy =                -932.1212846170251396
    Two-Electron Energy =                 366.1835544335301620
    DFT Exchange-Correlation Energy =       0.0000000000000000
    Empirical Dispersion Energy =           0.0000000000000000
    PCM Polarization Energy =               0.0000000000000000
    EFP Energy =                            0.0000000000000000
    Total Energy =                       -307.0969723494324626
    Molecular point group: c1
  Basis Set: CC-PVTZ
  Basis Set:

  -Total Gradient:
     Atom            X                  Y                   Z
    ------   -----------------  -----------------  -----------------
       1       -0.000000584633    -0.000000291689     0.000000066642
       2       -0.000000210109     0.000001619222     0.000002927812
       3       -0.000001085279    -0.000008741932     0.000008429221
       4        0.000001038738    -0.000000233807    -0.000000375503
       5        0.000001489149     0.000000125343    -0.000000566534
       6       -0.000017086502     0.000021605948    -0.000032379463
       7       -0.000510548094    -0.001678977108    -0.000948794499
       8       -0.000023603557     0.000007937763     0.000003852285
       9        0.000009127264    -0.000011455248    -0.000014607100
      10        0.000790311215     0.003115678434     0.001219394977
      11       -0.000003492984    -0.000001619120     0.000016122870
      12        0.000005456348    -0.000008764896     0.000000173803
      13       -0.000369982932    -0.003911563631     0.000185401102
      14        0.000120839168     0.002477825879    -0.000433959003
      15       -0.000005415385     0.000002745008    -0.000005519526
      16        0.000003747593    -0.000005890166    -0.000000167084

  **** Optimization is complete! (in 4 steps) ****
    Final optimized geometry and variables:
    Molecular point group: c1

    Geometry (in Angstrom), charge = 0, multiplicity = 1:

    H           -2.646500776850    -0.499352819979     1.440504444760
    C           -2.641386683452    -0.672599396482     0.366805755234
    O           -1.364312531513    -0.544962596080    -0.162615468956
    H           -2.979335906398    -1.680655537322     0.175765206712
    H           -3.338137457253     0.023314325694    -0.097048249220
    C           -0.798814476065     0.714031423692     0.000761961360
    C            0.618373587426     0.707713159138    -0.515234546107
    H           -1.371664583119     1.459467359830    -0.550836962795
    H           -0.796513362056     1.001730538648     1.049796070452
    O            1.431416754980    -0.008217635539     0.355445338651
    H            0.635689864092     0.263728040512    -1.507603342594
    H            0.964797257794     1.737887493907    -0.601225839943
    C            2.749499752594    -0.155636919071    -0.059891653162
    H            2.814158112302    -0.347457952421    -1.127717486182
    H            3.331100948884     0.739977054303     0.151013072664
    H            3.182608135670    -0.986068055216     0.478366415971

  Mulliken Charges: (a.u.)
   Center  Symbol    Alpha    Beta     Spin     Total
       1     H     0.47020  0.47020  0.00000  0.05959
       2     C     3.03203  3.03203  0.00000 -0.06407
       3     O     4.17031  4.17031  0.00000 -0.34063
       4     H     0.44637  0.44637  0.00000  0.10726
       5     H     0.47371  0.47371  0.00000  0.05258
       6     C     2.96140  2.96140  0.00000  0.07720
       7     C     2.96029  2.96029  0.00000  0.07941
       8     H     0.47618  0.47618  0.00000  0.04763
       9     H     0.47069  0.47069  0.00000  0.05862
      10     O     4.17155  4.17155  0.00000 -0.34311
      11     H     0.46911  0.46911  0.00000  0.06178
      12     H     0.47740  0.47740  0.00000  0.04520
      13     C     3.03060  3.03060  0.00000 -0.06119
      14     H     0.47365  0.47365  0.00000  0.05271
      15     H     0.46926  0.46926  0.00000  0.06148
      16     H     0.44724  0.44724  0.00000  0.10553

   Total alpha = 25.00000, Total beta = 25.00000, Total charge =  0.00000
