  ==> Input File <==

--------------------------------------------------------------------------
set {
	reference rhf
	basis 6-31G*
}

set_num_threads( 4 )
memory 2 gb

molecule MOL {
0 1

H	 -2.527896	 0.213258	 0.865564
O	 -2.035884	 -0.060112	 0.102722
C	 -0.955155	 0.788182	 -0.092531
C	 0.353668	 0.040312	 -0.004810
H	 -0.985057	 1.290372	 -1.054184
H	 -0.974469	 1.533190	 0.688632
F	 0.394464	 -0.937475	 -0.903053
F	 1.368604	 0.853376	 -0.249821
F	 0.546173	 -0.502608	 1.179981

	symmetry c1
}
set optking {
	frozen_dihedral = ("
		1 2 3 5
	")
}

ee = optimize('scf')
oeprop('DIPOLE', 'QUADRUPOLE', 'MULLIKEN_CHARGES')
f=open( 'psi4out.xyz', 'w' )
f.write( "9  " )
f.write( str(ee) + "\n" )
f.write( MOL.save_string_xyz() )
f.close()
--------------------------------------------------------------------------

    Molecular point group: c1
  Charge       = 0
  Multiplicity = 1
  Basis Set: 6-31G*
  Basis Set:
  @DF-RHF Final Energy:  -450.65836292363088
    Total Energy =                       -450.6583629236304773
    Molecular point group: c1
  Basis Set: 6-31G*
  Basis Set:
  Basis Set: 6-31G*
  Basis Set:
  @DF-RHF Final Energy:  -450.65964363818011
    Total Energy =                       -450.6596436381802846
  Basis Set: 6-31G*
  Basis Set:
  Basis Set: 6-31G*
  Basis Set:
  @DF-RHF Final Energy:  -450.65989243478685
    Total Energy =                       -450.6598924347864568
  Basis Set: 6-31G*
  Basis Set:
  Basis Set: 6-31G*
  Basis Set:
  @DF-RHF Final Energy:  -450.65990088134384
    Total Energy =                       -450.6599008813437877
  Basis Set: 6-31G*
  Basis Set:
  Charge       = 0
  Multiplicity = 1
  Basis Set: 6-31G*
  Basis Set:

    Orbital Energies (a.u.)
    -----------------------

    Doubly Occupied:

       1A    -26.337034     2A    -26.334406     3A    -26.332968
       4A    -20.589125     5A    -11.495037     6A    -11.309965
       7A     -1.733571     8A     -1.631638     9A     -1.630187
      10A     -1.400836    11A     -1.047306    12A     -0.917902
      13A     -0.824729    14A     -0.823129    15A     -0.787880
      16A     -0.737172    17A     -0.705716    18A     -0.695770
      19A     -0.662090    20A     -0.650601    21A     -0.635290
      22A     -0.632808    23A     -0.596445    24A     -0.532410
      25A     -0.478728

  @DF-RHF Final Energy:  -450.65990248572115

   => Energetics <=

    Nuclear Repulsion Energy =            276.8070556312728172
    One-Electron Energy =               -1175.8884284727605518
    Two-Electron Energy =                 448.4214703557667008
    DFT Exchange-Correlation Energy =       0.0000000000000000
    Empirical Dispersion Energy =           0.0000000000000000
    PCM Polarization Energy =               0.0000000000000000
    EFP Energy =                            0.0000000000000000
    Total Energy =                       -450.6599024857210907
    Molecular point group: c1
  Basis Set: 6-31G*
  Basis Set:

  -Total Gradient:
     Atom            X                  Y                   Z
    ------   -----------------  -----------------  -----------------
       1       -0.000890161635     0.000918538899    -0.000925965774
       2        0.000941153867    -0.000797974100     0.001247554882
       3        0.000689435765    -0.001155420692    -0.000846781269
       4        0.000007971357     0.000061636022     0.000135220844
       5       -0.000764883528     0.000993995396     0.000548157285
       6       -0.000009488384    -0.000007460636     0.000004358016
       7        0.000036887259     0.000010177251    -0.000000049788
       8        0.000039479687    -0.000043785785    -0.000060258893
       9       -0.000050394391     0.000020293650    -0.000102235299

  **** Optimization is complete! (in 5 steps) ****
    Final optimized geometry and variables:
    Molecular point group: c1

    Geometry (in Angstrom), charge = 0, multiplicity = 1:

    H           -2.525378344111     0.179678137860     0.841616069500
    O           -2.013828834714    -0.079817009118     0.090746127138
    C           -0.946535778183     0.792001744255    -0.101801261293
    C            0.351252824750     0.025932593492    -0.029553522056
    H           -1.013608762120     1.261708560937    -1.074832694099
    H           -0.902036351679     1.572093836486     0.649023504424
    F            0.412890426058    -0.933232303446    -0.931158674969
    F            1.369742393718     0.848460322970    -0.243773227588
    F            0.524413188405    -0.524521694763     1.159442193556

  Mulliken Charges: (a.u.)
   Center  Symbol    Alpha    Beta     Spin     Total
       1     H     0.27071  0.27071  0.00000  0.45858
       2     O     4.36304  4.36304  0.00000 -0.72609
       3     C     3.05715  3.05715  0.00000 -0.11431
       4     C     2.45485  2.45485  0.00000  1.09031
       5     H     0.40253  0.40253  0.00000  0.19495
       6     H     0.40982  0.40982  0.00000  0.18036
       7     F     4.67621  4.67621  0.00000 -0.35243
       8     F     4.68502  4.68502  0.00000 -0.37004
       9     F     4.68067  4.68067  0.00000 -0.36133

   Total alpha = 25.00000, Total beta = 25.00000, Total charge =  0.00000
