                              Psi4 1.0.54 Driver

  ==> Input File <==

--------------------------------------------------------------------------
set {
	reference rhf
	basis cc-pvtz
}

set_num_threads( 4 )
memory 2 gb

molecule MOL {
0 1

O	 0.039593	 -0.214323	 0.338915
C	 1.121787	 0.124983	 0.000110
C	 1.496866	 1.503770	 -0.479186
O	 2.167739	 -0.685178	 -0.000678
C	 0.332487	 2.483396	 -0.501047
H	 2.297522	 1.859134	 0.161242
H	 1.935260	 1.392249	 -1.465510
C	 0.746973	 3.868057	 -0.990153
H	 -0.092142	 2.557229	 0.493830
H	 -0.454454	 2.090322	 -1.134892
C	 -0.412029	 4.858532	 -1.013889
H	 1.537932	 4.255251	 -0.353204
H	 1.171821	 3.787660	 -1.987288
H	 -0.836360	 4.986957	 -0.023922
H	 -0.088925	 5.831786	 -1.364684
H	 -1.205064	 4.516069	 -1.669934
C	 3.449556	 -0.089977	 -0.000570
H	 3.585694	 0.522473	 -0.879546
H	 4.155805	 -0.904274	 -0.001389
H	 3.586173	 0.521118	 0.879272

	symmetry c1
}
set optking {
	frozen_dihedral = ("
		1 2 4 17
	")
}

ee,wfn = optimize('scf', return_wfn=True)
oeprop( wfn, 'DIPOLE', 'QUADRUPOLE', 'MULLIKEN_CHARGES')
f=open( 'psi4out.xyz', 'w' )
f.write( "20  " )
f.write( str(ee) + "\n" )
f.write( MOL.save_string_xyz() )
f.close()
--------------------------------------------------------------------------

    Molecular point group: c1
  Charge       = 0
  Multiplicity = 1
  Basis Set: CC-PVTZ
  Basis Set:
  @DF-RHF Final Energy:  -384.05863339405755
    Total Energy =                       -384.0586333940580062
    Molecular point group: c1
  Basis Set: CC-PVTZ
  Basis Set:
  Basis Set: CC-PVTZ
  Basis Set:
  @DF-RHF Final Energy:  -383.92765895990954
    Total Energy =                       -383.9276589599096496
  Basis Set: CC-PVTZ
  Basis Set:
  Basis Set: CC-PVTZ
  Basis Set:
  @DF-RHF Final Energy:  -384.03114929259499
    Total Energy =                       -384.0311492925951597
  Basis Set: CC-PVTZ
  Basis Set:
  Basis Set: CC-PVTZ
  Basis Set:
  @DF-RHF Final Energy:  -384.06521060130268
    Total Energy =                       -384.0652106013022831
  Basis Set: CC-PVTZ
  Basis Set:
  @DF-RHF Final Energy:  -384.06736253097830
    Total Energy =                       -384.0673625309782437
  @DF-RHF Final Energy:  -383.99606136584612
    Total Energy =                       -383.9960613658458328
  @DF-RHF Final Energy:  -384.06248371500180
    Total Energy =                       -384.0624837150021449
  @DF-RHF Final Energy:  -384.06793056743732
    Total Energy =                       -384.0679305674370880
  @DF-RHF Final Energy:  -384.06573125605411
    Total Energy =                       -384.0657312560542778
  Basis Set: CC-PVTZ
  Basis Set:
  @DF-RHF Final Energy:  -384.06834070541873
    Total Energy =                       -384.0683407054191321
  Basis Set: CC-PVTZ
  Basis Set:
  Basis Set: CC-PVTZ
  Basis Set:
  @DF-RHF Final Energy:  -384.06835915926433
    Total Energy =                       -384.0683591592644461
  Basis Set: CC-PVTZ
  Basis Set:
  Basis Set: CC-PVTZ
  Basis Set:
  @DF-RHF Final Energy:  -384.06836072650736
    Total Energy =                       -384.0683607265077626
  Basis Set: CC-PVTZ
  Basis Set:
  Charge       = 0
  Multiplicity = 1
  Basis Set: CC-PVTZ
  Basis Set:

    Orbital Energies (a.u.)
    -----------------------

    Doubly Occupied:

       1A    -20.593228     2A    -20.529540     3A    -11.366303
       4A    -11.293118     5A    -11.243288     6A    -11.222453
       7A    -11.221327     8A    -11.211544     9A     -1.465341
      10A     -1.367898    11A     -1.092924    12A     -1.017978
      13A     -0.984657    14A     -0.902518    15A     -0.811159
      16A     -0.767973    17A     -0.701870    18A     -0.690956
      19A     -0.675983    20A     -0.650681    21A     -0.605195
      22A     -0.594555    23A     -0.589936    24A     -0.554127
      25A     -0.541916    26A     -0.523769    27A     -0.509683
      28A     -0.483001    29A     -0.477060    30A     -0.474654
      31A     -0.451567    32A     -0.433878

  @DF-RHF Final Energy:  -384.06836097439924

   => Energetics <=

    Nuclear Repulsion Energy =            383.8449199651092272
    One-Electron Energy =               -1283.7264010496360243
    Two-Electron Energy =                 515.8131201101277838
    DFT Exchange-Correlation Energy =       0.0000000000000000
    Empirical Dispersion Energy =           0.0000000000000000
    PCM Polarization Energy =               0.0000000000000000
    EFP Energy =                            0.0000000000000000
    Total Energy =                       -384.0683609743989564
    Molecular point group: c1
  Basis Set: CC-PVTZ
  Basis Set:

  -Total Gradient:
     Atom            X                  Y                   Z
    ------   -----------------  -----------------  -----------------
       1        0.000831034517     0.001491973554     0.001413957175
       2       -0.001023842548    -0.001543259244    -0.001082884447
       3       -0.000009746249    -0.000017129509    -0.000010251393
       4       -0.000083665777    -0.000946670874    -0.001975329263
       5        0.000004810551     0.000010755449     0.000009426108
       6       -0.000011216334     0.000004659406    -0.000000122663
       7        0.000001463615    -0.000001145283    -0.000003848836
       8       -0.000005671741    -0.000010391680    -0.000005266471
       9       -0.000001908284     0.000002973677     0.000007302196
      10        0.000005181789    -0.000007088614    -0.000000999518
      11        0.000004628367     0.000007259101     0.000000986225
      12       -0.000003834641     0.000004708982     0.000001339173
      13        0.000003088758    -0.000003339120    -0.000006496380
      14       -0.000001184679     0.000002513808     0.000003729680
      15        0.000001022687    -0.000000271230    -0.000000677910
      16        0.000004026356    -0.000005453556     0.000001324328
      17        0.000283161951     0.001017404120     0.001648145093
      18       -0.000000978247    -0.000001020065     0.000007578303
      19       -0.000010724527     0.000009579564    -0.000004448828
      20        0.000014354435    -0.000016058489    -0.000003462569

  **** Optimization is complete! (in 13 steps) ****
    Final optimized geometry and variables:
    Molecular point group: c1

    Geometry (in Angstrom), charge = 0, multiplicity = 1:

    O           -0.988339167995    -0.892293412008     1.515754797856
    C            0.041865181098    -0.913400750730     0.943847136652
    C            0.364220779622    -0.011999754061    -0.228040999472
    O            0.974138475239    -1.788718759199     1.322039466669
    C           -0.798078415184     0.887164118911    -0.627139405830
    H            1.233475111811     0.586933093013     0.023970505591
    H            0.664509711475    -0.640435786405    -1.060969064259
    C           -0.456111834444     1.785726434301    -1.812140961729
    H           -1.088606001337     1.492076678905     0.223507980366
    H           -1.658032502021     0.272686608823    -0.866009448769
    C           -1.614378393779     2.689260607145    -2.220907881509
    H            0.407540705573     2.398390653930    -1.566174447367
    H           -0.162449772540     1.172540017509    -2.660296839448
    H           -1.909034370620     3.339630289497    -1.404481551096
    H           -1.344418135459     3.315683407253    -3.063081350479
    H           -2.482673445144     2.105451531967    -2.506454601982
    C            2.334790612519    -1.635494531403     1.006536058349
    H            2.513828812209    -1.681172253031    -0.059317038592
    H            2.843258643265    -2.458846898561     1.481061125289
    H            2.728384145776    -0.707405392808     1.400820074718

  Mulliken Charges: (a.u.)
   Center  Symbol    Alpha    Beta     Spin     Total
       1     O     4.17903  4.17903  0.00000 -0.35806
       2     C     2.80333  2.80333  0.00000  0.39334
       3     C     3.13622  3.13622  0.00000 -0.27244
       4     O     4.13116  4.13116  0.00000 -0.26233
       5     C     3.08106  3.08106  0.00000 -0.16213
       6     H     0.44181  0.44181  0.00000  0.11639
       7     H     0.43884  0.43884  0.00000  0.12232
       8     C     3.08529  3.08529  0.00000 -0.17057
       9     H     0.44387  0.44387  0.00000  0.11226
      10     H     0.44388  0.44388  0.00000  0.11223
      11     C     3.14988  3.14988  0.00000 -0.29976
      12     H     0.45612  0.45612  0.00000  0.08776
      13     H     0.45580  0.45580  0.00000  0.08841
      14     H     0.45317  0.45317  0.00000  0.09366
      15     H     0.44820  0.44820  0.00000  0.10361
      16     H     0.45302  0.45302  0.00000  0.09396
      17     C     3.04638  3.04638  0.00000 -0.09275
      18     H     0.46092  0.46092  0.00000  0.07816
      19     H     0.43308  0.43308  0.00000  0.13385
      20     H     0.45895  0.45895  0.00000  0.08211

   Total alpha = 32.00000, Total beta = 32.00000, Total charge = -0.00000

*** Psi4 exiting successfully. Buy a developer a beer!
