  ==> Input File <==

--------------------------------------------------------------------------
set {
	reference rhf
	basis cc-pvtz
}

set_num_threads( 4 )
memory 2 gb

molecule MOL {
0 1

O	 -0.911890	 -1.254660	 0.736823
C	 -0.623058	 -0.157977	 0.351363
C	 -1.668731	 0.937955	 0.333026
N	 0.622280	 0.144970	 -0.099307
H	 -1.817011	 1.325087	 -0.667217
H	 -2.590622	 0.509672	 0.689654
H	 -1.386612	 1.763266	 0.975089
C	 1.664396	 -0.854993	 0.000772
C	 1.079459	 1.488287	 -0.364340
H	 2.462727	 -0.615153	 -0.690869
H	 1.261798	 -1.821849	 -0.240651
H	 2.081615	 -0.891605	 1.003877
H	 1.793302	 1.467165	 -1.177739
H	 0.269908	 2.133924	 -0.658747
H	 1.572685	 1.927245	 0.500002

	symmetry c1
}
set optking {
	frozen_dihedral = ("
		2 4 8 10
	")
}

ee = optimize('scf')
oeprop('DIPOLE', 'QUADRUPOLE', 'MULLIKEN_CHARGES')
f=open( 'psi4out.xyz', 'w' )
f.write( "15  " )
f.write( str(ee) + "\n" )
f.write( MOL.save_string_xyz() )
f.close()
--------------------------------------------------------------------------

    Molecular point group: c1
  Charge       = 0
  Multiplicity = 1
  Basis Set: CC-PVTZ
  Basis Set:
  @DF-RHF Final Energy:  -286.13522857809869
    Total Energy =                       -286.1352285780988041
    Molecular point group: c1
  Basis Set: CC-PVTZ
  Basis Set:
  Basis Set: CC-PVTZ
  Basis Set:
  @DF-RHF Final Energy:  -286.13540585116698
    Total Energy =                       -286.1354058511671496
  Basis Set: CC-PVTZ
  Basis Set:
  Basis Set: CC-PVTZ
  Basis Set:
  @DF-RHF Final Energy:  -286.13537987200203
    Total Energy =                       -286.1353798720021473
  Basis Set: CC-PVTZ
  Basis Set:
  Basis Set: CC-PVTZ
  Basis Set:
  @DF-RHF Final Energy:  -286.13548023085411
    Total Energy =                       -286.1354802308543412
  Basis Set: CC-PVTZ
  Basis Set:
  Basis Set: CC-PVTZ
  Basis Set:
  @DF-RHF Final Energy:  -286.13548740860898
    Total Energy =                       -286.1354874086088671
  Basis Set: CC-PVTZ
  Basis Set:
  Basis Set: CC-PVTZ
  Basis Set:
  @DF-RHF Final Energy:  -286.13549091794573
    Total Energy =                       -286.1354909179455035
  Basis Set: CC-PVTZ
  Basis Set:
  Charge       = 0
  Multiplicity = 1
  Basis Set: CC-PVTZ
  Basis Set:

    Orbital Energies (a.u.)
    -----------------------

    Doubly Occupied:

       1A    -20.504902     2A    -15.577826     3A    -11.334240
       4A    -11.264014     5A    -11.246705     6A    -11.226608
       7A     -1.388347     8A     -1.245384     9A     -1.014891
      10A     -0.973255    11A     -0.919801    12A     -0.738633
      13A     -0.682709    14A     -0.661074    15A     -0.653826
      16A     -0.589749    17A     -0.578225    18A     -0.569153
      19A     -0.562905    20A     -0.547485    21A     -0.530693
      22A     -0.504864    23A     -0.414816    24A     -0.371284

  @DF-RHF Final Energy:  -286.13549114163879

   => Energetics <=

    Nuclear Repulsion Energy =            253.0542034645450258
    One-Electron Energy =                -890.1766182614035188
    Two-Electron Energy =                 350.9869236552196412
    DFT Exchange-Correlation Energy =       0.0000000000000000
    Empirical Dispersion Energy =           0.0000000000000000
    PCM Polarization Energy =               0.0000000000000000
    EFP Energy =                            0.0000000000000000
    Total Energy =                       -286.1354911416388518
    Molecular point group: c1
  Basis Set: CC-PVTZ
  Basis Set:

  -Total Gradient:
     Atom            X                  Y                   Z
    ------   -----------------  -----------------  -----------------
       1       -0.000029811389     0.000001727581     0.000014680873
       2        0.000147631877     0.000176617421     0.000347930877
       3       -0.000008118904    -0.000022942897     0.000021484883
       4       -0.000115715792    -0.000120569353    -0.000470868851
       5        0.000006469314    -0.000008757235     0.000002535396
       6       -0.000013663363     0.000002015752     0.000003886478
       7       -0.000005526864    -0.000009877966    -0.000003614891
       8       -0.000243383439    -0.000287381764    -0.000239449704
       9       -0.000004016664    -0.000033462292    -0.000015258359
      10        0.000223553932     0.000292869876     0.000353000794
      11        0.000005257187    -0.000013432462    -0.000000617708
      12       -0.000000670587    -0.000007170257    -0.000012277725
      13        0.000009079911     0.000022782800    -0.000010312608
      14        0.000020264842    -0.000001636536     0.000007487547
      15        0.000008649938     0.000009217333     0.000001392998

  **** Optimization is complete! (in 7 steps) ****
    Final optimized geometry and variables:
    Molecular point group: c1

    Geometry (in Angstrom), charge = 0, multiplicity = 1:

    O           -0.920987714834    -1.299417924096     0.607111180631
    C           -0.656481711957    -0.208283516334     0.190423750345
    C           -1.715660148320     0.873610114439     0.163839075968
    N            0.578781676109     0.090612234713    -0.291170091436
    H           -1.851305196887     1.272496372125    -0.833315420284
    H           -2.638019771437     0.430855980515     0.501429377486
    H           -1.453801752706     1.693109261226     0.822086535632
    C            1.610541427326    -0.918623829691    -0.160061345547
    C            1.043195879159     1.438433833004    -0.522267874579
    H            2.399523528242    -0.707821745380    -0.869212046855
    H            1.200054072921    -1.893081318322    -0.360507615296
    H            2.039864078468    -0.928617559716     0.838051214641
    H            1.739921695931     1.440998924384    -1.350202863954
    H            0.231199481112     2.097169960859    -0.778217705395
    H            1.554603170217     1.847378936525     0.346443103761

  Mulliken Charges: (a.u.)
   Center  Symbol    Alpha    Beta     Spin     Total
       1     O     4.21913  4.21913  0.00000 -0.43825
       2     C     2.84494  2.84494  0.00000  0.31012
       3     C     3.16062  3.16062  0.00000 -0.32124
       4     N     3.56431  3.56431  0.00000 -0.12862
       5     H     0.44883  0.44883  0.00000  0.10234
       6     H     0.42872  0.42872  0.00000  0.14256
       7     H     0.44894  0.44894  0.00000  0.10212
       8     C     3.09398  3.09398  0.00000 -0.18796
       9     C     3.09597  3.09597  0.00000 -0.19194
      10     H     0.45768  0.45768  0.00000  0.08465
      11     H     0.43131  0.43131  0.00000  0.13739
      12     H     0.45575  0.45575  0.00000  0.08849
      13     H     0.44865  0.44865  0.00000  0.10269
      14     H     0.44545  0.44545  0.00000  0.10910
      15     H     0.45573  0.45573  0.00000  0.08854

   Total alpha = 24.00000, Total beta = 24.00000, Total charge =  0.00000
