                              Psi4 1.0.54 Driver

  ==> Input File <==

--------------------------------------------------------------------------
set {
	reference rhf
	basis cc-pvtz
}

set_num_threads( 4 )
memory 2 gb

molecule MOL {
0 1

H	 -2.071271	 -0.355711	 0.996010
O	 -2.041679	 -0.058866	 0.103463
C	 -0.959304	 0.780994	 -0.094939
C	 0.354905	 0.037902	 -0.006215
H	 -0.985899	 1.279578	 -1.057596
H	 -0.969809	 1.529522	 0.682889
F	 0.412060	 -0.931028	 -0.902708
F	 1.359641	 0.856111	 -0.239961
F	 0.545380	 -0.506387	 1.171682

	symmetry c1
}
set optking {
	frozen_dihedral = ("
		1 2 3 5
	")
}

ee,wfn = optimize('scf', return_wfn=True)
oeprop( wfn, 'DIPOLE', 'QUADRUPOLE', 'MULLIKEN_CHARGES')
f=open( 'psi4out.xyz', 'w' )
f.write( "9  " )
f.write( str(ee) + "\n" )
f.write( MOL.save_string_xyz() )
f.close()
--------------------------------------------------------------------------

    Molecular point group: c1
  Charge       = 0
  Multiplicity = 1
  Basis Set: CC-PVTZ
  Basis Set:
  @DF-RHF Final Energy:  -450.84526184616152
    Total Energy =                       -450.8452618461618044
    Molecular point group: c1
  Basis Set: CC-PVTZ
  Basis Set:
  Basis Set: CC-PVTZ
  Basis Set:
  @DF-RHF Final Energy:  -450.83671847936478
    Total Energy =                       -450.8367184793646061
  Basis Set: CC-PVTZ
  Basis Set:
  Basis Set: CC-PVTZ
  Basis Set:
  @DF-RHF Final Energy:  -450.84701081007887
    Total Energy =                       -450.8470108100789844
  Basis Set: CC-PVTZ
  Basis Set:
  Basis Set: CC-PVTZ
  Basis Set:
  @DF-RHF Final Energy:  -450.84723818973725
    Total Energy =                       -450.8472381897372543
  Basis Set: CC-PVTZ
  Basis Set:
  Basis Set: CC-PVTZ
  Basis Set:
  @DF-RHF Final Energy:  -450.84725117993816
    Total Energy =                       -450.8472511799383255
  Basis Set: CC-PVTZ
  Basis Set:
  Charge       = 0
  Multiplicity = 1
  Basis Set: CC-PVTZ
  Basis Set:

    Orbital Energies (a.u.)
    -----------------------

    Doubly Occupied:

       1A    -26.339159     2A    -26.338985     3A    -26.335054
       4A    -20.583844     5A    -11.493103     6A    -11.310020
       7A     -1.747284     8A     -1.644444     9A     -1.642300
      10A     -1.407379    11A     -1.050416    12A     -0.929410
      13A     -0.837447    14A     -0.835824    15A     -0.810408
      16A     -0.732915    17A     -0.718367    18A     -0.704132
      19A     -0.671473    20A     -0.665208    21A     -0.648769
      22A     -0.633092    23A     -0.617662    24A     -0.534607
      25A     -0.484739

  @DF-RHF Final Energy:  -450.84725335616730

   => Energetics <=

    Nuclear Repulsion Energy =            277.6871400872785784
    One-Electron Energy =               -1177.6367037201284802
    Two-Electron Energy =                 449.1023102766826014
    DFT Exchange-Correlation Energy =       0.0000000000000000
    Empirical Dispersion Energy =           0.0000000000000000
    PCM Polarization Energy =               0.0000000000000000
    EFP Energy =                            0.0000000000000000
    Total Energy =                       -450.8472533561673572
    Molecular point group: c1
  Basis Set: CC-PVTZ
  Basis Set:

  -Total Gradient:
     Atom            X                  Y                   Z
    ------   -----------------  -----------------  -----------------
       1       -0.000193016869     0.000283636961     0.000193978816
       2        0.000287819402    -0.000237903330    -0.000184393944
       3        0.000169281303    -0.000259374531    -0.000220419254
       4        0.000185114422    -0.000142436775     0.000251558414
       5       -0.000142170399     0.000211411331     0.000195886951
       6       -0.000030798626    -0.000037846281     0.000013728829
       7       -0.000057256736    -0.000044602631    -0.000043461784
       8       -0.000033841544     0.000085780093    -0.000025192171
       9       -0.000185130953     0.000141335162    -0.000181685847

  **** Optimization is complete! (in 6 steps) ****
    Final optimized geometry and variables:
    Molecular point group: c1

    Geometry (in Angstrom), charge = 0, multiplicity = 1:

    H           -1.853946149704    -0.668638969686     1.248727740271
    O           -1.985365725101    -0.200553983507     0.443216157334
    C           -0.974980102189     0.725158486173     0.247487021804
    C            0.339883227087     0.059584495838    -0.091604863414
    H           -1.253548712612     1.355439932593    -0.583589280805
    H           -0.806800725988     1.352318331508     1.115940609768
    F            0.277686691643    -0.637798081671    -1.200658498469
    F            1.285649407365     0.964606560913    -0.236572235340
    F            0.716952529927    -0.761800163131     0.871140708320

  Mulliken Charges: (a.u.)
   Center  Symbol    Alpha    Beta     Spin     Total
       1     H     0.38645  0.38645  0.00000  0.22710
       2     O     4.19235  4.19235  0.00000 -0.38470
       3     C     2.99170  2.99170  0.00000  0.01659
       4     C     2.68352  2.68352  0.00000  0.63296
       5     H     0.44720  0.44720  0.00000  0.10560
       6     H     0.46166  0.46166  0.00000  0.07669
       7     F     4.60754  4.60754  0.00000 -0.21509
       8     F     4.61250  4.61250  0.00000 -0.22499
       9     F     4.61708  4.61708  0.00000 -0.23416

   Total alpha = 25.00000, Total beta = 25.00000, Total charge = -0.00000

*** Psi4 exiting successfully. Buy a developer a beer!
