                              Psi4 1.0.54 Driver

  ==> Input File <==

--------------------------------------------------------------------------
set {
	reference rhf
	basis cc-pvtz
}

set_num_threads( 4 )
memory 2 gb

molecule MOL {
0 1

H	 1.887680	 2.362387	 -0.507015
N	 1.066158	 1.801576	 -0.585644
C	 1.263552	 0.494993	 0.021953
H	 0.860948	 1.714565	 -1.559119
C	 -0.016533	 -0.325589	 -0.026925
H	 1.549151	 0.650620	 1.056944
H	 2.070975	 -0.071906	 -0.443534
C	 -1.280353	 0.525521	 0.047747
H	 -0.016686	 -0.912532	 -0.939714
H	 -0.014099	 -1.037598	 0.796369
C	 -2.560681	 -0.301323	 -0.007747
H	 -1.279957	 1.241025	 -0.770189
H	 -1.270445	 1.110526	 0.963468
H	 -2.617064	 -0.872870	 -0.928010
H	 -3.439525	 0.331102	 0.043462
H	 -2.609427	 -1.002736	 0.818585

	symmetry c1
}
set optking {
	frozen_dihedral = ("
		6 3 5 9
	")
}

ee,wfn = optimize('scf', return_wfn=True)
oeprop( wfn, 'DIPOLE', 'QUADRUPOLE', 'MULLIKEN_CHARGES')
f=open( 'psi4out.xyz', 'w' )
f.write( "16  " )
f.write( str(ee) + "\n" )
f.write( MOL.save_string_xyz() )
f.close()
--------------------------------------------------------------------------

    Molecular point group: c1
  Charge       = 0
  Multiplicity = 1
  Basis Set: CC-PVTZ
  Basis Set:
  @DF-RHF Final Energy:  -212.39374916050869
    Total Energy =                       -212.3937491605087189
    Molecular point group: c1
  Basis Set: CC-PVTZ
  Basis Set:
  Basis Set: CC-PVTZ
  Basis Set:
  @DF-RHF Final Energy:  -212.39291617288330
    Total Energy =                       -212.3929161728833037
  Basis Set: CC-PVTZ
  Basis Set:
  Basis Set: CC-PVTZ
  Basis Set:
  @DF-RHF Final Energy:  -212.39586820020719
    Total Energy =                       -212.3958682002074170
  Basis Set: CC-PVTZ
  Basis Set:
  Basis Set: CC-PVTZ
  Basis Set:
  @DF-RHF Final Energy:  -212.39599922599456
    Total Energy =                       -212.3959992259942737
  Basis Set: CC-PVTZ
  Basis Set:
  Basis Set: CC-PVTZ
  Basis Set:
  @DF-RHF Final Energy:  -212.39600886123861
    Total Energy =                       -212.3960088612387267
  Basis Set: CC-PVTZ
  Basis Set:
  Charge       = 0
  Multiplicity = 1
  Basis Set: CC-PVTZ
  Basis Set:

    Orbital Energies (a.u.)
    -----------------------

    Doubly Occupied:

       1A    -15.527681     2A    -11.239209     3A    -11.208864
       4A    -11.204456     5A    -11.201272     6A     -1.179115
       7A     -1.053750     8A     -0.959403     9A     -0.849517
      10A     -0.779579    11A     -0.668637    12A     -0.622720
      13A     -0.615897    14A     -0.575982    15A     -0.562061
      16A     -0.522836    17A     -0.498575    18A     -0.469177
      19A     -0.462660    20A     -0.454458    21A     -0.381861

  @DF-RHF Final Energy:  -212.39600985782175

   => Energetics <=

    Nuclear Repulsion Energy =            189.1965984395645251
    One-Electron Energy =                -661.1097942002195396
    Two-Electron Energy =                 259.5171859028330914
    DFT Exchange-Correlation Energy =       0.0000000000000000
    Empirical Dispersion Energy =           0.0000000000000000
    PCM Polarization Energy =               0.0000000000000000
    EFP Energy =                            0.0000000000000000
    Total Energy =                       -212.3960098578219231
    Molecular point group: c1
  Basis Set: CC-PVTZ
  Basis Set:

  -Total Gradient:
     Atom            X                  Y                   Z
    ------   -----------------  -----------------  -----------------
       1       -0.000033846295    -0.000032195278    -0.000017978731
       2        0.000018455404     0.000017329910    -0.000013277679
       3       -0.003039737797     0.005409979261     0.001615507840
       4        0.000012403398    -0.000003895216     0.000025005716
       5       -0.002360296767     0.005217878952    -0.003070488915
       6        0.002933728723    -0.005410088364    -0.000887323993
       7       -0.000000403564     0.000025639180     0.000005100461
       8        0.000009202724    -0.000008997074     0.000084528879
       9        0.002482816476    -0.005229404974     0.002297467100
      10       -0.000017097933     0.000010510062    -0.000003471905
      11       -0.000008307357    -0.000001215225    -0.000022144199
      12        0.000000041650    -0.000011172238     0.000006913887
      13       -0.000014512491     0.000000467840    -0.000013706621
      14        0.000003337346    -0.000000979520     0.000005512210
      15        0.000009527831    -0.000003266430    -0.000009699872
      16        0.000004688652     0.000019409113    -0.000001944177

  **** Optimization is complete! (in 6 steps) ****
    Final optimized geometry and variables:
    Molecular point group: c1

    Geometry (in Angstrom), charge = 0, multiplicity = 1:

    H            2.415519713617     1.769244648052    -0.190527961497
    N            1.534938125792     1.332982021094    -0.362749969812
    C            1.541455679065    -0.041329887020     0.109419363257
    H            1.377903497188     1.370543015872    -1.348642374137
    C            0.193452098732    -0.750752409423    -0.055501842695
    H            1.828256048933    -0.054881732651     1.155138910113
    H            2.295278051011    -0.648726340903    -0.393738605430
    C           -1.043679254703     0.095501382302     0.223128980864
    H            0.138568812575    -1.209860377960    -1.040225486216
    H            0.197331307371    -1.596185563339     0.629107072437
    C           -2.332385324456    -0.717504909472     0.151604599524
    H           -1.094562128334     0.919179505913    -0.477697165888
    H           -0.951560464340     0.547887275212     1.205908800042
    H           -2.460927451059    -1.163943610392    -0.829378830404
    H           -3.198613034909    -0.095365479018     0.345917464221
    H           -2.333189435123    -1.521532797469     0.880438093063

  Mulliken Charges: (a.u.)
   Center  Symbol    Alpha    Beta     Spin     Total
       1     H     0.42916  0.42916  0.00000  0.14168
       2     N     3.68685  3.68685  0.00000 -0.37371
       3     C     3.03703  3.03703  0.00000 -0.07405
       4     H     0.43133  0.43133  0.00000  0.13735
       5     C     3.09850  3.09850  0.00000 -0.19700
       6     H     0.45540  0.45540  0.00000  0.08921
       7     H     0.46224  0.46224  0.00000  0.07552
       8     C     3.07169  3.07169  0.00000 -0.14338
       9     H     0.45343  0.45343  0.00000  0.09314
      10     H     0.45426  0.45426  0.00000  0.09148
      11     C     3.15098  3.15098  0.00000 -0.30195
      12     H     0.45264  0.45264  0.00000  0.09471
      13     H     0.45421  0.45421  0.00000  0.09157
      14     H     0.45700  0.45700  0.00000  0.08601
      15     H     0.44871  0.44871  0.00000  0.10259
      16     H     0.45659  0.45659  0.00000  0.08682

   Total alpha = 21.00000, Total beta = 21.00000, Total charge = -0.00000

*** Psi4 exiting successfully. Buy a developer a beer!
