  ==> Input File <==

--------------------------------------------------------------------------
set {
	reference rhf
	basis cc-pvtz
}

set_num_threads( 4 )
memory 2 gb

molecule MOL {
0 1

H	 -1.393741	 1.038477	 2.127972
C	 -1.064685	 0.569208	 1.224953
C	 -1.921159	 0.444511	 0.084752
C	 0.172226	 0.075988	 1.125868
H	 -2.921973	 0.830884	 0.132132
C	 -1.484709	 -0.146611	 -1.031788
H	 0.871422	 0.131401	 1.936543
N	 0.640204	 -0.530428	 -0.000115
H	 -2.096916	 -0.257381	 -1.902933
C	 -0.135447	 -0.683083	 -1.136289
C	 2.006991	 -1.033007	 -0.000020
O	 0.292911	 -1.220381	 -2.121207
H	 2.182444	 -1.636914	 -0.880881
H	 2.678769	 -0.195442	 -0.002236
H	 2.183828	 -1.633244	 0.883082

	symmetry c1
}
set optking {
	frozen_dihedral = ("
		10 8 11 13
	")
}

ee = optimize('scf')
oeprop('DIPOLE', 'QUADRUPOLE', 'MULLIKEN_CHARGES')
f=open( 'psi4out.xyz', 'w' )
f.write( "15  " )
f.write( str(ee) + "\n" )
f.write( MOL.save_string_xyz() )
f.close()
--------------------------------------------------------------------------

    Molecular point group: c1
  Charge       = 0
  Multiplicity = 1
  Basis Set: CC-PVTZ
  Basis Set:
  @DF-RHF Final Energy:  -360.72224146507841
    Total Energy =                       -360.7222414650787528
    Molecular point group: c1
  Basis Set: CC-PVTZ
  Basis Set:
  Basis Set: CC-PVTZ
  Basis Set:
  @DF-RHF Final Energy:  -360.72253550024197
    Total Energy =                       -360.7225355002415199
  Basis Set: CC-PVTZ
  Basis Set:
  Basis Set: CC-PVTZ
  Basis Set:
  @DF-RHF Final Energy:  -360.72255579801867
    Total Energy =                       -360.7225557980187887
  Basis Set: CC-PVTZ
  Basis Set:
  Basis Set: CC-PVTZ
  Basis Set:
  @DF-RHF Final Energy:  -360.72257571212214
    Total Energy =                       -360.7225757121218521
  Basis Set: CC-PVTZ
  Basis Set:
  Charge       = 0
  Multiplicity = 1
  Basis Set: CC-PVTZ
  Basis Set:

    Orbital Energies (a.u.)
    -----------------------

    Doubly Occupied:

       1A    -20.501771     2A    -15.616476     3A    -11.339556
       4A    -11.293218     5A    -11.263521     6A    -11.258220
       7A    -11.230688     8A    -11.228384     9A     -1.390570
      10A     -1.285767    11A     -1.118804    12A     -1.028873
      13A     -0.972297    14A     -0.875753    15A     -0.838566
      16A     -0.719120    17A     -0.703092    18A     -0.663394
      19A     -0.652682    20A     -0.625219    21A     -0.611935
      22A     -0.574061    23A     -0.558048    24A     -0.550491
      25A     -0.529355    26A     -0.482805    27A     -0.420144
      28A     -0.410790    29A     -0.311004

  @DF-RHF Final Energy:  -360.72258223987575

   => Energetics <=

    Nuclear Repulsion Energy =            358.4557125034800151
    One-Electron Energy =               -1200.2473809008924945
    Two-Electron Energy =                 481.0690861575366171
    DFT Exchange-Correlation Energy =       0.0000000000000000
    Empirical Dispersion Energy =           0.0000000000000000
    PCM Polarization Energy =               0.0000000000000000
    EFP Energy =                            0.0000000000000000
    Total Energy =                       -360.7225822398758055
    Molecular point group: c1
  Basis Set: CC-PVTZ
  Basis Set:

  -Total Gradient:
     Atom            X                  Y                   Z
    ------   -----------------  -----------------  -----------------
       1        0.000008197214     0.000011404798    -0.000008640092
       2        0.000027843985     0.000027773847    -0.000015109252
       3       -0.000018681133    -0.000011710442    -0.000012062995
       4       -0.000053632190    -0.000092982461     0.000050345800
       5       -0.000004408352     0.000000485706    -0.000004515958
       6       -0.000013226978     0.000020055383     0.000011867374
       7        0.000017703344     0.000017880827    -0.000011318583
       8        0.000153890913     0.000443301048    -0.000186637318
       9        0.000000814034     0.000003352834     0.000001064053
      10       -0.000104628568    -0.000244883123     0.000114658985
      11       -0.000144328860    -0.000334155606     0.000254361028
      12        0.000041947682     0.000007564812     0.000034951557
      13        0.000135730261     0.000175824284    -0.000233954717
      14       -0.000042445418    -0.000030686195     0.000009045072
      15       -0.000004775935     0.000006774286    -0.000004054951

  **** Optimization is complete! (in 5 steps) ****
    Final optimized geometry and variables:
    Molecular point group: c1

    Geometry (in Angstrom), charge = 0, multiplicity = 1:

    H           -1.267620448124     1.392312103593     2.384516477167
    C           -0.938277872398     0.920068654249     1.483146590325
    C           -1.795061155237     0.789900406437     0.343619818030
    C            0.298331519935     0.425281809890     1.387037785991
    H           -2.796457267572     1.174927999024     0.389881865001
    C           -1.358163748346     0.195044863906    -0.770698932809
    H            0.996747382344     0.483299323192     2.198137702611
    N            0.766058358353    -0.186564287400     0.263982044233
    H           -1.969962105366     0.080698510164    -1.641758438545
    C           -0.006484437399    -0.335783942908    -0.874658109112
    C            2.134927945583    -0.683029156135     0.259965041080
    O            0.427716607943    -0.865119714884    -1.861151909351
    H            2.284176087961    -1.270159705287    -0.626917615436
    H            2.837171406516     0.141223267852     0.260648598711
    H            2.305516931727    -1.295633326518     1.134873078177

  Mulliken Charges: (a.u.)
   Center  Symbol    Alpha    Beta     Spin     Total
       1     H     0.41409  0.41409  0.00000  0.17182
       2     C     3.10221  3.10221  0.00000 -0.20442
       3     C     3.06191  3.06191  0.00000 -0.12381
       4     C     3.03295  3.03295  0.00000 -0.06590
       5     H     0.41833  0.41833  0.00000  0.16333
       6     C     3.11620  3.11620  0.00000 -0.23240
       7     H     0.42059  0.42059  0.00000  0.15881
       8     N     3.51258  3.51258  0.00000 -0.02517
       9     H     0.40889  0.40889  0.00000  0.18222
      10     C     2.84549  2.84549  0.00000  0.30902
      11     C     3.10877  3.10877  0.00000 -0.21755
      12     O     4.23659  4.23659  0.00000 -0.47318
      13     H     0.42132  0.42132  0.00000  0.15735
      14     H     0.44816  0.44816  0.00000  0.10368
      15     H     0.45191  0.45191  0.00000  0.09619

   Total alpha = 29.00000, Total beta = 29.00000, Total charge =  0.00000
