  ==> Input File <==

--------------------------------------------------------------------------
set {
	reference rhf
	basis cc-pvtz
}

set_num_threads( 4 )
memory 2 gb

molecule MOL {
0 1

H	 -0.566068	 -1.666549	 -1.942521
C	 -0.781932	 -0.604205	 -1.992245
O	 -0.775228	 0.000056	 -0.739966
H	 -1.778777	 -0.482102	 -2.391673
H	 -0.083178	 -0.140818	 -2.681192
C	 0.406133	 -0.000384	 0.036994
C	 1.526415	 -0.003194	 -0.997339
C	 0.498772	 1.259027	 0.900673
C	 0.495883	 -1.257378	 0.904465
H	 1.452279	 0.872071	 -1.630204
H	 1.451276	 -0.881020	 -1.626529
H	 2.497919	 -0.002741	 -0.517601
H	 0.368981	 2.144239	 0.289753
H	 1.470064	 1.313479	 1.377660
H	 -0.248448	 1.271586	 1.684297
H	 0.363971	 -2.144195	 0.296316
H	 1.467114	 -1.312636	 1.381470
H	 -0.251246	 -1.265768	 1.688235

	symmetry c1
}
set optking {
	frozen_dihedral = ("
		2 3 6 7
	")
}

ee = optimize('scf')
oeprop('DIPOLE', 'QUADRUPOLE', 'MULLIKEN_CHARGES')
f=open( 'psi4out.xyz', 'w' )
f.write( "18  " )
f.write( str(ee) + "\n" )
f.write( MOL.save_string_xyz() )
f.close()
--------------------------------------------------------------------------

    Molecular point group: c1
  Charge       = 0
  Multiplicity = 1
  Basis Set: CC-PVTZ
  Basis Set:
  @DF-RHF Final Energy:  -271.26336657167735
    Total Energy =                       -271.2633665716770679
    Molecular point group: c1
  Basis Set: CC-PVTZ
  Basis Set:
  Basis Set: CC-PVTZ
  Basis Set:
  @DF-RHF Final Energy:  -271.26869644606694
    Total Energy =                       -271.2686964460667696
  Basis Set: CC-PVTZ
  Basis Set:
  Basis Set: CC-PVTZ
  Basis Set:
  @DF-RHF Final Energy:  -271.27330968351890
    Total Energy =                       -271.2733096835186188
  Basis Set: CC-PVTZ
  Basis Set:
  Basis Set: CC-PVTZ
  Basis Set:
  @DF-RHF Final Energy:  -271.27455331187412
    Total Energy =                       -271.2745533118737171
  Basis Set: CC-PVTZ
  Basis Set:
  @DF-RHF Final Energy:  -271.27481699781083
    Total Energy =                       -271.2748169978110582
  @DF-RHF Final Energy:  -271.27485782576605
    Total Energy =                       -271.2748578257664462
  Basis Set: CC-PVTZ
  Basis Set:
  @DF-RHF Final Energy:  -271.27491216954343
    Total Energy =                       -271.2749121695435406
  Basis Set: CC-PVTZ
  Basis Set:
  Basis Set: CC-PVTZ
  Basis Set:
  @DF-RHF Final Energy:  -271.27493573697438
    Total Energy =                       -271.2749357369744416
  Basis Set: CC-PVTZ
  Basis Set:
  Basis Set: CC-PVTZ
  Basis Set:
  @DF-RHF Final Energy:  -271.27493727802363
    Total Energy =                       -271.2749372780235717
  Basis Set: CC-PVTZ
  Basis Set:
  Charge       = 0
  Multiplicity = 1
  Basis Set: CC-PVTZ
  Basis Set:

    Orbital Energies (a.u.)
    -----------------------

    Doubly Occupied:

       1A    -20.539019     2A    -11.280401     3A    -11.259117
       4A    -11.210594     5A    -11.203570     6A    -11.202221
       7A     -1.371830     8A     -1.075062     9A     -0.950667
      10A     -0.936929    11A     -0.912831    12A     -0.752831
      13A     -0.657575    14A     -0.647751    15A     -0.639544
      16A     -0.587755    17A     -0.575804    18A     -0.551941
      19A     -0.537217    20A     -0.526695    21A     -0.515482
      22A     -0.491432    23A     -0.485876    24A     -0.443271
      25A     -0.402209

  @DF-RHF Final Energy:  -271.27493727808718

   => Energetics <=

    Nuclear Repulsion Energy =            272.4936797351700193
    One-Electron Energy =                -908.0219772705867172
    Two-Electron Energy =                 364.2533602573294047
    DFT Exchange-Correlation Energy =       0.0000000000000000
    Empirical Dispersion Energy =           0.0000000000000000
    PCM Polarization Energy =               0.0000000000000000
    EFP Energy =                            0.0000000000000000
    Total Energy =                       -271.2749372780872363
    Molecular point group: c1
  Basis Set: CC-PVTZ
  Basis Set:

  -Total Gradient:
     Atom            X                  Y                   Z
    ------   -----------------  -----------------  -----------------
       1       -0.000003637859    -0.000003893846    -0.000000822203
       2        0.000786508656     0.002777212008    -0.001347629862
       3       -0.001196570948    -0.005286176831     0.002001775167
       4       -0.000000113804     0.000004718853     0.000007808495
       5       -0.000001621449     0.000001969153    -0.000004347733
       6        0.000414990772     0.005197665078    -0.000643130343
       7       -0.000019501933    -0.002693058515    -0.000019308745
       8        0.000001462180     0.000006439827    -0.000016478467
       9        0.000003899760    -0.000001408564     0.000009113399
      10       -0.000010726149    -0.000004533439    -0.000014856255
      11        0.000007254001     0.000003697448     0.000018508390
      12        0.000001705561     0.000006246398     0.000000942157
      13        0.000001350180     0.000001897707     0.000002560273
      14        0.000005414012     0.000000640168    -0.000001708208
      15        0.000008735129    -0.000004122273     0.000003855857
      16        0.000003694787     0.000004498956    -0.000003614861
      17       -0.000004620081    -0.000000369513     0.000009088239
      18        0.000001777181    -0.000011422617    -0.000001755297

  **** Optimization is complete! (in 10 steps) ****
    Final optimized geometry and variables:
    Molecular point group: c1

    Geometry (in Angstrom), charge = 0, multiplicity = 1:

    H           -0.855918792619    -1.513086393091    -1.617653583989
    C           -1.145910728183    -0.465522167698    -1.605989414503
    O           -1.006501502824     0.113859081592    -0.350566326192
    H           -2.194668757138    -0.406073092309    -1.860685560378
    H           -0.580345774873     0.057401476518    -2.369405650450
    C            0.242130161502     0.094894370318     0.320415293280
    C            1.438313688967     0.098492068498    -0.632151509588
    C            0.247978253171     1.353603394878     1.179248959023
    C            0.287296641088    -1.153356400727     1.204229839952
    H            1.406897028312     0.950497552735    -1.300884834457
    H            1.489569815369    -0.803932546561    -1.227257732959
    H            2.352863443500     0.162901634986    -0.055849695598
    H            0.226696652575     2.237429570438     0.553635985540
    H            1.131913853530     1.393481060195     1.805279004722
    H           -0.626966197424     1.371003525684     1.816333203467
    H            0.232672211769    -2.054501209756     0.604142017022
    H            1.204329640375    -1.191998954036     1.781307584392
    H           -0.551154650852    -1.154182026447     1.889138076859

  Mulliken Charges: (a.u.)
   Center  Symbol    Alpha    Beta     Spin     Total
       1     H     0.47045  0.47045  0.00000  0.05911
       2     C     3.04293  3.04293  0.00000 -0.08587
       3     O     4.19530  4.19530  0.00000 -0.39060
       4     H     0.44230  0.44230  0.00000  0.11540
       5     H     0.46702  0.46702  0.00000  0.06596
       6     C     2.87346  2.87346  0.00000  0.25307
       7     C     3.17430  3.17430  0.00000 -0.34860
       8     C     3.14075  3.14075  0.00000 -0.28150
       9     C     3.14885  3.14885  0.00000 -0.29769
      10     H     0.44527  0.44527  0.00000  0.10947
      11     H     0.44478  0.44478  0.00000  0.11043
      12     H     0.44385  0.44385  0.00000  0.11230
      13     H     0.45139  0.45139  0.00000  0.09723
      14     H     0.45911  0.45911  0.00000  0.08177
      15     H     0.44734  0.44734  0.00000  0.10532
      16     H     0.45058  0.45058  0.00000  0.09884
      17     H     0.45414  0.45414  0.00000  0.09172
      18     H     0.44818  0.44818  0.00000  0.10365

   Total alpha = 25.00000, Total beta = 25.00000, Total charge = -0.00000
