  ==> Input File <==

--------------------------------------------------------------------------
set {
	reference rhf
	basis 6-31G*
}

set_num_threads( 4 )
memory 2 gb

molecule MOL {
0 1

H	 -3.135461	 -1.215070	 0.001379
O	 -2.310168	 -0.871793	 -0.309793
C	 -2.026376	 0.340750	 0.341611
C	 -0.673256	 0.843270	 -0.132153
H	 -2.792215	 1.080697	 0.115987
H	 -2.013526	 0.200402	 1.421792
C	 0.486613	 -0.083066	 0.235839
H	 -0.715586	 0.970948	 -1.210718
H	 -0.508072	 1.829858	 0.297090
C	 1.840406	 0.433480	 -0.254303
H	 0.300215	 -1.068318	 -0.178947
H	 0.519509	 -0.203625	 1.318070
C	 2.054021	 1.917559	 0.041586
H	 2.635649	 -0.144505	 0.211787
H	 1.927934	 0.263498	 -1.325699
H	 2.006871	 2.114169	 1.108831
H	 3.022429	 2.255323	 -0.314848
H	 1.293732	 2.526702	 -0.439472

	symmetry c1
}
set optking {
	frozen_dihedral = ("
		14 10 7 11
	")
}

ee = optimize('scf')
oeprop('DIPOLE', 'QUADRUPOLE', 'MULLIKEN_CHARGES')
f=open( 'psi4out.xyz', 'w' )
f.write( "18  " )
f.write( str(ee) + "\n" )
f.write( MOL.save_string_xyz() )
f.close()
--------------------------------------------------------------------------

    Molecular point group: c1
  Charge       = 0
  Multiplicity = 1
  Basis Set: 6-31G*
  Basis Set:
  @DF-RHF Final Energy:  -271.17545128142808
    Total Energy =                       -271.1754512814277405
    Molecular point group: c1
  Basis Set: 6-31G*
  Basis Set:
  Basis Set: 6-31G*
  Basis Set:
  @DF-RHF Final Energy:  -271.17613024481739
    Total Energy =                       -271.1761302448173865
  Basis Set: 6-31G*
  Basis Set:
  Basis Set: 6-31G*
  Basis Set:
  @DF-RHF Final Energy:  -271.17710183719083
    Total Energy =                       -271.1771018371908895
  Basis Set: 6-31G*
  Basis Set:
  Basis Set: 6-31G*
  Basis Set:
  @DF-RHF Final Energy:  -271.17719911524352
    Total Energy =                       -271.1771991152434680
  Basis Set: 6-31G*
  Basis Set:
  Basis Set: 6-31G*
  Basis Set:
  @DF-RHF Final Energy:  -271.17720643067071
    Total Energy =                       -271.1772064306707080
  Basis Set: 6-31G*
  Basis Set:
  Basis Set: 6-31G*
  Basis Set:
  @DF-RHF Final Energy:  -271.17721043400275
    Total Energy =                       -271.1772104340028591
  Basis Set: 6-31G*
  Basis Set:
  Charge       = 0
  Multiplicity = 1
  Basis Set: 6-31G*
  Basis Set:

    Orbital Energies (a.u.)
    -----------------------

    Doubly Occupied:

       1A    -20.553124     2A    -11.267961     3A    -11.211256
       4A    -11.210958     5A    -11.206454     6A    -11.204966
       7A     -1.359817     8A     -1.074229     9A     -1.005298
      10A     -0.914709    11A     -0.830651    12A     -0.768521
      13A     -0.705679    14A     -0.633974    15A     -0.622972
      16A     -0.603296    17A     -0.565867    18A     -0.549983
      19A     -0.525096    20A     -0.501962    21A     -0.493065
      22A     -0.460424    23A     -0.456421    24A     -0.448591
      25A     -0.427112

  @DF-RHF Final Energy:  -271.17721109774129

   => Energetics <=

    Nuclear Repulsion Energy =            251.9704521026629607
    One-Electron Energy =                -867.0905563906644602
    Two-Electron Energy =                 343.9428931902600084
    DFT Exchange-Correlation Energy =       0.0000000000000000
    Empirical Dispersion Energy =           0.0000000000000000
    PCM Polarization Energy =               0.0000000000000000
    EFP Energy =                            0.0000000000000000
    Total Energy =                       -271.1772110977414627
    Molecular point group: c1
  Basis Set: 6-31G*
  Basis Set:

  -Total Gradient:
     Atom            X                  Y                   Z
    ------   -----------------  -----------------  -----------------
       1       -0.000001205822    -0.000002486155    -0.000003176789
       2       -0.000013090972     0.000000185132     0.000001648061
       3        0.000017937816    -0.000014490732     0.000007408990
       4        0.000002385606     0.000016009667    -0.000016342189
       5        0.000005889036    -0.000000133132    -0.000002331810
       6       -0.000005934946     0.000000479640     0.000001780949
       7        0.002289150295    -0.001377001344     0.004388660359
       8        0.000010963364     0.000007937023    -0.000007754402
       9       -0.000001160249    -0.000007913361     0.000004461301
      10       -0.000758016001    -0.002809651522    -0.004214599919
      11       -0.001809530381     0.001608874848    -0.003054894558
      12        0.000011562873    -0.000006153034     0.000005709235
      13       -0.000013512909     0.000011326261     0.000012265749
      14        0.000260434405     0.002580906513     0.002880691262
      15        0.000008249837    -0.000012958376    -0.000004143818
      16        0.000010530607     0.000004318396     0.000003812172
      17       -0.000005481271    -0.000003769558    -0.000005219628
      18       -0.000009171285     0.000004519739     0.000002025038

  **** Optimization is complete! (in 7 steps) ****
    Final optimized geometry and variables:
    Molecular point group: c1

    Geometry (in Angstrom), charge = 0, multiplicity = 1:

    H           -2.933574302300    -1.706870371678    -0.077054181402
    O           -2.120343752094    -1.312632497107    -0.358126146607
    C           -1.900226060770    -0.121818536789     0.355300715826
    C           -0.560436077482     0.460685268861    -0.063645117656
    H           -2.692358976447     0.595251611558     0.147525114536
    H           -1.903364091585    -0.312621418630     1.427892654937
    C            0.625502430074    -0.435272710388     0.308434979535
    H           -0.581185172008     0.619949116386    -1.139175769172
    H           -0.462666085123     1.438328732050     0.400457242742
    C            1.977161094924     0.034947274765    -0.246818528873
    H            0.416068594457    -1.424359294684    -0.083425062008
    H            0.684368585188    -0.517575358828     1.392318436507
    C            2.306408786380     1.506559589704     0.020109253181
    H            2.758930428208    -0.562797769713     0.215392785248
    H            2.018542912161    -0.155164367731    -1.316254639608
    H            2.239990113827     1.737457504619     1.080422318825
    H            3.317151525441     1.736692626917    -0.302912022869
    H            1.636690030641     2.177570590683    -0.507252242118

  Mulliken Charges: (a.u.)
   Center  Symbol    Alpha    Beta     Spin     Total
       1     H     0.28052  0.28052  0.00000  0.43896
       2     O     4.36994  4.36994  0.00000 -0.73988
       3     C     2.99689  2.99689  0.00000  0.00622
       4     C     3.16327  3.16327  0.00000 -0.32655
       5     H     0.42910  0.42910  0.00000  0.14180
       6     H     0.43276  0.43276  0.00000  0.13447
       7     C     3.15618  3.15618  0.00000 -0.31236
       8     H     0.41565  0.41565  0.00000  0.16871
       9     H     0.42155  0.42155  0.00000  0.15689
      10     C     3.15232  3.15232  0.00000 -0.30464
      11     H     0.40505  0.40505  0.00000  0.18989
      12     H     0.42730  0.42730  0.00000  0.14540
      13     C     3.24275  3.24275  0.00000 -0.48550
      14     H     0.42170  0.42170  0.00000  0.15660
      15     H     0.42120  0.42120  0.00000  0.15760
      16     H     0.42368  0.42368  0.00000  0.15265
      17     H     0.41972  0.41972  0.00000  0.16056
      18     H     0.42041  0.42041  0.00000  0.15917

   Total alpha = 25.00000, Total beta = 25.00000, Total charge = -0.00000
