  ==> Input File <==

--------------------------------------------------------------------------
set {
	reference rhf
	basis 6-31G*
}

set_num_threads( 4 )
memory 2 gb

molecule MOL {
0 1

H	 3.729471	 -0.928294	 -0.070608
O	 2.826016	 -1.159218	 0.122261
C	 2.077727	 -0.067559	 -0.035091
C	 0.624473	 -0.343591	 0.253101
O	 2.542965	 0.974826	 -0.363729
C	 -0.265902	 0.883932	 0.072916
H	 0.324016	 -1.163849	 -0.390541
H	 0.565024	 -0.726111	 1.268924
C	 -1.728698	 0.646073	 0.462102
H	 -0.209144	 1.219470	 -0.958188
H	 0.135059	 1.692851	 0.673903
C	 -1.968787	 0.402068	 1.954676
H	 -2.088920	 -0.217427	 -0.092307
H	 -2.334127	 1.489405	 0.132856
C	 -3.427257	 0.068569	 2.267918
H	 -1.331774	 -0.413424	 2.291176
H	 -1.676241	 1.276611	 2.529978
H	 -3.572894	 -0.098338	 3.330577
H	 -3.745057	 -0.828871	 1.745009
H	 -4.087465	 0.877013	 1.966618

	symmetry c1
}
set optking {
	frozen_dihedral = ("
		12 9 6 10
	")
}

ee = optimize('scf')
oeprop('DIPOLE', 'QUADRUPOLE', 'MULLIKEN_CHARGES')
f=open( 'psi4out.xyz', 'w' )
f.write( "20  " )
f.write( str(ee) + "\n" )
f.write( MOL.save_string_xyz() )
f.close()
--------------------------------------------------------------------------

    Molecular point group: c1
  Charge       = 0
  Multiplicity = 1
  Basis Set: 6-31G*
  Basis Set:
  @DF-RHF Final Energy:  -383.94797565586208
    Total Energy =                       -383.9479756558624217
    Molecular point group: c1
  Basis Set: 6-31G*
  Basis Set:
  Basis Set: 6-31G*
  Basis Set:
  @DF-RHF Final Energy:  -383.94859831804388
    Total Energy =                       -383.9485983180437643
  Basis Set: 6-31G*
  Basis Set:
  Basis Set: 6-31G*
  Basis Set:
  @DF-RHF Final Energy:  -383.94866710453755
    Total Energy =                       -383.9486671045374351
  Basis Set: 6-31G*
  Basis Set:
  Basis Set: 6-31G*
  Basis Set:
  @DF-RHF Final Energy:  -383.94841415104139
    Total Energy =                       -383.9484141510411064
  Basis Set: 6-31G*
  Basis Set:
  Basis Set: 6-31G*
  Basis Set:
  @DF-RHF Final Energy:  -383.94873748882821
    Total Energy =                       -383.9487374888285558
  Basis Set: 6-31G*
  Basis Set:
  Basis Set: 6-31G*
  Basis Set:
  @DF-RHF Final Energy:  -383.94874236847318
    Total Energy =                       -383.9487423684731198
  Basis Set: 6-31G*
  Basis Set:
  Basis Set: 6-31G*
  Basis Set:
  @DF-RHF Final Energy:  -383.94874453636362
    Total Energy =                       -383.9487445363636198
  Basis Set: 6-31G*
  Basis Set:
  Charge       = 0
  Multiplicity = 1
  Basis Set: 6-31G*
  Basis Set:

    Orbital Energies (a.u.)
    -----------------------

    Doubly Occupied:

       1A    -20.612537     2A    -20.551626     3A    -11.381193
       4A    -11.240262     5A    -11.222922     6A    -11.220669
       7A    -11.220079     8A    -11.212367     9A     -1.474600
      10A     -1.365656    11A     -1.096160    12A     -1.041049
      13A     -0.961184    14A     -0.868841    15A     -0.815805
      16A     -0.777472    17A     -0.699558    18A     -0.690080
      19A     -0.663758    20A     -0.635728    21A     -0.603143
      22A     -0.593808    23A     -0.575201    24A     -0.555906
      25A     -0.540260    26A     -0.512608    27A     -0.495725
      28A     -0.479287    29A     -0.470689    30A     -0.467582
      31A     -0.457178    32A     -0.443664

  @DF-RHF Final Energy:  -383.94874549267149

   => Energetics <=

    Nuclear Repulsion Energy =            375.8147106352508899
    One-Electron Energy =               -1267.6337191581251318
    Two-Electron Energy =                 507.8702630302030343
    DFT Exchange-Correlation Energy =       0.0000000000000000
    Empirical Dispersion Energy =           0.0000000000000000
    PCM Polarization Energy =               0.0000000000000000
    EFP Energy =                            0.0000000000000000
    Total Energy =                       -383.9487454926712076
    Molecular point group: c1
  Basis Set: 6-31G*
  Basis Set:

  -Total Gradient:
     Atom            X                  Y                   Z
    ------   -----------------  -----------------  -----------------
       1        0.000002771152    -0.000000256473     0.000004029728
       2        0.000000709726    -0.000008132605    -0.000020463346
       3       -0.000003300921     0.000007694923     0.000026765652
       4       -0.000003469188    -0.000006203695    -0.000095657250
       5       -0.000005200757    -0.000002975831     0.000004542532
       6        0.000069419730    -0.000381456655    -0.000091808007
       7        0.000017817192     0.000006047983     0.000019094407
       8       -0.000009902404     0.000022237163     0.000016916952
       9        0.000048136552    -0.000259200864    -0.000008657259
      10       -0.000037178805     0.000360263351     0.000100825005
      11       -0.000004645462    -0.000006951217     0.000004311322
      12       -0.000057552234     0.000262713541     0.000034876609
      13        0.000029166359     0.000005037439     0.000021133792
      14       -0.000041710990    -0.000004749813    -0.000016323502
      15        0.000002499801     0.000013964409     0.000007165864
      16        0.000002109353    -0.000004152860    -0.000002680751
      17       -0.000010452412    -0.000008331792    -0.000004868614
      18       -0.000001088166    -0.000000451429    -0.000000601394
      19        0.000008921410     0.000003803950    -0.000001071032
      20       -0.000007049942     0.000001100474     0.000002469296

  **** Optimization is complete! (in 8 steps) ****
    Final optimized geometry and variables:
    Molecular point group: c1

    Geometry (in Angstrom), charge = 0, multiplicity = 1:

    H            3.624364927643    -1.039739973514    -0.764895113271
    O            2.743037169600    -1.271574061034    -0.488733397455
    C            1.961795011238    -0.205677540647    -0.661696939606
    C            0.540180403571    -0.485185741044    -0.247101254358
    O            2.378841314896     0.819558326460    -1.092956430438
    C           -0.385914803726     0.714335259545    -0.434382371087
    H            0.198056899273    -1.339714316033    -0.825168780370
    H            0.571081832948    -0.818840806677     0.785098379318
    C           -1.851246300527     0.418589263330    -0.097109551655
    H           -0.316923248923     1.049084434283    -1.463767345309
    H           -0.028786909705     1.540839495465     0.172471194248
    C           -2.132434447756     0.167461018156     1.387101954656
    H           -2.194110475355    -0.435255575259    -0.679706928886
    H           -2.450765863796     1.265335615363    -0.423312310934
    C           -3.619894529901    -0.030399561401     1.678107210013
    H           -1.586833951507    -0.707880894949     1.730189926023
    H           -1.759637222777     1.008169271659     1.968490543756
    H           -3.793709767665    -0.206272586493     2.735065041776
    H           -4.016252951213    -0.881579407018     1.131663852536
    H           -4.195514633078     0.844157719384     1.388804184826

  Mulliken Charges: (a.u.)
   Center  Symbol    Alpha    Beta     Spin     Total
       1     H     0.26785  0.26785  0.00000  0.46429
       2     O     4.35159  4.35159  0.00000 -0.70318
       3     C     2.62223  2.62223  0.00000  0.75554
       4     C     3.21262  3.21262  0.00000 -0.42525
       5     O     4.27927  4.27927  0.00000 -0.55855
       6     C     3.15459  3.15459  0.00000 -0.30917
       7     H     0.39901  0.39901  0.00000  0.20198
       8     H     0.39693  0.39693  0.00000  0.20614
       9     C     3.15569  3.15569  0.00000 -0.31138
      10     H     0.40825  0.40825  0.00000  0.18349
      11     H     0.41194  0.41194  0.00000  0.17611
      12     C     3.15459  3.15459  0.00000 -0.30918
      13     H     0.42373  0.42373  0.00000  0.15254
      14     H     0.41786  0.41786  0.00000  0.16427
      15     C     3.23925  3.23925  0.00000 -0.47851
      16     H     0.42296  0.42296  0.00000  0.15407
      17     H     0.42130  0.42130  0.00000  0.15741
      18     H     0.41833  0.41833  0.00000  0.16335
      19     H     0.42133  0.42133  0.00000  0.15733
      20     H     0.42066  0.42066  0.00000  0.15869

   Total alpha = 32.00000, Total beta = 32.00000, Total charge = -0.00000
