  ==> Input File <==

--------------------------------------------------------------------------
set {
	reference rhf
	basis 6-31G*
}

set_num_threads( 1 )
memory 2 gb

molecule MOL {
0 1

H	 2.091023	 -1.015764	 -0.428264
C	 1.951159	 -0.223429	 0.317018
C	 0.692068	 0.589600	 0.160137
O	 2.762184	 -0.055885	 1.169248
C	 -0.558097	 -0.297372	 0.091132
H	 0.791645	 1.202255	 -0.728243
H	 0.616171	 1.253469	 1.020572
C	 -1.850991	 0.512573	 -0.019058
H	 -0.476753	 -0.965681	 -0.762987
H	 -0.604799	 -0.930658	 0.975228
C	 -3.096943	 -0.368295	 -0.099594
H	 -1.800724	 1.150330	 -0.898172
H	 -1.931651	 1.177355	 0.838044
H	 -3.060452	 -1.020287	 -0.967456
H	 -3.996858	 0.233488	 -0.175704
H	 -3.191959	 -0.995686	 0.782074

	symmetry c1
}
set optking {
	frozen_dihedral = ("
		9 5 8 12,
		6 3 5 9
	")
}

ee = energy('scf')
oeprop('DIPOLE', 'QUADRUPOLE', 'MULLIKEN_CHARGES')
f=open( 'psi4out.xyz', 'w' )
f.write( "16  " )
f.write( str(ee) + "\n" )
f.write( MOL.save_string_xyz() )
f.close()
--------------------------------------------------------------------------

    Molecular point group: c1

    Geometry (in Angstrom), charge = 0, multiplicity = 1:

       Center              X                  Y                   Z               Mass
    ------------   -----------------  -----------------  -----------------  -----------------
           H          2.112256089572    -1.036125331257    -0.704192450283     1.007825032070
           C          1.972392089572    -0.243790331257     0.041089549717    12.000000000000
           C          0.713301089572     0.569238668743    -0.115791450283    12.000000000000
           O          2.783417089572    -0.076246331257     0.893319549717    15.994914619560
           C         -0.536863910428    -0.317733331257    -0.184796450283    12.000000000000
           H          0.812878089572     1.181893668743    -1.004171450283     1.007825032070
           H          0.637404089572     1.233107668743     0.744643549717     1.007825032070
           C         -1.829757910428     0.492211668743    -0.294986450283    12.000000000000
           H         -0.455519910428    -0.986042331257    -1.038915450283     1.007825032070
           H         -0.583565910428    -0.951019331257     0.699299549717     1.007825032070
           C         -3.075709910428    -0.388656331257    -0.375522450283    12.000000000000
           H         -1.779490910428     1.129968668743    -1.174100450283     1.007825032070
           H         -1.910417910428     1.156993668743     0.562115549717     1.007825032070
           H         -3.039218910428    -1.040648331257    -1.243384450283     1.007825032070
           H         -3.975624910428     0.213126668743    -0.451632450283     1.007825032070
           H         -3.170725910428    -1.016047331257     0.506145549717     1.007825032070

  Charge       = 0
  Multiplicity = 1
  Basis Set: 6-31G*
  Basis Set:

    Orbital Energies (a.u.)
    -----------------------

    Doubly Occupied:

       1A    -20.562619     2A    -11.326645     3A    -11.236421
       4A    -11.235098     5A    -11.229357     6A    -11.218460
       7A     -1.402365     8A     -1.096501     9A     -1.018865
      10A     -0.905791    11A     -0.811944    12A     -0.793991
      13A     -0.677420    14A     -0.647472    15A     -0.630726
      16A     -0.604215    17A     -0.582739    18A     -0.548896
      19A     -0.527682    20A     -0.507357    21A     -0.487641
      22A     -0.481614    23A     -0.479935    24A     -0.409079

  @DF-RHF Final Energy:  -270.01956051294394

   => Energetics <=

    Nuclear Repulsion Energy =            228.7939490418767434
    One-Electron Energy =                -818.7813542792741828
    Two-Electron Energy =                 319.9678447244538120
    DFT Exchange-Correlation Energy =       0.0000000000000000
    Empirical Dispersion Energy =           0.0000000000000000
    PCM Polarization Energy =               0.0000000000000000
    EFP Energy =                            0.0000000000000000
    Total Energy =                       -270.0195605129435990

  Mulliken Charges: (a.u.)
   Center  Symbol    Alpha    Beta     Spin     Total
       1     H     0.43226  0.43226  0.00000  0.13549
       2     C     2.82949  2.82949  0.00000  0.34103
       3     C     3.20896  3.20896  0.00000 -0.41793
       4     O     4.23705  4.23705  0.00000 -0.47409
       5     C     3.16450  3.16450  0.00000 -0.32900
       6     H     0.40679  0.40679  0.00000  0.18642
       7     H     0.40067  0.40067  0.00000  0.19867
       8     C     3.15150  3.15150  0.00000 -0.30300
       9     H     0.41962  0.41962  0.00000  0.16077
      10     H     0.41334  0.41334  0.00000  0.17331
      11     C     3.24044  3.24044  0.00000 -0.48088
      12     H     0.42068  0.42068  0.00000  0.15865
      13     H     0.41841  0.41841  0.00000  0.16319
      14     H     0.42048  0.42048  0.00000  0.15904
      15     H     0.41639  0.41639  0.00000  0.16723
      16     H     0.41945  0.41945  0.00000  0.16110

   Total alpha = 24.00000, Total beta = 24.00000, Total charge =  0.00000
