                              Psi4 1.0.54 Driver

  ==> Input File <==

--------------------------------------------------------------------------
set {
	reference rhf
	basis cc-pvtz
}

set_num_threads( 4 )
memory 2 gb

molecule MOL {
0 1

H	 0.365242	 -2.285204	 0.774804
C	 -0.444565	 -1.577700	 0.962152
N	 -0.537714	 -0.645117	 0.000000
O	 -1.140819	 -1.662163	 1.923825
C	 -1.522613	 0.412524	 0.000000
H	 0.110504	 -0.695247	 -0.746515
H	 -2.150256	 0.356137	 -0.880771
H	 -1.005621	 1.357208	 0.000000
H	 -2.150256	 0.356137	 0.880771

	symmetry c1
}
set optking {
	frozen_dihedral = ("
		6 3 5 7
	")
}

ee,wfn = optimize('scf', return_wfn=True)
oeprop( wfn, 'DIPOLE', 'QUADRUPOLE', 'MULLIKEN_CHARGES')
f=open( 'psi4out.xyz', 'w' )
f.write( "9  " )
f.write( str(ee) + "\n" )
f.write( MOL.save_string_xyz() )
f.close()
--------------------------------------------------------------------------

    Molecular point group: c1
  Charge       = 0
  Multiplicity = 1
  Basis Set: CC-PVTZ
  Basis Set:
  @DF-RHF Final Energy:  -208.04307703064956
    Total Energy =                       -208.0430770306495560
    Molecular point group: c1
  Basis Set: CC-PVTZ
  Basis Set:
  Basis Set: CC-PVTZ
  Basis Set:
  @DF-RHF Final Energy:  -208.04350478332390
    Total Energy =                       -208.0435047833240390
  Basis Set: CC-PVTZ
  Basis Set:
  Basis Set: CC-PVTZ
  Basis Set:
  @DF-RHF Final Energy:  -208.04354488636591
    Total Energy =                       -208.0435448863659360
  Basis Set: CC-PVTZ
  Basis Set:
  Basis Set: CC-PVTZ
  Basis Set:
  @DF-RHF Final Energy:  -208.04353132596481
    Total Energy =                       -208.0435313259647501
  Basis Set: CC-PVTZ
  Basis Set:
  Basis Set: CC-PVTZ
  Basis Set:
  @DF-RHF Final Energy:  -208.04356629857574
    Total Energy =                       -208.0435662985758540
  Basis Set: CC-PVTZ
  Basis Set:
  Charge       = 0
  Multiplicity = 1
  Basis Set: CC-PVTZ
  Basis Set:

    Orbital Energies (a.u.)
    -----------------------

    Doubly Occupied:

       1A    -20.515841     2A    -15.585172     3A    -11.337667
       4A    -11.259114     5A     -1.393446     6A     -1.239961
       7A     -0.970572     8A     -0.808256     9A     -0.748857
      10A     -0.646347    11A     -0.629222    12A     -0.596997
      13A     -0.554701    14A     -0.542886    15A     -0.428026
      16A     -0.395759

  @DF-RHF Final Energy:  -208.04356648549452

   => Energetics <=

    Nuclear Repulsion Energy =            122.6890698638376733
    One-Electron Energy =                -526.1596266645517517
    Two-Electron Energy =                 195.4269903152196548
    DFT Exchange-Correlation Energy =       0.0000000000000000
    Empirical Dispersion Energy =           0.0000000000000000
    PCM Polarization Energy =               0.0000000000000000
    EFP Energy =                            0.0000000000000000
    Total Energy =                       -208.0435664854944093
    Molecular point group: c1
  Basis Set: CC-PVTZ
  Basis Set:

  -Total Gradient:
     Atom            X                  Y                   Z
    ------   -----------------  -----------------  -----------------
       1        0.000000155787     0.000008224820     0.000007018400
       2       -0.000012880622    -0.000005843119    -0.000065990548
       3        0.000086767539     0.000077865890     0.000080749082
       4       -0.000013792686    -0.000001285409     0.000024102748
       5       -0.000054444510    -0.000053203377     0.000012192029
       6       -0.000040467035    -0.000033089692    -0.000032901912
       7        0.000015609533     0.000017078353    -0.000017096950
       8        0.000009616829    -0.000010764574    -0.000006232376
       9        0.000009435165     0.000001017107    -0.000001840474

  **** Optimization is complete! (in 6 steps) ****
    Final optimized geometry and variables:
    Molecular point group: c1

    Geometry (in Angstrom), charge = 0, multiplicity = 1:

    H            1.273113209558    -1.439784760883     0.060597576685
    C            0.469888668386    -0.724326053391     0.246948891330
    N            0.382939337211     0.205585265888    -0.718574711036
    O           -0.225074171417    -0.797822180841     1.210374540207
    C           -0.595641121503     1.268981991559    -0.722953916130
    H            1.025714162039     0.143492501728    -1.469016036276
    H           -1.229946467910     1.207156032467    -1.598654109755
    H           -0.113084301480     2.238472976922    -0.708845444998
    H           -1.207086536422     1.171081583424     0.158234726073

  Mulliken Charges: (a.u.)
   Center  Symbol    Alpha    Beta     Spin     Total
       1     H     0.46271  0.46271  0.00000  0.07457
       2     C     2.88098  2.88098  0.00000  0.23804
       3     N     3.60831  3.60831  0.00000 -0.21663
       4     O     4.21532  4.21532  0.00000 -0.43065
       5     C     3.08128  3.08128  0.00000 -0.16257
       6     H     0.40932  0.40932  0.00000  0.18137
       7     H     0.45474  0.45474  0.00000  0.09051
       8     H     0.45468  0.45468  0.00000  0.09064
       9     H     0.43265  0.43265  0.00000  0.13471

   Total alpha = 16.00000, Total beta = 16.00000, Total charge =  0.00000

*** Psi4 exiting successfully. Buy a developer a beer!
