  ==> Input File <==

--------------------------------------------------------------------------
set {
	reference rhf
	basis cc-pvtz
}

set_num_threads( 4 )
memory 2 gb

molecule MOL {
0 1

H	 -1.835082	 1.385983	 0.000069
C	 -1.300516	 0.441153	 -0.000028
O	 -0.006604	 0.654344	 -0.000106
O	 -1.828920	 -0.612308	 0.000113
C	 0.824594	 -0.315852	 -0.630702
C	 2.255746	 0.148352	 -0.500235
H	 0.528265	 -0.409833	 -1.665745
H	 0.670022	 -1.272339	 -0.151950
H	 2.394887	 1.108529	 -0.980516
H	 2.916035	 -0.569947	 -0.971317
H	 2.537352	 0.241714	 0.540895

	symmetry c1
}
set optking {
	frozen_dihedral = ("
		5 3 2 4
	")
}

ee = optimize('scf')
oeprop('DIPOLE', 'QUADRUPOLE', 'MULLIKEN_CHARGES')
f=open( 'psi4out.xyz', 'w' )
f.write( "11  " )
f.write( str(ee) + "\n" )
f.write( MOL.save_string_xyz() )
f.close()
--------------------------------------------------------------------------

    Molecular point group: c1
  Charge       = 0
  Multiplicity = 1
  Basis Set: CC-PVTZ
  Basis Set:
  @DF-RHF Final Energy:  -266.92663399373396
    Total Energy =                       -266.9266339937339581
    Molecular point group: c1
  Basis Set: CC-PVTZ
  Basis Set:
  Basis Set: CC-PVTZ
  Basis Set:
  @DF-RHF Final Energy:  -266.91958038514974
    Total Energy =                       -266.9195803851497431
  Basis Set: CC-PVTZ
  Basis Set:
  Basis Set: CC-PVTZ
  Basis Set:
  @DF-RHF Final Energy:  -266.92695637365694
    Total Energy =                       -266.9269563736571627
  Basis Set: CC-PVTZ
  Basis Set:
  Basis Set: CC-PVTZ
  Basis Set:
  @DF-RHF Final Energy:  -266.92713667771613
    Total Energy =                       -266.9271366777161916
  Basis Set: CC-PVTZ
  Basis Set:
  Basis Set: CC-PVTZ
  Basis Set:
  @DF-RHF Final Energy:  -266.92713873489981
    Total Energy =                       -266.9271387348998701
  Basis Set: CC-PVTZ
  Basis Set:
  Charge       = 0
  Multiplicity = 1
  Basis Set: CC-PVTZ
  Basis Set:

    Orbital Energies (a.u.)
    -----------------------

    Doubly Occupied:

       1A    -20.600812     2A    -20.548517     3A    -11.370854
       4A    -11.291982     5A    -11.225603     6A     -1.476403
       7A     -1.378088     8A     -1.053182     9A     -0.901638
      10A     -0.808741    11A     -0.740995    12A     -0.691240
      13A     -0.680052    14A     -0.603414    15A     -0.569480
      16A     -0.558959    17A     -0.521556    18A     -0.515625
      19A     -0.465173    20A     -0.455332

  @DF-RHF Final Energy:  -266.92713939237444

   => Energetics <=

    Nuclear Repulsion Energy =            179.1073213586252848
    One-Electron Energy =                -719.1536336553418778
    Two-Electron Energy =                 273.1191729043420082
    DFT Exchange-Correlation Energy =       0.0000000000000000
    Empirical Dispersion Energy =           0.0000000000000000
    PCM Polarization Energy =               0.0000000000000000
    EFP Energy =                            0.0000000000000000
    Total Energy =                       -266.9271393923745563
    Molecular point group: c1
  Basis Set: CC-PVTZ
  Basis Set:

  -Total Gradient:
     Atom            X                  Y                   Z
    ------   -----------------  -----------------  -----------------
       1        0.000012705699    -0.000013035847    -0.000005517554
       2        0.000867877209     0.002711830906    -0.016844104615
       3       -0.000201370467    -0.005884065549     0.013563780525
       4       -0.000562183794    -0.000555175591     0.009119772175
       5       -0.000117335624     0.003732579937    -0.005854488479
       6        0.000003289194     0.000014398834     0.000006735806
       7        0.000004267653     0.000000817201     0.000023875571
       8       -0.000011689856    -0.000006002954    -0.000002030731
       9        0.000002667740     0.000003219716     0.000000006712
      10        0.000000453398    -0.000003302623    -0.000001761009
      11        0.000001318847    -0.000001264030    -0.000006268401

  **** Optimization is complete! (in 6 steps) ****
    Final optimized geometry and variables:
    Molecular point group: c1

    Geometry (in Angstrom), charge = 0, multiplicity = 1:

    H           -1.803253010059     1.346718991587     0.311340342677
    C           -1.290751683476     0.394805216597     0.207473605742
    O            0.012588704740     0.562156656765     0.287928256743
    O           -1.849466940481    -0.637902854567     0.121430295967
    C            0.849158813861    -0.400304195764    -0.349781333247
    C            2.272738191014     0.095732917322    -0.264050254028
    H            0.527697099969    -0.508083589131    -1.377086667253
    H            0.732646289958    -1.356139583329     0.139979067769
    H            2.378494279950     1.053622000851    -0.757098739070
    H            2.935742141600    -0.614150652742    -0.744146673130
    H            2.578130152626     0.205779916458     0.768630243682

  Mulliken Charges: (a.u.)
   Center  Symbol    Alpha    Beta     Spin     Total
       1     H     0.45179  0.45179  0.00000  0.09641
       2     C     2.84370  2.84370  0.00000  0.31260
       3     O     4.14848  4.14848  0.00000 -0.29696
       4     O     4.18891  4.18891  0.00000 -0.37782
       5     C     2.97196  2.97196  0.00000  0.05608
       6     C     3.13314  3.13314  0.00000 -0.26628
       7     H     0.45843  0.45843  0.00000  0.08314
       8     H     0.44900  0.44900  0.00000  0.10201
       9     H     0.45101  0.45101  0.00000  0.09797
      10     H     0.45454  0.45454  0.00000  0.09093
      11     H     0.44904  0.44904  0.00000  0.10193

   Total alpha = 20.00000, Total beta = 20.00000, Total charge = -0.00000
