                              Psi4 1.0.54 Driver

  ==> Input File <==

--------------------------------------------------------------------------
set {
	reference rhf
	basis cc-pvtz
}

set_num_threads( 4 )
memory 2 gb

molecule MOL {
0 1

H	 -2.144599	 -0.788425	 0.368839
O	 -1.432053	 -0.565244	 -0.200812
C	 -0.727158	 0.534527	 0.310686
C	 0.680222	 0.664433	 -0.252229
H	 -1.306802	 1.408001	 0.044211
H	 -0.690821	 0.490158	 1.397609
C	 1.605391	 -0.489360	 0.123098
H	 0.615089	 0.745647	 -1.332226
H	 1.101414	 1.597893	 0.110950
H	 1.247627	 -1.432485	 -0.275204
H	 2.601435	 -0.332816	 -0.273062
H	 1.691776	 -0.589902	 1.200774

	symmetry c1
}
set optking {
	frozen_dihedral = ("
		1 2 3 4
	")
}

ee,wfn = optimize('scf', return_wfn=True)
oeprop( wfn, 'DIPOLE', 'QUADRUPOLE', 'MULLIKEN_CHARGES')
f=open( 'psi4out.xyz', 'w' )
f.write( "12  " )
f.write( str(ee) + "\n" )
f.write( MOL.save_string_xyz() )
f.close()
--------------------------------------------------------------------------

    Molecular point group: c1
  Charge       = 0
  Multiplicity = 1
  Basis Set: CC-PVTZ
  Basis Set:
  @DF-RHF Final Energy:  -193.18938788489751
    Total Energy =                       -193.1893878848976556
    Molecular point group: c1
  Basis Set: CC-PVTZ
  Basis Set:
  Basis Set: CC-PVTZ
  Basis Set:
  @DF-RHF Final Energy:  -193.01449547190333
    Total Energy =                       -193.0144954719034445
  Basis Set: CC-PVTZ
  Basis Set:
  Basis Set: CC-PVTZ
  Basis Set:
  @DF-RHF Final Energy:  -193.12787900969460
    Total Energy =                       -193.1278790096946523
  Basis Set: CC-PVTZ
  Basis Set:
  Basis Set: CC-PVTZ
  Basis Set:
  @DF-RHF Final Energy:  -193.18642955515705
    Total Energy =                       -193.1864295551570763
  Basis Set: CC-PVTZ
  Basis Set:
  @DF-RHF Final Energy:  -193.02344497262067
    Total Energy =                       -193.0234449726207799
  @DF-RHF Final Energy:  -193.16683215454779
    Total Energy =                       -193.1668321545478477
  @DF-RHF Final Energy:  -193.19058783056215
    Total Energy =                       -193.1905878305619524
  Basis Set: CC-PVTZ
  Basis Set:
  @DF-RHF Final Energy:  -193.19095310196062
    Total Energy =                       -193.1909531019608153
  Basis Set: CC-PVTZ
  Basis Set:
  Basis Set: CC-PVTZ
  Basis Set:
  @DF-RHF Final Energy:  -193.19100951204817
    Total Energy =                       -193.1910095120481117
  Basis Set: CC-PVTZ
  Basis Set:
  Basis Set: CC-PVTZ
  Basis Set:
  @DF-RHF Final Energy:  -193.19101243215900
    Total Energy =                       -193.1910124321591127
  Basis Set: CC-PVTZ
  Basis Set:
  Charge       = 0
  Multiplicity = 1
  Basis Set: CC-PVTZ
  Basis Set:

    Orbital Energies (a.u.)
    -----------------------

    Doubly Occupied:

       1A    -20.546301     2A    -11.266292     3A    -11.212985
       4A    -11.202166     5A     -1.364202     6A     -1.048258
       7A     -0.919936     8A     -0.798941     9A     -0.708931
      10A     -0.642694    11A     -0.589582    12A     -0.583093
      13A     -0.532662    14A     -0.501548    15A     -0.484646
      16A     -0.465914    17A     -0.435810

  @DF-RHF Final Energy:  -193.19101277174437

   => Energetics <=

    Nuclear Repulsion Energy =            133.3838575537757549
    One-Electron Energy =                -526.5418193493519539
    Two-Electron Energy =                 199.9669490238317451
    DFT Exchange-Correlation Energy =       0.0000000000000000
    Empirical Dispersion Energy =           0.0000000000000000
    PCM Polarization Energy =               0.0000000000000000
    EFP Energy =                            0.0000000000000000
    Total Energy =                       -193.1910127717444254
    Molecular point group: c1
  Basis Set: CC-PVTZ
  Basis Set:

  -Total Gradient:
     Atom            X                  Y                   Z
    ------   -----------------  -----------------  -----------------
       1        0.000276340414    -0.000926071215     0.000608365376
       2       -0.000274530377     0.000925133128    -0.000547654072
       3       -0.000167688417     0.000442323863    -0.000583691882
       4        0.000182068487    -0.000461071869     0.000520786764
       5        0.000022168988    -0.000025829517     0.000003634998
       6       -0.000039405449    -0.000008419399    -0.000046676262
       7        0.000024248240     0.000043496922     0.000036832366
       8        0.000005804898     0.000028150217     0.000018521060
       9        0.000013957604     0.000012796447     0.000010327873
      10       -0.000014801143    -0.000014375368     0.000003901331
      11       -0.000014466655    -0.000012545772    -0.000008503958
      12       -0.000013696591    -0.000003587436    -0.000015843593

  **** Optimization is complete! (in 11 steps) ****
    Final optimized geometry and variables:
    Molecular point group: c1

    Geometry (in Angstrom), charge = 0, multiplicity = 1:

    H           -1.279177274141     1.254143579626     1.386293976852
    O           -1.128529621202     0.786125155808     0.586710502008
    C            0.213305294209     0.914348656508     0.191591232340
    C            0.558330725967    -0.202706944493    -0.774778317061
    H            0.371800173297     1.877196828831    -0.286864999184
    H            0.870623478130     0.864773432450     1.056974883275
    C            0.494172788573    -1.591421413909    -0.148906413592
    H           -0.121335259195    -0.146732050202    -1.618940157609
    H            1.556149544822    -0.016620080637    -1.161654148408
    H           -0.496226404312    -1.796909276604     0.234711052452
    H            0.739141122762    -2.355149348835    -0.877937314491
    H            1.197840028791    -1.681693594439     0.672807139796

  Mulliken Charges: (a.u.)
   Center  Symbol    Alpha    Beta     Spin     Total
       1     H     0.39413  0.39413  0.00000  0.21174
       2     O     4.20133  4.20133  0.00000 -0.40265
       3     C     2.97055  2.97055  0.00000  0.05891
       4     C     3.08179  3.08179  0.00000 -0.16359
       5     H     0.46503  0.46503  0.00000  0.06993
       6     H     0.47439  0.47439  0.00000  0.05123
       7     C     3.15018  3.15018  0.00000 -0.30036
       8     H     0.45201  0.45201  0.00000  0.09597
       9     H     0.45534  0.45534  0.00000  0.08932
      10     H     0.44538  0.44538  0.00000  0.10924
      11     H     0.45034  0.45034  0.00000  0.09931
      12     H     0.45953  0.45953  0.00000  0.08095

   Total alpha = 17.00000, Total beta = 17.00000, Total charge = -0.00000

*** Psi4 exiting successfully. Buy a developer a beer!
