  ==> Input File <==

--------------------------------------------------------------------------
set {
	reference rhf
	basis cc-pvtz
}

set_num_threads( 4 )
memory 2 gb

molecule MOL {
0 1

O	 -2.374409	 1.338660	 -0.336961
C	 -2.104891	 0.204655	 -0.107126
C	 -0.881910	 -0.448129	 -0.720509
C	 -2.949910	 -0.638219	 0.818225
C	 -0.700512	 -0.014781	 -2.180696
H	 -1.025158	 -1.520282	 -0.674916
H	 0.005150	 -0.197599	 -0.148473
C	 0.516488	 -0.668013	 -2.832389
H	 -1.602571	 -0.266246	 -2.724096
H	 -0.595090	 1.066225	 -2.231811
C	 0.779947	 -0.226751	 -4.273147
H	 0.399280	 -1.748489	 -2.803907
H	 1.395661	 -0.441670	 -2.235373
C	 -0.290400	 -0.651319	 -5.275633
H	 1.733874	 -0.639165	 -4.586587
H	 0.894050	 0.853746	 -4.302174
H	 -0.429627	 -1.727453	 -5.263739
H	 -0.006669	 -0.366930	 -6.282307
H	 -1.248845	 -0.192092	 -5.066414
H	 -3.440322	 -1.417144	 0.243099
H	 -3.694377	 -0.025850	 1.303346
H	 -2.331085	 -1.129829	 1.560495

	symmetry c1
}
set optking {
	frozen_dihedral = ("
		6 3 2 1
	")
}

ee = optimize('scf')
oeprop('DIPOLE', 'QUADRUPOLE', 'MULLIKEN_CHARGES')
f=open( 'psi4out.xyz', 'w' )
f.write( "22  " )
f.write( str(ee) + "\n" )
f.write( MOL.save_string_xyz() )
f.close()
--------------------------------------------------------------------------

    Molecular point group: c1
  Charge       = 0
  Multiplicity = 1
  Basis Set: CC-PVTZ
  Basis Set:
  @DF-RHF Final Energy:  -348.22297035573388
    Total Energy =                       -348.2229703557335370
    Molecular point group: c1
  Basis Set: CC-PVTZ
  Basis Set:
  Basis Set: CC-PVTZ
  Basis Set:
  @DF-RHF Final Energy:  -348.22373948346933
    Total Energy =                       -348.2237394834694442
  Basis Set: CC-PVTZ
  Basis Set:
  Basis Set: CC-PVTZ
  Basis Set:
  @DF-RHF Final Energy:  -348.22319792711693
    Total Energy =                       -348.2231979271168711
  Basis Set: CC-PVTZ
  Basis Set:
  Basis Set: CC-PVTZ
  Basis Set:
  @DF-RHF Final Energy:  -348.22417508811179
    Total Energy =                       -348.2241750881117923
  Basis Set: CC-PVTZ
  Basis Set:
  Basis Set: CC-PVTZ
  Basis Set:
  @DF-RHF Final Energy:  -348.22418209324860
    Total Energy =                       -348.2241820932484302
  Basis Set: CC-PVTZ
  Basis Set:
  Basis Set: CC-PVTZ
  Basis Set:
  @DF-RHF Final Energy:  -348.22417633011804
    Total Energy =                       -348.2241763301175297
  Basis Set: CC-PVTZ
  Basis Set:
  Basis Set: CC-PVTZ
  Basis Set:
  @DF-RHF Final Energy:  -348.22418541197027
    Total Energy =                       -348.2241854119702680
  Basis Set: CC-PVTZ
  Basis Set:
  Charge       = 0
  Multiplicity = 1
  Basis Set: CC-PVTZ
  Basis Set:

    Orbital Energies (a.u.)
    -----------------------

    Doubly Occupied:

       1A    -20.537536     2A    -11.320651     3A    -11.229595
       4A    -11.227223     5A    -11.217523     6A    -11.216396
       7A    -11.215225     8A    -11.207363     9A     -1.398154
      10A     -1.092678    11A     -1.044080    12A     -1.002287
      13A     -0.936568    14A     -0.855861    15A     -0.783003
      16A     -0.732421    17A     -0.657057    18A     -0.652277
      19A     -0.631154    20A     -0.612146    21A     -0.605054
      22A     -0.582298    23A     -0.558989    24A     -0.550138
      25A     -0.523230    26A     -0.519315    27A     -0.500092
      28A     -0.483962    29A     -0.465680    30A     -0.463399
      31A     -0.460541    32A     -0.399924

  @DF-RHF Final Energy:  -348.22418520777046

   => Energetics <=

    Nuclear Repulsion Energy =            372.7734599692616939
    One-Electron Energy =               -1210.6316472359917498
    Two-Electron Energy =                 489.6340020589604478
    DFT Exchange-Correlation Energy =       0.0000000000000000
    Empirical Dispersion Energy =           0.0000000000000000
    PCM Polarization Energy =               0.0000000000000000
    EFP Energy =                            0.0000000000000000
    Total Energy =                       -348.2241852077696080
    Molecular point group: c1
  Basis Set: CC-PVTZ
  Basis Set:

  -Total Gradient:
     Atom            X                  Y                   Z
    ------   -----------------  -----------------  -----------------
       1        0.000971018508     0.000506417086     0.001155136087
       2       -0.001160528397    -0.000696945889    -0.001320032319
       3       -0.000575935251     0.000186380727    -0.001193060328
       4        0.000011368901    -0.000003550729     0.000015282917
       5       -0.000004993411     0.000004373694    -0.000010123792
       6        0.000787324640     0.000004807914     0.001374580590
       7       -0.000012446776    -0.000006265991    -0.000001608229
       8       -0.000010558345    -0.000003111942    -0.000000864860
       9        0.000013053379    -0.000002045123     0.000022264311
      10       -0.000004224470     0.000009506661    -0.000017974746
      11       -0.000015726553     0.000027437813     0.000005133426
      12       -0.000015040045     0.000000116441    -0.000002976213
      13        0.000006509680    -0.000010760098     0.000000462629
      14        0.000005245357    -0.000005935083    -0.000010927822
      15        0.000002311937     0.000006122353     0.000006763136
      16       -0.000007390828     0.000004637474    -0.000001569610
      17       -0.000005368423    -0.000005103302     0.000000509603
      18        0.000004134368    -0.000006133283     0.000000644616
      19        0.000019951357     0.000000105358    -0.000016241964
      20       -0.000005131104    -0.000004176204    -0.000000134615
      21        0.000000763599    -0.000001394912    -0.000004804158
      22       -0.000004338118    -0.000004482961    -0.000000458655

  **** Optimization is complete! (in 8 steps) ****
    Final optimized geometry and variables:
    Molecular point group: c1

    Geometry (in Angstrom), charge = 0, multiplicity = 1:

    O           -1.411323399233     1.468197000960     1.531124089713
    C           -1.122005311895     0.341529024927     1.770864201859
    C            0.052771508805    -0.340959949800     1.094962641822
    C           -1.877488187233    -0.467032565767     2.797947243657
    C            0.280248597187     0.101712948978    -0.346682499985
    H           -0.057421088845    -1.417944901199     1.166361209313
    H            0.923133269617    -0.093731159036     1.700782919187
    C            1.517706250668    -0.545837913468    -0.964506819347
    H           -0.601443060946    -0.140210174179    -0.930000201768
    H            0.376040316568     1.179950433944    -0.370556388734
    C            1.836112436195    -0.079716461714    -2.386182095366
    H            1.402983144192    -1.627770435114    -0.961148220388
    H            2.375056310646    -0.330584096545    -0.332243361961
    C            0.805338708091    -0.485885776240    -3.436647946853
    H            2.801628301738    -0.486265787653    -2.670901301111
    H            1.948990435191     1.000886621276    -2.390689988904
    H            0.663753178402    -1.562050702551    -3.447950800687
    H            1.128810891953    -0.186404319498    -4.426862072169
    H           -0.159154730446    -0.026487940846    -3.257945229702
    H           -2.390958199348    -1.286550389514     2.305524570592
    H           -2.595831666259     0.156609104059     3.307429931397
    H           -1.189993273012    -0.904048415676     3.514107124870

  Mulliken Charges: (a.u.)
   Center  Symbol    Alpha    Beta     Spin     Total
       1     O     4.17397  4.17397  0.00000 -0.34794
       2     C     2.85977  2.85977  0.00000  0.28045
       3     C     3.10892  3.10892  0.00000 -0.21784
       4     C     3.15305  3.15305  0.00000 -0.30611
       5     C     3.09089  3.09089  0.00000 -0.18178
       6     H     0.44524  0.44524  0.00000  0.10952
       7     H     0.44410  0.44410  0.00000  0.11180
       8     C     3.09622  3.09622  0.00000 -0.19243
       9     H     0.45092  0.45092  0.00000  0.09815
      10     H     0.43861  0.43861  0.00000  0.12277
      11     C     3.09010  3.09010  0.00000 -0.18020
      12     H     0.45507  0.45507  0.00000  0.08987
      13     H     0.44940  0.44940  0.00000  0.10121
      14     C     3.15273  3.15273  0.00000 -0.30547
      15     H     0.44850  0.44850  0.00000  0.10299
      16     H     0.45289  0.45289  0.00000  0.09421
      17     H     0.45583  0.45583  0.00000  0.08833
      18     H     0.44598  0.44598  0.00000  0.10803
      19     H     0.45202  0.45202  0.00000  0.09597
      20     H     0.44945  0.44945  0.00000  0.10111
      21     H     0.43621  0.43621  0.00000  0.12758
      22     H     0.45012  0.45012  0.00000  0.09976

   Total alpha = 32.00000, Total beta = 32.00000, Total charge = -0.00000
