  ==> Input File <==

--------------------------------------------------------------------------
set {
	reference rhf
	basis 6-31G*
}

set_num_threads( 4 )
memory 2 gb

molecule MOL {
0 1

H	 2.762133	 1.052010	 -1.245963
N	 1.952415	 0.462366	 -1.259706
C	 1.267428	 0.496480	 0.024474
H	 2.273466	 -0.465517	 -1.461879
C	 -0.016086	 -0.325158	 -0.029487
H	 1.021379	 1.531970	 0.239543
H	 1.888609	 0.144034	 0.851695
C	 -1.282277	 0.529072	 0.046735
H	 -0.012495	 -0.908639	 -0.945788
H	 -0.015903	 -1.041248	 0.791956
C	 -2.563920	 -0.301775	 -0.006060
H	 -1.284084	 1.244622	 -0.773004
H	 -1.271387	 1.115393	 0.963286
H	 -2.621848	 -0.873522	 -0.927727
H	 -3.445135	 0.329952	 0.047812
H	 -2.609542	 -1.004582	 0.821105

	symmetry c1
}
set optking {
	frozen_dihedral = ("
		6 3 5 9
	")
}

ee = optimize('scf')
oeprop('DIPOLE', 'QUADRUPOLE', 'MULLIKEN_CHARGES')
f=open( 'psi4out.xyz', 'w' )
f.write( "16  " )
f.write( str(ee) + "\n" )
f.write( MOL.save_string_xyz() )
f.close()
--------------------------------------------------------------------------

    Molecular point group: c1
  Charge       = 0
  Multiplicity = 1
  Basis Set: 6-31G*
  Basis Set:
  @DF-RHF Final Energy:  -212.31118192328029
    Total Energy =                       -212.3111819232801736
    Molecular point group: c1
  Basis Set: 6-31G*
  Basis Set:
  Basis Set: 6-31G*
  Basis Set:
  @DF-RHF Final Energy:  -212.31157175331884
    Total Energy =                       -212.3115717533189013
  Basis Set: 6-31G*
  Basis Set:
  Basis Set: 6-31G*
  Basis Set:
  @DF-RHF Final Energy:  -212.31169472028310
    Total Energy =                       -212.3116947202831852
  Basis Set: 6-31G*
  Basis Set:
  Charge       = 0
  Multiplicity = 1
  Basis Set: 6-31G*
  Basis Set:

    Orbital Energies (a.u.)
    -----------------------

    Doubly Occupied:

       1A    -15.532901     2A    -11.240019     3A    -11.211206
       4A    -11.209406     5A    -11.205057     6A     -1.175662
       7A     -1.055637     8A     -0.955441     9A     -0.844223
      10A     -0.790296    11A     -0.657490    12A     -0.642630
      13A     -0.596632    14A     -0.574265    15A     -0.568495
      16A     -0.514743    17A     -0.503635    18A     -0.466663
      19A     -0.462568    20A     -0.461906    21A     -0.379177

  @DF-RHF Final Energy:  -212.31169397038974

   => Energetics <=

    Nuclear Repulsion Energy =            187.0547454623611543
    One-Electron Energy =                -656.6367777989084971
    Two-Electron Energy =                 257.2703383661574890
    DFT Exchange-Correlation Energy =       0.0000000000000000
    Empirical Dispersion Energy =           0.0000000000000000
    PCM Polarization Energy =               0.0000000000000000
    EFP Energy =                            0.0000000000000000
    Total Energy =                       -212.3116939703898538
    Molecular point group: c1
  Basis Set: 6-31G*
  Basis Set:

  -Total Gradient:
     Atom            X                  Y                   Z
    ------   -----------------  -----------------  -----------------
       1        0.000018519734     0.000010081191    -0.000027646465
       2       -0.000026466138    -0.000000734861     0.000083746786
       3        0.000167259878    -0.000180016366     0.002622466333
       4       -0.000016096201     0.000017333910     0.000020624114
       5        0.001321975470    -0.002218171774     0.000893641760
       6       -0.000312808773     0.000472619282    -0.002534547880
       7       -0.000041617447    -0.000036540955     0.000028745795
       8        0.000047197116    -0.000004419276     0.000171451878
       9       -0.001168908762     0.001830192926    -0.001249387883
      10        0.000037361220     0.000089188813     0.000014769767
      11        0.000005999975    -0.000005999960    -0.000107322901
      12        0.000034870915     0.000026619208     0.000071289414
      13       -0.000064596590     0.000003688979     0.000044945894
      14       -0.000007978030    -0.000045185205     0.000005096032
      15        0.000001938570     0.000002949165    -0.000040294721
      16        0.000003349061     0.000038394924     0.000002422079

  **** Optimization is complete! (in 4 steps) ****
    Final optimized geometry and variables:
    Molecular point group: c1

    Geometry (in Angstrom), charge = 0, multiplicity = 1:

    H            2.817432086996     0.910998183816    -1.038471560730
    N            2.018573160721     0.306064387071    -1.023795205380
    C            1.384561307807     0.321471275049     0.290186622402
    H            2.349684675875    -0.614494716420    -1.242550115303
    C            0.086609064182    -0.507472003808     0.276834951787
    H            1.151667683166     1.359211216435     0.504951875293
    H            2.046489822750    -0.027437509759     1.083849347994
    C           -1.178245392557     0.354263673298     0.315426609636
    H            0.063998129669    -1.096943277450    -0.635617093054
    H            0.072393342975    -1.204441774529     1.110882054226
    C           -2.463106725295    -0.466482596900     0.219989996155
    H           -1.139390478815     1.067848299986    -0.503845087692
    H           -1.190233443665     0.938312290019     1.233705748073
    H           -2.495874012801    -1.036080545717    -0.704515462907
    H           -3.340977105221     0.171836522214     0.246037223500
    H           -2.541970977766    -1.170524176440     1.043999713802

  Mulliken Charges: (a.u.)
   Center  Symbol    Alpha    Beta     Spin     Total
       1     H     0.33337  0.33337  0.00000  0.33327
       2     N     3.92148  3.92148  0.00000 -0.84297
       3     C     3.06704  3.06704  0.00000 -0.13407
       4     H     0.33542  0.33542  0.00000  0.32917
       5     C     3.15269  3.15269  0.00000 -0.30538
       6     H     0.41789  0.41789  0.00000  0.16422
       7     H     0.43145  0.43145  0.00000  0.13711
       8     C     3.15574  3.15574  0.00000 -0.31147
       9     H     0.41669  0.41669  0.00000  0.16661
      10     H     0.42390  0.42390  0.00000  0.15221
      11     C     3.24009  3.24009  0.00000 -0.48018
      12     H     0.41559  0.41559  0.00000  0.16882
      13     H     0.42489  0.42489  0.00000  0.15022
      14     H     0.42096  0.42096  0.00000  0.15809
      15     H     0.41968  0.41968  0.00000  0.16065
      16     H     0.42315  0.42315  0.00000  0.15370

   Total alpha = 21.00000, Total beta = 21.00000, Total charge =  0.00000
