  ==> Input File <==

--------------------------------------------------------------------------
set {
	reference rhf
	basis cc-pvtz
}

set_num_threads( 4 )
memory 2 gb

molecule MOL {
0 1

O	 -2.817697	 1.304178	 0.001046
C	 -2.664672	 0.129869	 0.003507
C	 -3.797908	 -0.860100	 -0.001145
O	 -1.481217	 -0.452708	 0.001092
H	 -4.408836	 -0.679689	 -0.875387
H	 -3.443486	 -1.878443	 -0.002770
H	 -4.412123	 -0.683688	 0.871605
C	 -0.332055	 0.384012	 -0.000250
C	 0.892252	 -0.506059	 -0.000295
H	 -0.360822	 1.020205	 -0.874146
H	 -0.359817	 1.021310	 0.872861
C	 2.064955	 0.129912	 0.740428
H	 1.173229	 -0.717857	 -1.026873
H	 0.636454	 -1.456392	 0.456978
C	 3.311575	 -0.750362	 0.753905
H	 2.307684	 1.085614	 0.282505
H	 1.771387	 0.348784	 1.764091
C	 4.483313	 -0.115714	 1.495026
H	 3.606945	 -0.968322	 -0.268497
H	 3.070282	 -1.705631	 1.211427
H	 4.770730	 0.825978	 1.039557
H	 5.350807	 -0.765240	 1.486211
H	 4.229789	 0.083256	 2.530878

	symmetry c1
}
set optking {
	frozen_dihedral = ("
		13 9 8 10
	")
}

ee = optimize('scf')
oeprop('DIPOLE', 'QUADRUPOLE', 'MULLIKEN_CHARGES')
f=open( 'psi4out.xyz', 'w' )
f.write( "23  " )
f.write( str(ee) + "\n" )
f.write( MOL.save_string_xyz() )
f.close()
--------------------------------------------------------------------------

    Molecular point group: c1
  Charge       = 0
  Multiplicity = 1
  Basis Set: CC-PVTZ
  Basis Set:
  @DF-RHF Final Energy:  -423.13144903692063
    Total Energy =                       -423.1314490369204577
    Molecular point group: c1
  Basis Set: CC-PVTZ
  Basis Set:
  Basis Set: CC-PVTZ
  Basis Set:
  @DF-RHF Final Energy:  -423.13151919369182
    Total Energy =                       -423.1315191936917017
  Basis Set: CC-PVTZ
  Basis Set:
  Basis Set: CC-PVTZ
  Basis Set:
  @DF-RHF Final Energy:  -423.13172808682282
    Total Energy =                       -423.1317280868223634
  Basis Set: CC-PVTZ
  Basis Set:
  Basis Set: CC-PVTZ
  Basis Set:
  @DF-RHF Final Energy:  -423.13182165186697
    Total Energy =                       -423.1318216518669715
  Basis Set: CC-PVTZ
  Basis Set:
  Basis Set: CC-PVTZ
  Basis Set:
  @DF-RHF Final Energy:  -423.13183550627343
    Total Energy =                       -423.1318355062735463
  Basis Set: CC-PVTZ
  Basis Set:
  Basis Set: CC-PVTZ
  Basis Set:
  @DF-RHF Final Energy:  -423.13183807971296
    Total Energy =                       -423.1318380797126792
  Basis Set: CC-PVTZ
  Basis Set:
  Charge       = 0
  Multiplicity = 1
  Basis Set: CC-PVTZ
  Basis Set:

    Orbital Energies (a.u.)
    -----------------------

    Doubly Occupied:

       1A    -20.595119     2A    -20.529034     3A    -11.365799
       4A    -11.280009     5A    -11.230405     6A    -11.222406
       7A    -11.221008     8A    -11.219165     9A    -11.210839
      10A     -1.470184    11A     -1.363083    12A     -1.094405
      13A     -1.042467    14A     -1.003665    15A     -0.931419
      16A     -0.842667    17A     -0.802182    18A     -0.776838
      19A     -0.693411    20A     -0.686894    21A     -0.670098
      22A     -0.648023    23A     -0.608105    24A     -0.587082
      25A     -0.583749    26A     -0.569287    27A     -0.559289
      28A     -0.536986    29A     -0.525294    30A     -0.504614
      31A     -0.495248    32A     -0.476209    33A     -0.471661
      34A     -0.466357    35A     -0.452870    36A     -0.438309

  @DF-RHF Final Energy:  -423.13183822906524

   => Energetics <=

    Nuclear Repulsion Energy =            450.5754989088043203
    One-Electron Energy =               -1469.0663062460143919
    Two-Electron Energy =                 595.3589691081444926
    DFT Exchange-Correlation Energy =       0.0000000000000000
    Empirical Dispersion Energy =           0.0000000000000000
    PCM Polarization Energy =               0.0000000000000000
    EFP Energy =                            0.0000000000000000
    Total Energy =                       -423.1318382290655791
    Molecular point group: c1
  Basis Set: CC-PVTZ
  Basis Set:

  -Total Gradient:
     Atom            X                  Y                   Z
    ------   -----------------  -----------------  -----------------
       1        0.000004078889    -0.000010123425    -0.000002183360
       2       -0.000016540148     0.000009722819     0.000026187670
       3       -0.000002261786    -0.000001937575    -0.000001685486
       4        0.000017343776     0.000009928560    -0.000003605839
       5       -0.000001458461    -0.000002932612    -0.000002957172
       6       -0.000000250676     0.000001397624    -0.000000478600
       7       -0.000002038331     0.000001352407    -0.000003243328
       8        0.003681023265     0.005005166002     0.002776857479
       9       -0.004017487206    -0.005379168185    -0.000481794718
      10       -0.002404504826    -0.003270088355    -0.002247843273
      11       -0.000005160896    -0.000002370914     0.000007949944
      12        0.000013839528    -0.000009800330     0.000002746734
      13        0.002724751806     0.003655189295    -0.000071130261
      14        0.000011683434    -0.000008542898     0.000001968367
      15       -0.000002603286     0.000005367743     0.000008562769
      16        0.000001109180    -0.000002180292     0.000000582671
      17       -0.000006511428    -0.000003205799    -0.000001435156
      18        0.000004830578     0.000003186390    -0.000010169213
      19        0.000002547460    -0.000003432939     0.000000992826
      20       -0.000003927792     0.000001862608     0.000001582973
      21        0.000000280871     0.000002481703     0.000002991964
      22        0.000002741727     0.000001749426    -0.000001963276
      23       -0.000001485693    -0.000003621251    -0.000001933717

  **** Optimization is complete! (in 7 steps) ****
    Final optimized geometry and variables:
    Molecular point group: c1

    Geometry (in Angstrom), charge = 0, multiplicity = 1:

    O           -2.757410917606     1.390773279905    -0.381836097168
    C           -2.619647283073     0.214448821410    -0.360514931973
    C           -3.765771746098    -0.760460949331    -0.394764730141
    O           -1.445600292043    -0.382787275681    -0.303216088577
    H           -4.340088721457    -0.584506351778    -1.294441317269
    H           -3.425856998657    -1.783454471908    -0.368619920713
    H           -4.410592527938    -0.563230427450     0.451124570170
    C           -0.283692038514     0.442937354957    -0.270993360502
    C            0.935667915537    -0.466942092869    -0.250613421308
    H           -0.302834319700     1.065334521711    -1.153571444222
    H           -0.332122214381     1.076089463265     0.603116179129
    C            2.127732197877     0.189725112089     0.444812227118
    H            1.225498821214    -0.704289656188    -1.268651879437
    H            0.679491098678    -1.392860325246     0.249121011343
    C            3.391011571650    -0.664599530442     0.402673362136
    H            2.332743269351     1.152802072547    -0.017720612989
    H            1.869298029840     0.398776022466     1.479721539174
    C            4.576071736457    -0.015301603329     1.109260206085
    H            3.654340890425    -0.865082093737    -0.632108631776
    H            3.185004158609    -1.630060385711     0.856618494924
    H            4.827198269815     0.938147100719     0.656627828949
    H            5.455766846500    -0.646400782667     1.059727931826
    H            4.356877902005     0.164801032835     2.156362742463

  Mulliken Charges: (a.u.)
   Center  Symbol    Alpha    Beta     Spin     Total
       1     O     4.20298  4.20298  0.00000 -0.40595
       2     C     2.81185  2.81185  0.00000  0.37629
       3     C     3.13941  3.13941  0.00000 -0.27882
       4     O     4.14645  4.14645  0.00000 -0.29290
       5     H     0.44221  0.44221  0.00000  0.11559
       6     H     0.44206  0.44206  0.00000  0.11587
       7     H     0.44229  0.44229  0.00000  0.11542
       8     C     2.98149  2.98149  0.00000  0.03703
       9     C     3.08571  3.08571  0.00000 -0.17143
      10     H     0.45160  0.45160  0.00000  0.09679
      11     H     0.45394  0.45394  0.00000  0.09212
      12     C     3.09657  3.09657  0.00000 -0.19314
      13     H     0.45193  0.45193  0.00000  0.09614
      14     H     0.44690  0.44690  0.00000  0.10620
      15     C     3.08567  3.08567  0.00000 -0.17135
      16     H     0.45276  0.45276  0.00000  0.09448
      17     H     0.45273  0.45273  0.00000  0.09453
      18     C     3.14938  3.14938  0.00000 -0.29876
      19     H     0.45357  0.45357  0.00000  0.09286
      20     H     0.45354  0.45354  0.00000  0.09291
      21     H     0.45463  0.45463  0.00000  0.09075
      22     H     0.44779  0.44779  0.00000  0.10442
      23     H     0.45454  0.45454  0.00000  0.09093

   Total alpha = 36.00000, Total beta = 36.00000, Total charge = -0.00000
