  ==> Input File <==

--------------------------------------------------------------------------
set {
	reference rhf
	basis cc-pvtz
}

set_num_threads( 4 )
memory 2 gb

molecule MOL {
0 1

H	 2.646708	 0.758099	 0.000000
O	 2.258158	 -0.097743	 0.000000
C	 0.911162	 -0.015915	 0.000000
C	 0.319747	 0.810973	 -0.940896
C	 0.126675	 -0.719886	 0.894106
H	 0.943928	 1.349382	 -1.626472
C	 -1.053005	 0.925930	 -0.978443
H	 0.585510	 -1.361644	 1.624359
C	 -1.250413	 -0.594770	 0.844787
H	 -1.505828	 1.568215	 -1.709758
C	 -1.849711	 0.225620	 -0.087809
H	 -1.852242	 -1.145051	 1.542870
H	 -2.917280	 0.320182	 -0.123150

	symmetry c1
}
set optking {
	frozen_dihedral = ("
		4 3 2 1
	")
}

ee = optimize('scf')
oeprop('DIPOLE', 'QUADRUPOLE', 'MULLIKEN_CHARGES')
f=open( 'psi4out.xyz', 'w' )
f.write( "13  " )
f.write( str(ee) + "\n" )
f.write( MOL.save_string_xyz() )
f.close()
--------------------------------------------------------------------------

    Molecular point group: c1
  Charge       = 0
  Multiplicity = 1
  Basis Set: CC-PVTZ
  Basis Set:
  @DF-RHF Final Energy:  -305.66644883946992
    Total Energy =                       -305.6664488394701493
    Molecular point group: c1
  Basis Set: CC-PVTZ
  Basis Set:
  Basis Set: CC-PVTZ
  Basis Set:
  @DF-RHF Final Energy:  -305.66789634471724
    Total Energy =                       -305.6678963447173487
  Basis Set: CC-PVTZ
  Basis Set:
  Basis Set: CC-PVTZ
  Basis Set:
  @DF-RHF Final Energy:  -305.66799303157978
    Total Energy =                       -305.6679930315799538
  Basis Set: CC-PVTZ
  Basis Set:
  Basis Set: CC-PVTZ
  Basis Set:
  @DF-RHF Final Energy:  -305.66800440769453
    Total Energy =                       -305.6680044076946388
  Basis Set: CC-PVTZ
  Basis Set:
  Charge       = 0
  Multiplicity = 1
  Basis Set: CC-PVTZ
  Basis Set:

    Orbital Energies (a.u.)
    -----------------------

    Doubly Occupied:

       1A    -20.576929     2A    -11.292492     3A    -11.234371
       4A    -11.233119     5A    -11.226267     6A    -11.223004
       7A    -11.222578     8A     -1.405315     9A     -1.153027
      10A     -1.022460    11A     -1.008397    12A     -0.844731
      13A     -0.827480    14A     -0.739708    15A     -0.686104
      16A     -0.652680    17A     -0.625570    18A     -0.598508
      19A     -0.591826    20A     -0.540160    21A     -0.517292
      22A     -0.496671    23A     -0.478169    24A     -0.342346
      25A     -0.322601

  @DF-RHF Final Energy:  -305.66800715144274

   => Energetics <=

    Nuclear Repulsion Energy =            273.5371705080646620
    One-Electron Energy =                -956.6867478095490469
    Two-Electron Energy =                 377.4815701500417049
    DFT Exchange-Correlation Energy =       0.0000000000000000
    Empirical Dispersion Energy =           0.0000000000000000
    PCM Polarization Energy =               0.0000000000000000
    EFP Energy =                            0.0000000000000000
    Total Energy =                       -305.6680071514427368
    Molecular point group: c1
  Basis Set: CC-PVTZ
  Basis Set:

  -Total Gradient:
     Atom            X                  Y                   Z
    ------   -----------------  -----------------  -----------------
       1       -0.000105593468     0.000065921150     0.002500390980
       2        0.000094258319    -0.000865618015    -0.003728825294
       3       -0.000050084254     0.002126882938     0.002476790926
       4       -0.000070087898    -0.001435233603    -0.001200715249
       5        0.000202183739     0.000026064326     0.000001137600
       6       -0.000057505997    -0.000003710860     0.000023514781
       7        0.000101269382     0.000061394805     0.000006058431
       8        0.000067454482     0.000015604480    -0.000021739362
       9       -0.000181246121     0.000092250377    -0.000079402643
      10       -0.000045509283    -0.000014334218    -0.000006377919
      11        0.000017839137    -0.000117967055     0.000109388923
      12        0.000027732189     0.000007737611    -0.000017405894
      13       -0.000000710230     0.000041008062    -0.000062815279

  **** Optimization is complete! (in 5 steps) ****
    Final optimized geometry and variables:
    Molecular point group: c1

    Geometry (in Angstrom), charge = 0, multiplicity = 1:

    H            2.691025832602     0.609216630637     0.060347473132
    O            2.254995056205    -0.223866575912     0.075778013494
    C            0.905070366459    -0.062465744118     0.034645746598
    C            0.304964365563     0.746779875535    -0.912723824260
    C            0.131232937197    -0.781351903127     0.924970012411
    H            0.913097453319     1.281610305696    -1.617958088512
    C           -1.072245157171     0.853301204638    -0.948808547734
    H            0.615705539956    -1.411803153543     1.644350584700
    C           -1.245392176968    -0.678740594027     0.871448927410
    H           -1.533739510583     1.486764851335    -1.682316854390
    C           -1.854596789284     0.141279550200    -0.059918743428
    H           -1.843015377378    -1.239309435172     1.564816969016
    H           -2.923649309996     0.221203254116    -0.095676423374

  Mulliken Charges: (a.u.)
   Center  Symbol    Alpha    Beta     Spin     Total
       1     H     0.38583  0.38583  0.00000  0.22833
       2     O     4.18597  4.18597  0.00000 -0.37193
       3     C     2.86636  2.86636  0.00000  0.26728
       4     C     3.12261  3.12261  0.00000 -0.24523
       5     C     3.10835  3.10835  0.00000 -0.21671
       6     H     0.42468  0.42468  0.00000  0.15064
       7     C     3.06724  3.06724  0.00000 -0.13447
       8     H     0.41698  0.41698  0.00000  0.16604
       9     C     3.06262  3.06262  0.00000 -0.12525
      10     H     0.42216  0.42216  0.00000  0.15569
      11     C     3.09170  3.09170  0.00000 -0.18340
      12     H     0.42203  0.42203  0.00000  0.15594
      13     H     0.42347  0.42347  0.00000  0.15307

   Total alpha = 25.00000, Total beta = 25.00000, Total charge =  0.00000
