  ==> Input File <==

--------------------------------------------------------------------------
set {
	reference rhf
	basis 6-31G*
}

set_num_threads( 4 )
memory 2 gb

molecule MOL {
0 1

O	 -2.439739	 -0.935931	 -0.423848
C	 -1.921153	 0.064240	 -0.045697
C	 -2.624470	 1.379923	 0.150949
O	 -0.632575	 0.154573	 0.251549
H	 -2.168117	 2.136577	 -0.476876
H	 -3.669540	 1.273223	 -0.098610
H	 -2.519365	 1.700893	 1.180846
C	 0.160891	 -1.019931	 0.106212
C	 1.589627	 -0.672828	 0.480843
H	 0.089836	 -1.367806	 -0.916050
H	 -0.238459	 -1.792301	 0.749618
C	 2.246377	 0.346236	 -0.452210
H	 2.163194	 -1.597435	 0.473358
H	 1.604769	 -0.303424	 1.502885
C	 2.350365	 -0.158103	 -1.890901
H	 1.672842	 1.270797	 -0.433656
H	 3.236125	 0.588578	 -0.079347
H	 2.819849	 0.581322	 -2.531891
H	 1.369597	 -0.378161	 -2.303147
H	 2.942985	 -1.066880	 -1.945709

	symmetry c1
}
set optking {
	frozen_dihedral = ("
		16 12 9 8
	")
}

ee = optimize('scf')
oeprop('DIPOLE', 'QUADRUPOLE', 'MULLIKEN_CHARGES')
f=open( 'psi4out.xyz', 'w' )
f.write( "20  " )
f.write( str(ee) + "\n" )
f.write( MOL.save_string_xyz() )
f.close()
--------------------------------------------------------------------------

    Molecular point group: c1
  Charge       = 0
  Multiplicity = 1
  Basis Set: 6-31G*
  Basis Set:
  @DF-RHF Final Energy:  -383.94357668866269
    Total Energy =                       -383.9435766886625743
    Molecular point group: c1
  Basis Set: 6-31G*
  Basis Set:
  Basis Set: 6-31G*
  Basis Set:
  @DF-RHF Final Energy:  -383.94396521193147
    Total Energy =                       -383.9439652119316406
  Basis Set: 6-31G*
  Basis Set:
  Basis Set: 6-31G*
  Basis Set:
  @DF-RHF Final Energy:  -383.94410578175092
    Total Energy =                       -383.9441057817509773
  Basis Set: 6-31G*
  Basis Set:
  Basis Set: 6-31G*
  Basis Set:
  @DF-RHF Final Energy:  -383.94423871870731
    Total Energy =                       -383.9442387187073109
  Basis Set: 6-31G*
  Basis Set:
  Basis Set: 6-31G*
  Basis Set:
  @DF-RHF Final Energy:  -383.94431840028420
    Total Energy =                       -383.9443184002843736
  Basis Set: 6-31G*
  Basis Set:
  Charge       = 0
  Multiplicity = 1
  Basis Set: 6-31G*
  Basis Set:

    Orbital Energies (a.u.)
    -----------------------

    Doubly Occupied:

       1A    -20.601927     2A    -20.544217     3A    -11.374676
       4A    -11.281663     5A    -11.233564     6A    -11.225690
       7A    -11.220523     8A    -11.213269     9A     -1.468057
      10A     -1.362312    11A     -1.085545    12A     -1.026898
      13A     -0.979029    14A     -0.890213    15A     -0.807693
      16A     -0.768423    17A     -0.690632    18A     -0.687919
      19A     -0.664989    20A     -0.620578    21A     -0.619389
      22A     -0.577280    23A     -0.574954    24A     -0.563418
      25A     -0.536246    26A     -0.527287    27A     -0.522797
      28A     -0.478633    29A     -0.475603    30A     -0.468917
      31A     -0.449199    32A     -0.438857

  @DF-RHF Final Energy:  -383.94431915052036

   => Energetics <=

    Nuclear Repulsion Energy =            391.1860215604995687
    One-Electron Energy =               -1298.2998913272895152
    Two-Electron Energy =                 523.1695506162693619
    DFT Exchange-Correlation Energy =       0.0000000000000000
    Empirical Dispersion Energy =           0.0000000000000000
    PCM Polarization Energy =               0.0000000000000000
    EFP Energy =                            0.0000000000000000
    Total Energy =                       -383.9443191505206414
    Molecular point group: c1
  Basis Set: 6-31G*
  Basis Set:

  -Total Gradient:
     Atom            X                  Y                   Z
    ------   -----------------  -----------------  -----------------
       1        0.000032472644    -0.000008165960     0.000036849242
       2        0.000030469167     0.000041972015    -0.000119683659
       3       -0.000024928440    -0.000005223203     0.000069580454
       4       -0.000006022210     0.000024741747    -0.000018090235
       5       -0.000002739341     0.000018414391    -0.000013020276
       6       -0.000002928701     0.000005198132     0.000000568760
       7        0.000007495876    -0.000009512826    -0.000020495543
       8       -0.000016503261    -0.000020592356     0.000098938735
       9        0.000044576454     0.000003505243    -0.000026917342
      10       -0.000026829498    -0.000012058421    -0.000035884060
      11        0.000096984924    -0.000010744188    -0.000015034043
      12       -0.000148207612     0.000040122072    -0.000061336322
      13        0.000000494910    -0.000035617366    -0.000004183990
      14        0.000014756648     0.000038985070    -0.000039334390
      15       -0.000010262058    -0.000047303394     0.000062904641
      16       -0.000001419854     0.000024744100     0.000024230952
      17        0.000002096483    -0.000052262708     0.000032815405
      18        0.000000200288     0.000016893188     0.000050174902
      19        0.000005859676     0.000015868723    -0.000010371111
      20        0.000004433910    -0.000028964258    -0.000011712120

  **** Optimization is complete! (in 6 steps) ****
    Final optimized geometry and variables:
    Molecular point group: c1

    Geometry (in Angstrom), charge = 0, multiplicity = 1:

    O           -2.288744523850    -0.849100427945    -0.109908094372
    C           -1.751591867575     0.163488858391     0.203917402730
    C           -2.438679802954     1.493849370996     0.354804485272
    O           -0.455898401400     0.254667429591     0.467645665695
    H           -1.993152068336     2.214944285886    -0.320868890815
    H           -3.490834857199     1.385019245094     0.138056457955
    H           -2.303430034190     1.863122937696     1.364784631773
    C            0.323011312384    -0.934209654919     0.365709584255
    C            1.762673682754    -0.582905052225     0.697232606765
    H            0.217447494561    -1.338879987618    -0.630750490636
    H           -0.064565291226    -1.666992138238     1.060613992132
    C            2.413984603584     0.449556584854    -0.229467947290
    H            2.336115098042    -1.507545392746     0.675216220396
    H            1.798586845600    -0.217420741891     1.719494888319
    C            2.549401271661    -0.002185225042    -1.684431678055
    H            1.850449165740     1.375895243985    -0.185706163771
    H            3.402734219540     0.673385729069     0.162317587202
    H            3.089960964067     0.737995427933    -2.265782008114
    H            1.583149819731    -0.141831684197    -2.158212674784
    H            3.093781291920    -0.940001467737    -1.757119824948

  Mulliken Charges: (a.u.)
   Center  Symbol    Alpha    Beta     Spin     Total
       1     O     4.28321  4.28321  0.00000 -0.56642
       2     C     2.61947  2.61947  0.00000  0.76106
       3     C     3.28171  3.28171  0.00000 -0.56342
       4     O     4.30850  4.30850  0.00000 -0.61701
       5     H     0.40085  0.40085  0.00000  0.19829
       6     H     0.39684  0.39684  0.00000  0.20633
       7     H     0.40051  0.40051  0.00000  0.19898
       8     C     3.00445  3.00445  0.00000 -0.00890
       9     C     3.16687  3.16687  0.00000 -0.33374
      10     H     0.40858  0.40858  0.00000  0.18284
      11     H     0.40850  0.40850  0.00000  0.18299
      12     C     3.15528  3.15528  0.00000 -0.31057
      13     H     0.41847  0.41847  0.00000  0.16306
      14     H     0.41324  0.41324  0.00000  0.17351
      15     C     3.24412  3.24412  0.00000 -0.48823
      16     H     0.41211  0.41211  0.00000  0.17578
      17     H     0.41943  0.41943  0.00000  0.16113
      18     H     0.41709  0.41709  0.00000  0.16582
      19     H     0.41891  0.41891  0.00000  0.16219
      20     H     0.42185  0.42185  0.00000  0.15631

   Total alpha = 32.00000, Total beta = 32.00000, Total charge = -0.00000
