                              Psi4 1.0.54 Driver

  ==> Input File <==

--------------------------------------------------------------------------
set {
	reference rhf
	basis cc-pvtz
}

set_num_threads( 4 )
memory 2 gb

molecule MOL {
0 1

H	 5.141862	 2.180043	 0.459923
C	 4.701991	 1.280375	 0.045222
C	 3.265538	 1.098102	 0.523451
H	 4.744429	 1.359347	 -1.035601
H	 5.324183	 0.441574	 0.340333
C	 2.616114	 -0.167063	 -0.032946
H	 2.679655	 1.962703	 0.233377
H	 3.251225	 1.059661	 1.610254
C	 1.179462	 -0.379147	 0.433892
H	 2.634408	 -0.137771	 -1.115368
H	 3.203478	 -1.029055	 0.269968
C	 0.166485	 0.574257	 -0.177158
H	 0.849735	 -1.380518	 0.168747
H	 1.110157	 -0.323950	 1.516328
C	 -1.180025	 0.697761	 0.509157
O	 0.404964	 1.187789	 -1.167099
C	 -2.285431	 -0.137488	 -0.145671
H	 -1.447360	 1.745713	 0.496200
H	 -1.065514	 0.394096	 1.546399
C	 -3.646545	 0.082747	 0.508954
H	 -2.348635	 0.118247	 -1.199806
H	 -2.034895	 -1.192387	 -0.096473
C	 -4.757412	 -0.737227	 -0.138149
H	 -3.900211	 1.137405	 0.459735
H	 -3.580878	 -0.166775	 1.564416
H	 -4.867876	 -0.486707	 -1.187777
H	 -4.549650	 -1.800049	 -0.072540
H	 -5.709585	 -0.556397	 0.346597

	symmetry c1
}
set optking {
	frozen_dihedral = ("
		16 12 15 17
	")
}

ee,wfn = optimize('scf', return_wfn=True)
oeprop( wfn, 'DIPOLE', 'QUADRUPOLE', 'MULLIKEN_CHARGES')
f=open( 'psi4out.xyz', 'w' )
f.write( "28  " )
f.write( str(ee) + "\n" )
f.write( MOL.save_string_xyz() )
f.close()
--------------------------------------------------------------------------

    Molecular point group: c1
  Charge       = 0
  Multiplicity = 1
  Basis Set: CC-PVTZ
  Basis Set:
  @DF-RHF Final Energy:  -426.31927691052931
    Total Energy =                       -426.3192769105289699
    Molecular point group: c1
  Basis Set: CC-PVTZ
  Basis Set:
  Basis Set: CC-PVTZ
  Basis Set:
  @DF-RHF Final Energy:  -426.31874403828272
    Total Energy =                       -426.3187440382822615
  Basis Set: CC-PVTZ
  Basis Set:
  Basis Set: CC-PVTZ
  Basis Set:
  @DF-RHF Final Energy:  -426.31988252787880
    Total Energy =                       -426.3198825278780077
  Basis Set: CC-PVTZ
  Basis Set:
  Basis Set: CC-PVTZ
  Basis Set:
  @DF-RHF Final Energy:  -426.32009049700252
    Total Energy =                       -426.3200904970027523
  Basis Set: CC-PVTZ
  Basis Set:
  @DF-RHF Final Energy:  -426.32034341544761
    Total Energy =                       -426.3203434154481783
  Basis Set: CC-PVTZ
  Basis Set:
  @DF-RHF Final Energy:  -426.32036320629891
    Total Energy =                       -426.3203632062979977
  Basis Set: CC-PVTZ
  Basis Set:
  Basis Set: CC-PVTZ
  Basis Set:
  @DF-RHF Final Energy:  -426.32036148650116
    Total Energy =                       -426.3203614865014970
  Basis Set: CC-PVTZ
  Basis Set:
  Basis Set: CC-PVTZ
  Basis Set:
  @DF-RHF Final Energy:  -426.32037097191619
    Total Energy =                       -426.3203709719163044
  Basis Set: CC-PVTZ
  Basis Set:
  Charge       = 0
  Multiplicity = 1
  Basis Set: CC-PVTZ
  Basis Set:

    Orbital Energies (a.u.)
    -----------------------

    Doubly Occupied:

       1A    -20.536458     2A    -11.317017     3A    -11.229505
       4A    -11.227099     5A    -11.226385     6A    -11.221932
       7A    -11.214653     8A    -11.212329     9A    -11.208829
      10A    -11.202865    11A     -1.396909    12A     -1.093620
      13A     -1.078746    14A     -1.023471    15A     -0.991723
      16A     -0.909398    17A     -0.869966    18A     -0.807725
      19A     -0.797163    20A     -0.726399    21A     -0.671863
      22A     -0.652122    23A     -0.632082    24A     -0.617082
      25A     -0.608684    26A     -0.590158    27A     -0.575979
      28A     -0.571491    29A     -0.543380    30A     -0.534120
      31A     -0.523294    32A     -0.508844    33A     -0.499980
      34A     -0.482405    35A     -0.476890    36A     -0.476048
      37A     -0.469919    38A     -0.464920    39A     -0.456209
      40A     -0.393758

  @DF-RHF Final Energy:  -426.32037099619811

   => Energetics <=

    Nuclear Repulsion Energy =            530.7873620848600922
    One-Electron Energy =               -1630.1326331054565344
    Two-Electron Energy =                 673.0249000243991304
    DFT Exchange-Correlation Energy =       0.0000000000000000
    Empirical Dispersion Energy =           0.0000000000000000
    PCM Polarization Energy =               0.0000000000000000
    EFP Energy =                            0.0000000000000000
    Total Energy =                       -426.3203709961974255
    Molecular point group: c1
  Basis Set: CC-PVTZ
  Basis Set:

  -Total Gradient:
     Atom            X                  Y                   Z
    ------   -----------------  -----------------  -----------------
       1       -0.000001688120    -0.000002092156     0.000002609237
       2       -0.000001771909    -0.000003491236     0.000004120190
       3       -0.000000636904     0.000009321657    -0.000000545591
       4       -0.000001067177     0.000001258985     0.000001411359
       5        0.000003382778    -0.000001662051    -0.000001663895
       6       -0.000004607951    -0.000004990769    -0.000007474762
       7        0.000000899122     0.000001927257    -0.000001649442
       8       -0.000001528160     0.000000862046     0.000000403408
       9        0.000006700925     0.000005542395     0.000002000564
      10       -0.000000532745    -0.000000290574    -0.000002266587
      11       -0.000004972458    -0.000000993597    -0.000002197545
      12       -0.000094772889    -0.000391250436    -0.000218986041
      13        0.000001403925     0.000000103406     0.000001120296
      14       -0.000000569051     0.000000397642     0.000006076675
      15       -0.000028984675     0.000336882806    -0.000090425538
      16        0.000078143328     0.000230063579     0.000190376024
      17        0.000046044712    -0.000179746304     0.000118922054
      18        0.000000640334    -0.000002143603    -0.000000030155
      19        0.000003131182    -0.000001474428    -0.000000939412
      20        0.000004526634     0.000009387416    -0.000005042638
      21        0.000004272205    -0.000001017942     0.000001027196
      22       -0.000003050379     0.000001301461    -0.000001349855
      23       -0.000002519161    -0.000009359226     0.000004127134
      24        0.000000213238     0.000001812783     0.000000061668
      25       -0.000003552919     0.000000333738    -0.000001074679
      26        0.000001578632     0.000002321302     0.000003815029
      27       -0.000001042657    -0.000001198213    -0.000002583470
      28        0.000000360142    -0.000001805939     0.000000158775

  **** Optimization is complete! (in 9 steps) ****
    Final optimized geometry and variables:
    Molecular point group: c1

    Geometry (in Angstrom), charge = 0, multiplicity = 1:

    H            5.267883129058     1.533531044038    -0.015727603566
    C            4.685568883779     0.661192785277    -0.289218388811
    C            3.308140239604     0.691768294084     0.364101032947
    H            4.602478057978     0.645254107820    -1.370515667437
    H            5.245583003591    -0.218209386872     0.012580442094
    C            2.464677850132    -0.532513761645     0.013952177523
    H            2.784787362380     1.589358653958     0.058993449106
    H            3.424708614227     0.746548211052     1.444042019903
    C            1.078814268684    -0.532961636089     0.650113746384
    H            2.360340575347    -0.604123870149    -1.062405582114
    H            2.989519526436    -1.426216447348     0.339114288026
    C            0.074066122199     0.410739270132     0.019911774338
    H            0.638255368125    -1.526579494683     0.607450140396
    H            1.137767803126    -0.292331843833     1.708907975251
    C           -1.322449146993     0.421209028229     0.613577852625
    O            0.337818109492     1.092905108105    -0.917105155858
    C           -2.278988231851    -0.452910584710    -0.206009913920
    H           -1.671182875961     1.446401235779     0.606149500401
    H           -1.300069756488     0.077759470802     1.641941047602
    C           -3.702285851195    -0.445262784303     0.343831262713
    H           -2.280797922190    -0.099191518759    -1.231090667678
    H           -1.910986059496    -1.475518968198    -0.230219940484
    C           -4.658388013385    -1.307910520193    -0.472861738717
    H           -4.069347131698     0.576670195523     0.368555298096
    H           -3.693214891293    -0.791967843768     1.373537781846
    H           -4.713951087957    -0.964378244072    -1.500130770577
    H           -4.335817571674    -2.343650409176    -0.488331081488
    H           -5.659936727430    -1.279997751212    -0.059844221043

  Mulliken Charges: (a.u.)
   Center  Symbol    Alpha    Beta     Spin     Total
       1     H     0.44875  0.44875  0.00000  0.10249
       2     C     3.15168  3.15168  0.00000 -0.30336
       3     C     3.08381  3.08381  0.00000 -0.16762
       4     H     0.45222  0.45222  0.00000  0.09557
       5     H     0.45740  0.45740  0.00000  0.08520
       6     C     3.08723  3.08723  0.00000 -0.17447
       7     H     0.44341  0.44341  0.00000  0.11319
       8     H     0.45886  0.45886  0.00000  0.08228
       9     C     3.12714  3.12714  0.00000 -0.25428
      10     H     0.44655  0.44655  0.00000  0.10690
      11     H     0.44811  0.44811  0.00000  0.10379
      12     C     2.87044  2.87044  0.00000  0.25913
      13     H     0.43406  0.43406  0.00000  0.13188
      14     H     0.44249  0.44249  0.00000  0.11501
      15     C     3.09087  3.09087  0.00000 -0.18173
      16     O     4.18296  4.18296  0.00000 -0.36593
      17     C     3.09382  3.09382  0.00000 -0.18764
      18     H     0.43883  0.43883  0.00000  0.12233
      19     H     0.44844  0.44844  0.00000  0.10312
      20     C     3.08803  3.08803  0.00000 -0.17606
      21     H     0.44087  0.44087  0.00000  0.11826
      22     H     0.45331  0.45331  0.00000  0.09339
      23     C     3.14933  3.14933  0.00000 -0.29866
      24     H     0.45168  0.45168  0.00000  0.09664
      25     H     0.45418  0.45418  0.00000  0.09163
      26     H     0.45285  0.45285  0.00000  0.09431
      27     H     0.45519  0.45519  0.00000  0.08961
      28     H     0.44750  0.44750  0.00000  0.10500

   Total alpha = 40.00000, Total beta = 40.00000, Total charge = -0.00000

*** Psi4 exiting successfully. Buy a developer a beer!
