  ==> Input File <==

--------------------------------------------------------------------------
set {
	reference rhf
	basis 6-31G*
}

set_num_threads( 4 )
memory 2 gb

molecule MOL {
0 1

H	 -2.258669	 -0.229645	 2.508077
C	 -2.044373	 -1.290624	 2.396089
O	 -0.862087	 -1.499627	 1.693341
H	 -1.922358	 -1.728534	 3.377154
H	 -2.892600	 -1.763740	 1.903036
C	 -0.871775	 -0.991096	 0.396980
C	 0.492685	 -1.179334	 -0.223521
H	 -1.615467	 -1.511558	 -0.207782
H	 -1.122012	 0.067857	 0.398438
O	 1.392611	 -0.295398	 0.366430
H	 0.812323	 -2.209646	 -0.081062
H	 0.427490	 -0.992710	 -1.296189
C	 2.706965	 -0.449871	 -0.062409
H	 2.756559	 -0.644779	 -1.131878
H	 3.305899	 0.433456	 0.155466
H	 3.125548	 -1.294566	 0.467107

	symmetry c1
}
set optking {
	frozen_dihedral = ("
		7 10 13 14
	")
}

ee = optimize('scf')
oeprop('DIPOLE', 'QUADRUPOLE', 'MULLIKEN_CHARGES')
f=open( 'psi4out.xyz', 'w' )
f.write( "16  " )
f.write( str(ee) + "\n" )
f.write( MOL.save_string_xyz() )
f.close()
--------------------------------------------------------------------------

    Molecular point group: c1
  Charge       = 0
  Multiplicity = 1
  Basis Set: 6-31G*
  Basis Set:
  @DF-RHF Final Energy:  -306.97570716734998
    Total Energy =                       -306.9757071673497535
    Molecular point group: c1
  Basis Set: 6-31G*
  Basis Set:
  Basis Set: 6-31G*
  Basis Set:
  @DF-RHF Final Energy:  -306.97649746532102
    Total Energy =                       -306.9764974653209606
  Basis Set: 6-31G*
  Basis Set:
  Basis Set: 6-31G*
  Basis Set:
  @DF-RHF Final Energy:  -306.97670971719060
    Total Energy =                       -306.9767097171906016
  Basis Set: 6-31G*
  Basis Set:
  Charge       = 0
  Multiplicity = 1
  Basis Set: 6-31G*
  Basis Set:

    Orbital Energies (a.u.)
    -----------------------

    Doubly Occupied:

       1A    -20.553486     2A    -20.552470     3A    -11.269097
       4A    -11.268365     5A    -11.263460     6A    -11.263411
       7A     -1.387614     8A     -1.369921     9A     -1.030696
      10A     -0.935979    11A     -0.892020    12A     -0.824036
      13A     -0.683660    14A     -0.680126    15A     -0.656987
      16A     -0.634405    17A     -0.629746    18A     -0.597034
      19A     -0.550506    20A     -0.536847    21A     -0.508735
      22A     -0.477835    23A     -0.462582    24A     -0.418635
      25A     -0.409560

  @DF-RHF Final Energy:  -306.97671103609895

   => Energetics <=

    Nuclear Repulsion Energy =            258.7692794544146295
    One-Electron Energy =                -931.7775498318385416
    Two-Electron Energy =                 366.0315593413248507
    DFT Exchange-Correlation Energy =       0.0000000000000000
    Empirical Dispersion Energy =           0.0000000000000000
    PCM Polarization Energy =               0.0000000000000000
    EFP Energy =                            0.0000000000000000
    Total Energy =                       -306.9767110360991182
    Molecular point group: c1
  Basis Set: 6-31G*
  Basis Set:

  -Total Gradient:
     Atom            X                  Y                   Z
    ------   -----------------  -----------------  -----------------
       1        0.000002024142     0.000000083783    -0.000002397877
       2        0.000004104288    -0.000008380923     0.000012675594
       3       -0.000021029583    -0.000014895956     0.000017686296
       4       -0.000004736724     0.000000389681     0.000001857336
       5       -0.000001394290    -0.000000154265    -0.000000500322
       6        0.000093673595     0.000085505434     0.000070664691
       7       -0.000306421033     0.001371593096    -0.001747468531
       8        0.000060175507    -0.000002964890    -0.000017969225
       9       -0.000022251322     0.000018260127    -0.000008556183
      10        0.000487239412    -0.002777755495     0.002428109449
      11        0.000025285590     0.000029970346     0.000027261859
      12       -0.000002215183    -0.000007697757    -0.000014227627
      13        0.000053454071     0.003962491381    -0.001282784636
      14       -0.000237394051    -0.002665899014     0.000466988387
      15       -0.000090470119     0.000020627577     0.000021416885
      16       -0.000040044302    -0.000011173128     0.000027243906

  **** Optimization is complete! (in 4 steps) ****
    Final optimized geometry and variables:
    Molecular point group: c1

    Geometry (in Angstrom), charge = 0, multiplicity = 1:

    H           -2.390844691230     0.728196733054     1.744840815349
    C           -2.184138359811    -0.333859279796     1.628872899091
    O           -1.004009349171    -0.548817719561     0.924204298538
    H           -2.064568461893    -0.776184563418     2.608247148374
    H           -3.035883938774    -0.799086196447     1.134501326518
    C           -1.011188026077    -0.035756041183    -0.370456647684
    C            0.351143687666    -0.230962273727    -0.993155907805
    H           -1.758983486586    -0.548875714574    -0.976423966467
    H           -1.253940769331     1.024914988579    -0.365084716467
    O            1.255620042511     0.648326619628    -0.402618470841
    H            0.662992616142    -1.264021258900    -0.852872342369
    H            0.287057604281    -0.040990040234    -2.064853033615
    C            2.572905971195     0.493678058971    -0.827691903735
    H            2.630152350814     0.300422264018    -1.897170687860
    H            3.107031726785     1.405492582263    -0.598436560705
    H            3.053788271702    -0.336312791889    -0.313917341006

  Mulliken Charges: (a.u.)
   Center  Symbol    Alpha    Beta     Spin     Total
       1     H     0.42807  0.42807  0.00000  0.14387
       2     C     3.07949  3.07949  0.00000 -0.15897
       3     O     4.30092  4.30092  0.00000 -0.60183
       4     H     0.41130  0.41130  0.00000  0.17740
       5     H     0.43190  0.43190  0.00000  0.13620
       6     C     2.99334  2.99334  0.00000  0.01331
       7     C     2.99373  2.99373  0.00000  0.01253
       8     H     0.43236  0.43236  0.00000  0.13528
       9     H     0.42274  0.42274  0.00000  0.15451
      10     O     4.30209  4.30209  0.00000 -0.60418
      11     H     0.42293  0.42293  0.00000  0.15413
      12     H     0.43171  0.43171  0.00000  0.13657
      13     C     3.07835  3.07835  0.00000 -0.15670
      14     H     0.43260  0.43260  0.00000  0.13481
      15     H     0.41288  0.41288  0.00000  0.17424
      16     H     0.42559  0.42559  0.00000  0.14883

   Total alpha = 25.00000, Total beta = 25.00000, Total charge =  0.00000
