  ==> Input File <==

--------------------------------------------------------------------------
set {
	reference rhf
	basis 6-31G*
}

set_num_threads( 4 )
memory 2 gb

molecule MOL {
0 1

O	 1.470477	 3.538960	 1.682350
C	 0.697242	 3.528748	 2.590514
C	 -0.575936	 2.702276	 2.560529
C	 0.939314	 4.347303	 3.842123
C	 -0.766822	 1.900747	 1.276260
H	 -0.565860	 2.043271	 3.427708
H	 -1.415396	 3.377441	 2.721341
C	 -2.058557	 1.081518	 1.282969
H	 0.086116	 1.244140	 1.136636
H	 -0.764618	 2.579772	 0.429461
C	 -2.259874	 0.272531	 0.000494
H	 -2.055676	 0.405233	 2.136596
H	 -2.909708	 1.745928	 1.424987
C	 -3.549786	 -0.549746	 -0.000374
H	 -1.409935	 -0.392515	 -0.142112
H	 -2.263791	 0.947653	 -0.853434
C	 -4.809590	 0.315458	 -0.000369
H	 -3.560515	 -1.202009	 -0.871156
H	 -3.561123	 -1.202955	 0.869711
H	 -4.844746	 0.956611	 -0.876632
H	 -5.706986	 -0.295590	 -0.001609
H	 -4.845960	 0.954827	 0.877144
H	 0.980147	 3.702163	 4.714903
H	 1.870539	 4.888673	 3.749539
H	 0.125751	 5.049660	 3.998467

	symmetry c1
}
set optking {
	frozen_dihedral = ("
		15 11 14 18
	")
}

ee = optimize('scf')
oeprop('DIPOLE', 'QUADRUPOLE', 'MULLIKEN_CHARGES')
f=open( 'psi4out.xyz', 'w' )
f.write( "25  " )
f.write( str(ee) + "\n" )
f.write( MOL.save_string_xyz() )
f.close()
--------------------------------------------------------------------------

    Molecular point group: c1
  Charge       = 0
  Multiplicity = 1
  Basis Set: 6-31G*
  Basis Set:
  @DF-RHF Final Energy:  -387.13439162411817
    Total Energy =                       -387.1343916241174838
    Molecular point group: c1
  Basis Set: 6-31G*
  Basis Set:
  Basis Set: 6-31G*
  Basis Set:
  @DF-RHF Final Energy:  -387.13467412351690
    Total Energy =                       -387.1346741235166746
  Basis Set: 6-31G*
  Basis Set:
  Basis Set: 6-31G*
  Basis Set:
  @DF-RHF Final Energy:  -387.13492611629118
    Total Energy =                       -387.1349261162902167
  Basis Set: 6-31G*
  Basis Set:
  Basis Set: 6-31G*
  Basis Set:
  @DF-RHF Final Energy:  -387.13486307320159
    Total Energy =                       -387.1348630732007905
  Basis Set: 6-31G*
  Basis Set:
  Basis Set: 6-31G*
  Basis Set:
  @DF-RHF Final Energy:  -387.13491955633111
    Total Energy =                       -387.1349195563316243
  Basis Set: 6-31G*
  Basis Set:
  Basis Set: 6-31G*
  Basis Set:
  @DF-RHF Final Energy:  -387.13493643123240
    Total Energy =                       -387.1349364312328589
  Basis Set: 6-31G*
  Basis Set:
  Charge       = 0
  Multiplicity = 1
  Basis Set: 6-31G*
  Basis Set:

    Orbital Energies (a.u.)
    -----------------------

    Doubly Occupied:

       1A    -20.550469     2A    -11.326306     3A    -11.231881
       4A    -11.228349     5A    -11.216958     6A    -11.216291
       7A    -11.215730     8A    -11.213777     9A    -11.208923
      10A     -1.395774    11A     -1.093585    12A     -1.055707
      13A     -1.013597    14A     -0.967241    15A     -0.895615
      16A     -0.823099    17A     -0.779418    18A     -0.729564
      19A     -0.658337    20A     -0.652811    21A     -0.625620
      22A     -0.620481    23A     -0.608898    24A     -0.590380
      25A     -0.566771    26A     -0.556742    27A     -0.542067
      28A     -0.521236    29A     -0.513726    30A     -0.493512
      31A     -0.488396    32A     -0.476601    33A     -0.461506
      34A     -0.456165    35A     -0.451053    36A     -0.399486

  @DF-RHF Final Energy:  -387.13493615301917

   => Energetics <=

    Nuclear Repulsion Energy =            442.3959196999608707
    One-Electron Energy =               -1401.3695648398374942
    Two-Electron Energy =                 571.8387089868574549
    DFT Exchange-Correlation Energy =       0.0000000000000000
    Empirical Dispersion Energy =           0.0000000000000000
    PCM Polarization Energy =               0.0000000000000000
    EFP Energy =                            0.0000000000000000
    Total Energy =                       -387.1349361530192255
    Molecular point group: c1
  Basis Set: 6-31G*
  Basis Set:

  -Total Gradient:
     Atom            X                  Y                   Z
    ------   -----------------  -----------------  -----------------
       1        0.000019599228    -0.000029518799     0.000016136950
       2       -0.000050191544     0.000080964058    -0.000057742722
       3        0.000017007044    -0.000054236182     0.000021583071
       4        0.000013108444    -0.000034273460     0.000017116086
       5       -0.000011795267     0.000011183515    -0.000016703395
       6       -0.000009699522    -0.000003460205     0.000005889795
       7        0.000006960076     0.000000177925    -0.000006949036
       8       -0.000054835587     0.000093054299     0.000032174991
       9        0.000012141571    -0.000004245504    -0.000013977893
      10        0.000006872593     0.000018451332     0.000012084500
      11        0.000088081273    -0.000164995299     0.000259221874
      12       -0.000023208983    -0.000003370055    -0.000024381881
      13        0.000023788972     0.000042828418     0.000038126559
      14       -0.000073775030     0.000126660948    -0.000248083904
      15        0.000006200729    -0.000010919959    -0.000203505876
      16       -0.000070131264    -0.000051090211     0.000042243121
      17       -0.000030862355     0.000057954860     0.000076735553
      18        0.000122575763    -0.000148175294     0.000072751426
      19        0.000047262234     0.000074114791    -0.000023874360
      20        0.000023246277    -0.000019181286     0.000012052977
      21        0.000012560987    -0.000004333486    -0.000012457051
      22       -0.000073442750     0.000023974650     0.000003738564
      23        0.000000099010     0.000003938934     0.000006376641
      24       -0.000000709374    -0.000002748272    -0.000002556905
      25       -0.000000852530    -0.000002755727    -0.000005999083

  **** Optimization is complete! (in 7 steps) ****
    Final optimized geometry and variables:
    Molecular point group: c1

    Geometry (in Angstrom), charge = 0, multiplicity = 1:

    O            2.732069862191     1.576900301598     0.230584409744
    C            1.945779507606     1.604731243098     1.127083811722
    C            0.646370218290     0.820475162056     1.088988798721
    C            2.197114366872     2.431202751767     2.371639607614
    C            0.447761456386     0.008181347690    -0.187275148655
    H            0.621980112176     0.173374105712     1.964828533224
    H           -0.172324797470     1.525243501688     1.228367004401
    C           -0.869560989717    -0.770001768078    -0.188052233408
    H            1.281527158317    -0.676405944510    -0.306492855186
    H            0.482825760720     0.675526437702    -1.042675429294
    C           -1.069072706702    -1.587663148673    -1.467033043558
    H           -0.896634761537    -1.439272528836     0.671082808929
    H           -1.695387771386    -0.074406271391    -0.058855901841
    C           -2.331286088317    -2.457270302752    -1.480912065119
    H           -0.203611750768    -2.231663291312    -1.607584084597
    H           -1.087975611789    -0.915986266913    -2.323619428626
    C           -3.644332116641    -1.672251229183    -1.494905208419
    H           -2.297931929028    -3.097847287103    -2.358738598454
    H           -2.317705633305    -3.123388334679    -0.620544990093
    H           -3.680475165353    -0.988386045986    -2.338677969901
    H           -4.493597308021    -2.343449064287    -1.578431049109
    H           -3.779723913882    -1.088769998341    -0.590140193902
    H            2.204033590401     1.796576970285     3.253014485790
    H            3.147082463244     2.940144190881     2.285875433030
    H            1.405263753845     3.162129641323     2.507163322999

  Mulliken Charges: (a.u.)
   Center  Symbol    Alpha    Beta     Spin     Total
       1     O     4.26114  4.26114  0.00000 -0.52229
       2     C     2.73573  2.73573  0.00000  0.52854
       3     C     3.21075  3.21075  0.00000 -0.42151
       4     C     3.28665  3.28665  0.00000 -0.57330
       5     C     3.14781  3.14781  0.00000 -0.29561
       6     H     0.41000  0.41000  0.00000  0.18000
       7     H     0.41012  0.41012  0.00000  0.17977
       8     C     3.15551  3.15551  0.00000 -0.31102
       9     H     0.41218  0.41218  0.00000  0.17564
      10     H     0.41216  0.41216  0.00000  0.17568
      11     C     3.15268  3.15268  0.00000 -0.30537
      12     H     0.42536  0.42536  0.00000  0.14928
      13     H     0.42281  0.42281  0.00000  0.15438
      14     C     3.15261  3.15261  0.00000 -0.30522
      15     H     0.42063  0.42063  0.00000  0.15873
      16     H     0.42277  0.42277  0.00000  0.15446
      17     C     3.24110  3.24110  0.00000 -0.48220
      18     H     0.42032  0.42032  0.00000  0.15936
      19     H     0.42377  0.42377  0.00000  0.15246
      20     H     0.42186  0.42186  0.00000  0.15628
      21     H     0.41914  0.41914  0.00000  0.16172
      22     H     0.42100  0.42100  0.00000  0.15801
      23     H     0.40873  0.40873  0.00000  0.18253
      24     H     0.39645  0.39645  0.00000  0.20709
      25     H     0.40871  0.40871  0.00000  0.18258

   Total alpha = 36.00000, Total beta = 36.00000, Total charge = -0.00000
