  ==> Input File <==

--------------------------------------------------------------------------
set {
	reference rhf
	basis cc-pvtz
}

set_num_threads( 4 )
memory 2 gb

molecule MOL {
0 1

H	 -1.082183	 -0.917592	 0.035151
N	 -0.712187	 0.000026	 -0.093397
C	 0.734067	 -0.000020	 0.038424
H	 -1.133232	 0.585938	 0.595712
H	 1.140372	 -0.872115	 -0.458226
H	 1.140363	 0.872301	 -0.457869
H	 1.095085	 -0.000244	 1.065614

	symmetry c1
}
set optking {
	frozen_dihedral = ("
		1 2 3 7
	")
}

ee = optimize('scf')
oeprop('DIPOLE', 'QUADRUPOLE', 'MULLIKEN_CHARGES')
f=open( 'psi4out.xyz', 'w' )
f.write( "7  " )
f.write( str(ee) + "\n" )
f.write( MOL.save_string_xyz() )
f.close()
--------------------------------------------------------------------------

    Molecular point group: c1
  Charge       = 0
  Multiplicity = 1
  Basis Set: CC-PVTZ
  Basis Set:
  @DF-RHF Final Energy:   -95.25285927943557
    Total Energy =                        -95.2528592794355689
    Molecular point group: c1
  Basis Set: CC-PVTZ
  Basis Set:
  Basis Set: CC-PVTZ
  Basis Set:
  @DF-RHF Final Energy:   -95.25293381039978
    Total Energy =                        -95.2529338103997816
  Basis Set: CC-PVTZ
  Basis Set:
  Basis Set: CC-PVTZ
  Basis Set:
  @DF-RHF Final Energy:   -95.25294485737180
    Total Energy =                        -95.2529448573718014
  Basis Set: CC-PVTZ
  Basis Set:
  Charge       = 0
  Multiplicity = 1
  Basis Set: CC-PVTZ
  Basis Set:

    Orbital Energies (a.u.)
    -----------------------

    Doubly Occupied:

       1A    -15.527151     2A    -11.235425     3A     -1.170802
       4A     -0.897204     5A     -0.667449     6A     -0.601536
       7A     -0.559568     8A     -0.518587     9A     -0.383801

  @DF-RHF Final Energy:   -95.25294518182294

   => Energetics <=

    Nuclear Repulsion Energy =             42.3796124362203415
    One-Electron Energy =                -212.1420674583862365
    Two-Electron Energy =                  74.5095098403429290
    DFT Exchange-Correlation Energy =       0.0000000000000000
    Empirical Dispersion Energy =           0.0000000000000000
    PCM Polarization Energy =               0.0000000000000000
    EFP Energy =                            0.0000000000000000
    Total Energy =                        -95.2529451818229802
    Molecular point group: c1
  Basis Set: CC-PVTZ
  Basis Set:

  -Total Gradient:
     Atom            X                  Y                   Z
    ------   -----------------  -----------------  -----------------
       1        0.000222569008    -0.000393350989    -0.002339306484
       2       -0.000349572777     0.001212952923     0.002922917144
       3        0.000178096680    -0.003066715390    -0.000566059234
       4        0.000011546366    -0.000008545032    -0.000010636460
       5       -0.000017419965     0.000012944743    -0.000004906894
       6       -0.000023362122     0.000002801743     0.000000657301
       7       -0.000021857188     0.002239912002    -0.000002665372

  **** Optimization is complete! (in 4 steps) ****
    Final optimized geometry and variables:
    Molecular point group: c1

    Geometry (in Angstrom), charge = 0, multiplicity = 1:

    H           -1.086773187704    -0.907042532481     0.042342226391
    N           -0.712612436037     0.007493783364    -0.085305559914
    C            0.734762193970     0.011687960565     0.035743658236
    H           -1.142698807657     0.614999854980     0.577173180399
    H            1.143056238939    -0.852830360399    -0.471092294040
    H            1.140352242060     0.891431333403    -0.450127980129
    H            1.098662739379     0.010153909486     1.061376581509

  Mulliken Charges: (a.u.)
   Center  Symbol    Alpha    Beta     Spin     Total
       1     H     0.42690  0.42690  0.00000  0.14620
       2     N     3.68938  3.68938  0.00000 -0.37875
       3     C     3.06981  3.06981  0.00000 -0.13962
       4     H     0.42772  0.42772  0.00000  0.14457
       5     H     0.45710  0.45710  0.00000  0.08581
       6     H     0.45771  0.45771  0.00000  0.08458
       7     H     0.47139  0.47139  0.00000  0.05722

   Total alpha =  9.00000, Total beta =  9.00000, Total charge =  0.00000
