  ==> Input File <==

--------------------------------------------------------------------------
set {
	reference rhf
	basis 6-31G*
}

set_num_threads( 4 )
memory 2 gb

molecule MOL {
0 1

H	 -2.646374	 -0.642757	 1.268656
C	 -2.083525	 -0.384536	 0.393091
O	 -0.807605	 -0.127164	 0.768327
F	 -2.118945	 -1.383102	 -0.486752
F	 -2.621877	 0.670592	 -0.209486
C	 0.084052	 0.273579	 -0.209957
C	 1.353033	 -0.546803	 -0.018071
Cl	 0.433844	 2.004619	 -0.074457
H	 -0.288836	 0.092657	 -1.202930
F	 1.290811	 -1.234169	 1.102552
F	 2.381069	 0.274273	 0.062032
F	 1.560732	 -1.376439	 -1.011317

	symmetry c1
}
set optking {
	frozen_dihedral = ("
		10 7 6 9
	")
}

ee = optimize('scf')
oeprop('DIPOLE', 'QUADRUPOLE', 'MULLIKEN_CHARGES')
f=open( 'psi4out.xyz', 'w' )
f.write( "12  " )
f.write( str(ee) + "\n" )
f.write( MOL.save_string_xyz() )
f.close()
--------------------------------------------------------------------------

    Molecular point group: c1
  Charge       = 0
  Multiplicity = 1
  Basis Set: 6-31G*
  Basis Set:
  @DF-RHF Final Energy: -1146.30114714436581
    Total Energy =                      -1146.3011471443658138
    Molecular point group: c1
  Basis Set: 6-31G*
  Basis Set:
  Basis Set: 6-31G*
  Basis Set:
  @DF-RHF Final Energy: -1146.30212347022939
    Total Energy =                      -1146.3021234702287074
  Basis Set: 6-31G*
  Basis Set:
  Basis Set: 6-31G*
  Basis Set:
  @DF-RHF Final Energy: -1146.30527532733072
    Total Energy =                      -1146.3052753273304916
  Basis Set: 6-31G*
  Basis Set:
  Basis Set: 6-31G*
  Basis Set:
  @DF-RHF Final Energy: -1146.30555551302723
    Total Energy =                      -1146.3055555130272296
  Basis Set: 6-31G*
  Basis Set:
  Basis Set: 6-31G*
  Basis Set:
  @DF-RHF Final Energy: -1146.30557601646342
    Total Energy =                      -1146.3055760164625099
  Basis Set: 6-31G*
  Basis Set:
  Basis Set: 6-31G*
  Basis Set:
  @DF-RHF Final Energy: -1146.30557955118957
    Total Energy =                      -1146.3055795511900214
  Basis Set: 6-31G*
  Basis Set:
  Charge       = 0
  Multiplicity = 1
  Basis Set: 6-31G*
  Basis Set:

    Orbital Energies (a.u.)
    -----------------------

    Doubly Occupied:

       1A   -104.843542     2A    -26.359624     3A    -26.357229
       4A    -26.356260     5A    -26.345764     6A    -26.345645
       7A    -20.647287     8A    -11.529768     9A    -11.488678
      10A    -11.401796    11A    -10.578160    12A     -8.047513
      13A     -8.043965    14A     -8.043895    15A     -1.761503
      16A     -1.717059    17A     -1.657889    18A     -1.653741
      19A     -1.637813    20A     -1.484227    21A     -1.176920
      22A     -1.048358    23A     -0.985903    24A     -0.918828
      25A     -0.857149    26A     -0.851141    27A     -0.845440
      28A     -0.824445    29A     -0.811471    30A     -0.791111
      31A     -0.725990    32A     -0.723276    33A     -0.704154
      34A     -0.701780    35A     -0.678010    36A     -0.672946
      37A     -0.657861    38A     -0.656147    39A     -0.646700
      40A     -0.629760    41A     -0.596360    42A     -0.578830
      43A     -0.522217    44A     -0.475090    45A     -0.468427

  @DF-RHF Final Energy: -1146.30558010981758

   => Energetics <=

    Nuclear Repulsion Energy =            735.2378477580526805
    One-Electron Energy =               -3053.3875142488741403
    Two-Electron Energy =                1171.8440863810037627
    DFT Exchange-Correlation Energy =       0.0000000000000000
    Empirical Dispersion Energy =           0.0000000000000000
    PCM Polarization Energy =               0.0000000000000000
    EFP Energy =                            0.0000000000000000
    Total Energy =                      -1146.3055801098175834
    Molecular point group: c1
  Basis Set: 6-31G*
  Basis Set:

  -Total Gradient:
     Atom            X                  Y                   Z
    ------   -----------------  -----------------  -----------------
       1        0.000002080513     0.000002989072     0.000003100234
       2       -0.000047441803    -0.000035297217     0.000039905488
       3        0.000007838148     0.000026862532    -0.000035338761
       4        0.000015423211     0.000043326015    -0.000007121407
       5        0.000012480587    -0.000038427950    -0.000010739686
       6        0.002068723882     0.002729301163    -0.002151721511
       7        0.001450633650     0.002684725899     0.002323296382
       8        0.000041382326     0.000024731101     0.000002156820
       9       -0.002104872907    -0.002951684503     0.001369353118
      10       -0.001408697004    -0.002518797640    -0.001548637359
      11       -0.000018956510     0.000002377774    -0.000000388860
      12       -0.000018594103     0.000029893689     0.000016135535

  **** Optimization is complete! (in 7 steps) ****
    Final optimized geometry and variables:
    Molecular point group: c1

    Geometry (in Angstrom), charge = 0, multiplicity = 1:

    H           -2.671998334901    -0.655472292375     1.226997654123
    C           -2.087866968718    -0.396593658356     0.365717355022
    O           -0.829194581690    -0.113271563867     0.775434404298
    F           -2.077940007481    -1.407583226746    -0.502227101939
    F           -2.629801503578     0.639065047495    -0.266724751031
    C            0.083284210975     0.296327817646    -0.182662401586
    C            1.375962185788    -0.540055569968    -0.002008916944
    CL           0.373056761479     2.036486053003    -0.043785123874
    H           -0.291371473484     0.098660269238    -1.170371294823
    F            1.361611572540    -1.230049243908     1.112013666449
    F            2.468399564371     0.182977108628    -0.029202484968
    F            1.443437639746    -1.403458414947    -1.003470623165

  Mulliken Charges: (a.u.)
   Center  Symbol    Alpha    Beta     Spin     Total
       1     H     0.40117  0.40117  0.00000  0.19766
       2     C     2.56674  2.56674  0.00000  0.86652
       3     O     4.29384  4.29384  0.00000 -0.58768
       4     F     4.68734  4.68734  0.00000 -0.37469
       5     F     4.68437  4.68437  0.00000 -0.36874
       6     C     3.07064  3.07064  0.00000 -0.14128
       7     C     2.42471  2.42471  0.00000  1.15059
       8    CL     8.49470  8.49470  0.00000  0.01061
       9     H     0.36255  0.36255  0.00000  0.27490
      10     F     4.66670  4.66670  0.00000 -0.33339
      11     F     4.66718  4.66718  0.00000 -0.33435
      12     F     4.68007  4.68007  0.00000 -0.36015

   Total alpha = 45.00000, Total beta = 45.00000, Total charge = -0.00000
