  ==> Input File <==

--------------------------------------------------------------------------
set {
	reference rhf
	basis 6-31G*
}

set_num_threads( 4 )
memory 2 gb

molecule MOL {
0 1

O	 -2.324811	 1.361668	 -0.277141
C	 -2.105949	 0.203097	 -0.092081
C	 -0.889235	 -0.467034	 -0.705952
C	 -3.002726	 -0.644460	 0.782455
C	 0.168139	 0.575381	 -1.104036
H	 -1.219515	 -1.002899	 -1.589166
H	 -0.459588	 -1.186456	 -0.014676
C	 1.395662	 -0.064522	 -1.756973
H	 -0.295477	 1.286906	 -1.777963
H	 0.481263	 1.134339	 -0.223544
C	 2.512625	 0.924082	 -2.110683
H	 1.087287	 -0.594710	 -2.656156
H	 1.799442	 -0.816903	 -1.082634
C	 2.145004	 1.933536	 -3.199653
H	 3.379958	 0.356652	 -2.438476
H	 2.820253	 1.455405	 -1.212269
H	 1.823377	 1.429107	 -4.106754
H	 2.999236	 2.553764	 -3.452645
H	 1.344189	 2.595523	 -2.887789
H	 -3.496582	 -1.399307	 0.176174
H	 -3.747939	 -0.023774	 1.260148
H	 -2.421318	 -1.168775	 1.535358

	symmetry c1
}
set optking {
	frozen_dihedral = ("
		6 3 2 1
	")
}

ee = optimize('scf')
oeprop('DIPOLE', 'QUADRUPOLE', 'MULLIKEN_CHARGES')
f=open( 'psi4out.xyz', 'w' )
f.write( "22  " )
f.write( str(ee) + "\n" )
f.write( MOL.save_string_xyz() )
f.close()
--------------------------------------------------------------------------

    Molecular point group: c1
  Charge       = 0
  Multiplicity = 1
  Basis Set: 6-31G*
  Basis Set:
  @DF-RHF Final Energy:  -348.09873003683481
    Total Energy =                       -348.0987300368345814
    Molecular point group: c1
  Basis Set: 6-31G*
  Basis Set:
  Basis Set: 6-31G*
  Basis Set:
  @DF-RHF Final Energy:  -348.09787735552959
    Total Energy =                       -348.0978773555297039
  Basis Set: 6-31G*
  Basis Set:
  Basis Set: 6-31G*
  Basis Set:
  @DF-RHF Final Energy:  -348.09942272367221
    Total Energy =                       -348.0994227236719780
  Basis Set: 6-31G*
  Basis Set:
  Basis Set: 6-31G*
  Basis Set:
  @DF-RHF Final Energy:  -348.09981312826511
    Total Energy =                       -348.0998131282655095
  Basis Set: 6-31G*
  Basis Set:
  @DF-RHF Final Energy:  -348.09967594104796
    Total Energy =                       -348.0996759410477921
  @DF-RHF Final Energy:  -348.09990450471008
    Total Energy =                       -348.0999045047100822
  @DF-RHF Final Energy:  -348.09995703184620
    Total Energy =                       -348.0999570318462588
  Basis Set: 6-31G*
  Basis Set:
  @DF-RHF Final Energy:  -348.09994112971401
    Total Energy =                       -348.0999411297142387
  Basis Set: 6-31G*
  Basis Set:
  Basis Set: 6-31G*
  Basis Set:
  @DF-RHF Final Energy:  -348.09995646462698
    Total Energy =                       -348.0999564646268709
  Basis Set: 6-31G*
  Basis Set:
  Basis Set: 6-31G*
  Basis Set:
  @DF-RHF Final Energy:  -348.09996141439001
    Total Energy =                       -348.0999614143898953
  Basis Set: 6-31G*
  Basis Set:
  Charge       = 0
  Multiplicity = 1
  Basis Set: 6-31G*
  Basis Set:

    Orbital Energies (a.u.)
    -----------------------

    Doubly Occupied:

       1A    -20.549742     2A    -11.326424     3A    -11.231850
       4A    -11.228600     5A    -11.217890     6A    -11.217307
       7A    -11.216430     8A    -11.207470     9A     -1.395403
      10A     -1.090706    11A     -1.042781    12A     -1.000928
      13A     -0.934842    14A     -0.854172    15A     -0.781538
      16A     -0.730971    17A     -0.658438    18A     -0.646526
      19A     -0.628895    20A     -0.615307    21A     -0.598952
      22A     -0.580386    23A     -0.561138    24A     -0.546712
      25A     -0.524862    26A     -0.510754    27A     -0.497730
      28A     -0.483952    29A     -0.465458    30A     -0.461386
      31A     -0.457217    32A     -0.399070

  @DF-RHF Final Energy:  -348.09996151227796

   => Energetics <=

    Nuclear Repulsion Energy =            372.4307718448553146
    One-Electron Energy =               -1209.7337934162956117
    Two-Electron Energy =                 489.2030600591622260
    DFT Exchange-Correlation Energy =       0.0000000000000000
    Empirical Dispersion Energy =           0.0000000000000000
    PCM Polarization Energy =               0.0000000000000000
    EFP Energy =                            0.0000000000000000
    Total Energy =                       -348.0999615122780142
    Molecular point group: c1
  Basis Set: 6-31G*
  Basis Set:

  -Total Gradient:
     Atom            X                  Y                   Z
    ------   -----------------  -----------------  -----------------
       1       -0.000597245437    -0.000277331186    -0.000882443918
       2        0.000874270467     0.000565660841     0.001153484985
       3       -0.000421404445    -0.001178456279     0.000343934467
       4       -0.000016007936     0.000010503448    -0.000021753515
       5        0.000021767819    -0.000001517919     0.000036139870
       6        0.000145822069     0.000863517920    -0.000585610597
       7       -0.000010823881     0.000002012026    -0.000001490306
       8       -0.000001525457     0.000012026488    -0.000077447176
       9        0.000020147406    -0.000013447022     0.000000640769
      10       -0.000011453925     0.000015988991     0.000012706356
      11       -0.000012239379     0.000011034221     0.000030780404
      12        0.000006556029    -0.000024711974    -0.000016711749
      13       -0.000014767562     0.000018441212     0.000009573885
      14        0.000002832087    -0.000008664635    -0.000007948941
      15       -0.000015842773    -0.000000401059    -0.000000241524
      16        0.000013624172     0.000005531938     0.000008261005
      17       -0.000002408209     0.000002028914    -0.000002112345
      18        0.000002699160     0.000002203495    -0.000001597075
      19        0.000003248067    -0.000005728380     0.000002464101
      20        0.000003307145    -0.000006391815    -0.000000648732
      21       -0.000003219000    -0.000001743158     0.000010434776
      22        0.000012663597     0.000009443935    -0.000010414741

  **** Optimization is complete! (in 11 steps) ****
    Final optimized geometry and variables:
    Molecular point group: c1

    Geometry (in Angstrom), charge = 0, multiplicity = 1:

    O           -2.118169423218     0.884110261846     0.837274542248
    C           -1.844656158238    -0.265579574532     1.000041104375
    C           -0.620468016156    -0.900316465064     0.363277650021
    C           -2.721654825887    -1.176396425912     1.832215502111
    C            0.455129453548     0.105691553367    -0.042593656832
    H           -0.974454903191    -1.438543449526    -0.516419000999
    H           -0.217311897724    -1.655995065087     1.033204208093
    C            1.646460294924    -0.565522747679    -0.730407459029
    H            0.006790242206     0.848855204928    -0.689633765087
    H            0.797454773935     0.638130120304     0.841519824453
    C            2.793183495373     0.388776705653    -1.082920398913
    H            1.306927206919    -1.066015796772    -1.636360509057
    H            2.036014861737    -1.347074491896    -0.080650857722
    C            2.442286396760     1.438810773768    -2.138506558843
    H            3.632746151853    -0.201204721174    -1.442221047422
    H            3.137032205588     0.886033999686    -0.178307913675
    H            2.084859744879     0.969804625014    -3.051415492752
    H            3.313919641010     2.033662397214    -2.393483528363
    H            1.672796042888     2.120834344270    -1.793289563423
    H           -2.938196286093    -2.098112016447     1.300511098056
    H           -3.643815121354    -0.671212806415     2.083786849998
    H           -2.200900004713    -1.446998436539     2.746896934050

  Mulliken Charges: (a.u.)
   Center  Symbol    Alpha    Beta     Spin     Total
       1     O     4.26247  4.26247  0.00000 -0.52493
       2     C     2.73409  2.73409  0.00000  0.53183
       3     C     3.21048  3.21048  0.00000 -0.42096
       4     C     3.28749  3.28749  0.00000 -0.57499
       5     C     3.15245  3.15245  0.00000 -0.30490
       6     H     0.40591  0.40591  0.00000  0.18817
       7     H     0.41313  0.41313  0.00000  0.17374
       8     C     3.15413  3.15413  0.00000 -0.30826
       9     H     0.40395  0.40395  0.00000  0.19210
      10     H     0.41794  0.41794  0.00000  0.16412
      11     C     3.15230  3.15230  0.00000 -0.30460
      12     H     0.42450  0.42450  0.00000  0.15100
      13     H     0.42381  0.42381  0.00000  0.15238
      14     C     3.24224  3.24224  0.00000 -0.48447
      15     H     0.42100  0.42100  0.00000  0.15800
      16     H     0.42236  0.42236  0.00000  0.15529
      17     H     0.42254  0.42254  0.00000  0.15493
      18     H     0.41897  0.41897  0.00000  0.16206
      19     H     0.41668  0.41668  0.00000  0.16665
      20     H     0.41008  0.41008  0.00000  0.17984
      21     H     0.39686  0.39686  0.00000  0.20628
      22     H     0.40663  0.40663  0.00000  0.18674

   Total alpha = 32.00000, Total beta = 32.00000, Total charge = -0.00000
