  ==> Input File <==

--------------------------------------------------------------------------
set {
	reference rhf
	basis 6-31G*
}

set_num_threads( 4 )
memory 2 gb

molecule MOL {
0 1

H	 2.770563	 -0.500259	 -0.452395
O	 2.016064	 -0.864478	 0.000222
C	 1.050492	 0.053836	 0.000068
C	 -0.318135	 -0.576402	 0.000164
O	 1.285279	 1.218255	 -0.000078
C	 -1.454360	 0.441875	 -0.000474
H	 -0.374042	 -1.230163	 -0.866135
H	 -0.374274	 -1.229227	 0.867154
C	 -2.826123	 -0.230780	 0.000056
H	 -1.357605	 1.085198	 -0.868380
H	 -1.357504	 1.086451	 0.866496
H	 -2.959731	 -0.858053	 -0.876869
H	 -3.619374	 0.509403	 -0.000080
H	 -2.959371	 -0.857318	 0.877556

	symmetry c1
}
set optking {
	frozen_dihedral = ("
		1 2 3 5
	")
}

ee = optimize('scf')
oeprop('DIPOLE', 'QUADRUPOLE', 'MULLIKEN_CHARGES')
f=open( 'psi4out.xyz', 'w' )
f.write( "14  " )
f.write( str(ee) + "\n" )
f.write( MOL.save_string_xyz() )
f.close()
--------------------------------------------------------------------------

    Molecular point group: c1
  Charge       = 0
  Multiplicity = 1
  Basis Set: 6-31G*
  Basis Set:
  @DF-RHF Final Energy:  -305.87542787810207
    Total Energy =                       -305.8754278781021299
    Molecular point group: c1
  Basis Set: 6-31G*
  Basis Set:
  Basis Set: 6-31G*
  Basis Set:
  @DF-RHF Final Energy:  -305.87212919603559
    Total Energy =                       -305.8721291960355302
  Basis Set: 6-31G*
  Basis Set:
  Basis Set: 6-31G*
  Basis Set:
  @DF-RHF Final Energy:  -305.87587650253033
    Total Energy =                       -305.8758765025302182
  Basis Set: 6-31G*
  Basis Set:
  Basis Set: 6-31G*
  Basis Set:
  @DF-RHF Final Energy:  -305.87593663342852
    Total Energy =                       -305.8759366334282959
  Basis Set: 6-31G*
  Basis Set:
  Basis Set: 6-31G*
  Basis Set:
  @DF-RHF Final Energy:  -305.87594473286782
    Total Energy =                       -305.8759447328676515
  Basis Set: 6-31G*
  Basis Set:
  Basis Set: 6-31G*
  Basis Set:
  @DF-RHF Final Energy:  -305.87594591380355
    Total Energy =                       -305.8759459138036050
  Basis Set: 6-31G*
  Basis Set:
  Charge       = 0
  Multiplicity = 1
  Basis Set: 6-31G*
  Basis Set:

    Orbital Energies (a.u.)
    -----------------------

    Doubly Occupied:

       1A    -20.609156     2A    -20.554315     3A    -11.381825
       4A    -11.240926     5A    -11.225336     6A    -11.217009
       7A     -1.471062     8A     -1.366998     9A     -1.082643
      10A     -0.978831    11A     -0.856362    12A     -0.791813
      13A     -0.701589    14A     -0.686730    15A     -0.665065
      16A     -0.621045    17A     -0.585016    18A     -0.571606
      19A     -0.545290    20A     -0.504739    21A     -0.491811
      22A     -0.482160    23A     -0.479653    24A     -0.444406

  @DF-RHF Final Energy:  -305.87594538512883

   => Energetics <=

    Nuclear Repulsion Energy =            239.7815493555265220
    One-Electron Energy =                -892.2042157371295161
    Two-Electron Energy =                 346.5467209964742210
    DFT Exchange-Correlation Energy =       0.0000000000000000
    Empirical Dispersion Energy =           0.0000000000000000
    PCM Polarization Energy =               0.0000000000000000
    EFP Energy =                            0.0000000000000000
    Total Energy =                       -305.8759453851287731
    Molecular point group: c1
  Basis Set: 6-31G*
  Basis Set:

  -Total Gradient:
     Atom            X                  Y                   Z
    ------   -----------------  -----------------  -----------------
       1       -0.002817063351    -0.003996650325    -0.008838598359
       2        0.003189175262     0.004930042441     0.015159820235
       3        0.000436431197    -0.001455725645    -0.015473085495
       4       -0.000015492700    -0.000016700164     0.000047853693
       5       -0.000815153643     0.000474847936     0.009118772016
       6       -0.000004723845     0.000009330286    -0.000044312842
       7        0.000030167345    -0.000035657235    -0.000009411431
       8       -0.000017133161     0.000084118212     0.000011564494
       9        0.000007215063    -0.000003491665     0.000014051012
      10        0.000004969534    -0.000005653267     0.000002280641
      11       -0.000005553405     0.000015207073     0.000014781205
      12       -0.000001894177     0.000003239487    -0.000005182040
      13        0.000008024744     0.000001371482     0.000004636066
      14        0.000001031130    -0.000004278612    -0.000003169194

  **** Optimization is complete! (in 7 steps) ****
    Final optimized geometry and variables:
    Molecular point group: c1

    Geometry (in Angstrom), charge = 0, multiplicity = 1:

    H            2.814288199712    -0.527422208911    -0.329624604756
    O            2.020402456006    -0.861851061274     0.073948316009
    C            1.051745474868     0.057240633406    -0.033779052873
    C           -0.316501704494    -0.573262268301    -0.014657465813
    O            1.280533257714     1.220786606021    -0.060316627854
    C           -1.454900180771     0.441759980269     0.017581037137
    H           -0.387325550507    -1.217531592226    -0.887590180390
    H           -0.353987506402    -1.237537079341     0.844477545580
    C           -2.825171822264    -0.233833142677     0.031069180278
    H           -1.373735750037     1.098069280691    -0.842098786758
    H           -1.345285462226     1.073819281844     0.892428709431
    H           -2.972461404135    -0.847801882523    -0.853104136247
    H           -3.619821296836     0.504442422890     0.055785374000
    H           -2.942253956908    -0.874173820847     0.900836821691

  Mulliken Charges: (a.u.)
   Center  Symbol    Alpha    Beta     Spin     Total
       1     H     0.26714  0.26714  0.00000  0.46571
       2     O     4.35500  4.35500  0.00000 -0.71000
       3     C     2.62603  2.62603  0.00000  0.74793
       4     C     3.20929  3.20929  0.00000 -0.41859
       5     O     4.27135  4.27135  0.00000 -0.54271
       6     C     3.15248  3.15248  0.00000 -0.30496
       7     H     0.40118  0.40118  0.00000  0.19764
       8     H     0.39781  0.39781  0.00000  0.20438
       9     C     3.24285  3.24285  0.00000 -0.48571
      10     H     0.41030  0.41030  0.00000  0.17939
      11     H     0.41023  0.41023  0.00000  0.17954
      12     H     0.42118  0.42118  0.00000  0.15765
      13     H     0.41451  0.41451  0.00000  0.17098
      14     H     0.42063  0.42063  0.00000  0.15873

   Total alpha = 24.00000, Total beta = 24.00000, Total charge =  0.00000
