  ==> Input File <==

--------------------------------------------------------------------------
set {
	reference rhf
	basis cc-pvtz
}

set_num_threads( 4 )
memory 2 gb

molecule MOL {
0 1

H	 -0.000105	 1.988529	 0.748933
O	 -0.000098	 1.879786	 -0.188206
C	 -0.000014	 0.545691	 -0.532416
C	 -1.286000	 -0.125171	 -0.046657
C	 1.286016	 -0.125031	 -0.046584
H	 0.000021	 0.481103	 -1.610604
F	 -1.966101	 -0.557269	 -1.079911
F	 -1.049046	 -1.148239	 0.734941
F	 -2.050336	 0.722470	 0.608071
F	 2.317750	 0.468717	 -0.594166
F	 1.336617	 -1.393765	 -0.365123
F	 1.414467	 -0.024806	 1.259108

	symmetry c1
}
set optking {
	frozen_dihedral = ("
		7 4 3 6
	")
}

ee = optimize('scf')
oeprop('DIPOLE', 'QUADRUPOLE', 'MULLIKEN_CHARGES')
f=open( 'psi4out.xyz', 'w' )
f.write( "12  " )
f.write( str(ee) + "\n" )
f.write( MOL.save_string_xyz() )
f.close()
--------------------------------------------------------------------------

    Molecular point group: c1
  Charge       = 0
  Multiplicity = 1
  Basis Set: CC-PVTZ
  Basis Set:
  @DF-RHF Final Energy:  -786.58240885718794
    Total Energy =                       -786.5824088571885113
    Molecular point group: c1
  Basis Set: CC-PVTZ
  Basis Set:
  Basis Set: CC-PVTZ
  Basis Set:
  @DF-RHF Final Energy:  -786.58297685433729
    Total Energy =                       -786.5829768543369482
  Basis Set: CC-PVTZ
  Basis Set:
  Basis Set: CC-PVTZ
  Basis Set:
  @DF-RHF Final Energy:  -786.58355336041666
    Total Energy =                       -786.5835533604167722
  Basis Set: CC-PVTZ
  Basis Set:
  Basis Set: CC-PVTZ
  Basis Set:
  @DF-RHF Final Energy:  -786.58357839273413
    Total Energy =                       -786.5835783927338980
  Basis Set: CC-PVTZ
  Basis Set:
  Basis Set: CC-PVTZ
  Basis Set:
  @DF-RHF Final Energy:  -786.58358404989360
    Total Energy =                       -786.5835840498941707
  Basis Set: CC-PVTZ
  Basis Set:
  Basis Set: CC-PVTZ
  Basis Set:
  @DF-RHF Final Energy:  -786.58358528229110
    Total Energy =                       -786.5835852822910965
  Basis Set: CC-PVTZ
  Basis Set:
  Charge       = 0
  Multiplicity = 1
  Basis Set: CC-PVTZ
  Basis Set:

    Orbital Energies (a.u.)
    -----------------------

    Doubly Occupied:

       1A    -26.358558     2A    -26.356819     3A    -26.356103
       4A    -26.355801     5A    -26.355651     6A    -26.351903
       7A    -20.608816     8A    -11.522543     9A    -11.517209
      10A    -11.351808    11A     -1.772120    12A     -1.765418
      13A     -1.665741    14A     -1.663967    15A     -1.663700
      16A     -1.658950    17A     -1.438774    18A     -1.100213
      19A     -1.000631    20A     -0.943930    21A     -0.872423
      22A     -0.865622    23A     -0.857768    24A     -0.853541
      25A     -0.841512    26A     -0.819723    27A     -0.739773
      28A     -0.736791    29A     -0.735739    30A     -0.730105
      31A     -0.694663    32A     -0.691388    33A     -0.688639
      34A     -0.684160    35A     -0.674697    36A     -0.668801
      37A     -0.662361    38A     -0.654466    39A     -0.622494
      40A     -0.552013    41A     -0.509040

  @DF-RHF Final Energy:  -786.58358540781126

   => Energetics <=

    Nuclear Repulsion Energy =            669.6119767928488500
    One-Electron Energy =               -2426.4623800946615120
    Two-Electron Energy =                 970.2668178940018606
    DFT Exchange-Correlation Energy =       0.0000000000000000
    Empirical Dispersion Energy =           0.0000000000000000
    PCM Polarization Energy =               0.0000000000000000
    EFP Energy =                            0.0000000000000000
    Total Energy =                       -786.5835854078106877
    Molecular point group: c1
  Basis Set: CC-PVTZ
  Basis Set:

  -Total Gradient:
     Atom            X                  Y                   Z
    ------   -----------------  -----------------  -----------------
       1       -0.000001580032     0.000001941438    -0.000002925185
       2       -0.000000391855    -0.000018631688     0.000013224013
       3        0.000205129679    -0.000310646876     0.000019651653
       4       -0.000174821836     0.000326520719    -0.000008212305
       5       -0.000001717981    -0.000021994852     0.000008452524
       6       -0.000136020868     0.000230946010    -0.000021365038
       7        0.000084667679    -0.000217243143    -0.000027564429
       8       -0.000010551140     0.000010297579     0.000017706960
       9        0.000041209654    -0.000024741692    -0.000001786162
      10       -0.000011189325     0.000007997993    -0.000005236745
      11       -0.000003400390    -0.000003320927    -0.000015392181
      12        0.000008666415     0.000018875444     0.000023446898

  **** Optimization is complete! (in 7 steps) ****
    Final optimized geometry and variables:
    Molecular point group: c1

    Geometry (in Angstrom), charge = 0, multiplicity = 1:

    H           -0.049984554461     2.047118326882     0.728989800226
    O            0.041375734594     1.910480188967    -0.199142574784
    C            0.009784441157     0.573378409535    -0.521315767369
    C           -1.290618208227    -0.125387179661    -0.037010952155
    C            1.286192587611    -0.117021946533    -0.044013796149
    H            0.013525685063     0.507627014969    -1.597963835912
    F           -1.972404728321    -0.572604069561    -1.065979185975
    F           -1.066881274949    -1.143997240941     0.758775939459
    F           -2.054607876019     0.716353244464     0.615960035380
    F            2.327209008897     0.473434875775    -0.576627685799
    F            1.315589179166    -1.377987556995    -0.401011488135
    F            1.414810377176    -0.048223134464     1.263096978852

  Mulliken Charges: (a.u.)
   Center  Symbol    Alpha    Beta     Spin     Total
       1     H     0.38245  0.38245  0.00000  0.23511
       2     O     4.18349  4.18349  0.00000 -0.36698
       3     C     3.02240  3.02240  0.00000 -0.04479
       4     C     2.67381  2.67381  0.00000  0.65239
       5     C     2.67825  2.67825  0.00000  0.64350
       6     H     0.42835  0.42835  0.00000  0.14329
       7     F     4.60509  4.60509  0.00000 -0.21018
       8     F     4.60223  4.60223  0.00000 -0.20447
       9     F     4.60504  4.60504  0.00000 -0.21007
      10     F     4.60160  4.60160  0.00000 -0.20319
      11     F     4.60584  4.60584  0.00000 -0.21169
      12     F     4.61146  4.61146  0.00000 -0.22292

   Total alpha = 41.00000, Total beta = 41.00000, Total charge = -0.00000
