  ==> Input File <==

--------------------------------------------------------------------------
set {
	reference rhf
	basis 6-31G*
}

set_num_threads( 1 )
memory 2 gb

molecule MOL {
0 1

H	 -2.798360	 -0.862255	 -0.071053
N	 -1.863561	 -0.715187	 0.256814
C	 -1.344686	 0.554728	 -0.219830
H	 -1.300452	 -1.461917	 -0.101532
C	 0.081427	 0.741154	 0.254071
H	 -1.362155	 0.656231	 -1.305829
H	 -1.952773	 1.354456	 0.191809
O	 0.874168	 -0.245412	 -0.342030
H	 0.444037	 1.730782	 -0.023037
H	 0.121165	 0.653424	 1.337565
C	 0.715820	 -0.353935	 -1.720696
H	 1.371761	 -1.141799	 -2.065237
H	 -0.308881	 -0.609386	 -1.984733
H	 0.981532	 0.572528	 -2.225545

	symmetry c1
}
set optking {
	frozen_dihedral = ("
		8 5 3 6,
		6 3 2 4,
		5 8 11 13
	")
}

ee = energy('scf')
oeprop('DIPOLE', 'QUADRUPOLE', 'MULLIKEN_CHARGES')
f=open( 'psi4out.xyz', 'w' )
f.write( "14  " )
f.write( str(ee) + "\n" )
f.write( MOL.save_string_xyz() )
f.close()
--------------------------------------------------------------------------

    Molecular point group: c1

    Geometry (in Angstrom), charge = 0, multiplicity = 1:

       Center              X                  Y                   Z               Mass
    ------------   -----------------  -----------------  -----------------  -----------------
           H         -2.484988166414    -0.839106088828     0.307381728094     1.007825032070
           N         -1.550189166414    -0.692038088828     0.635248728094    14.003074004780
           C         -1.031314166414     0.577876911172     0.158604728094    12.000000000000
           H         -0.987080166414    -1.438768088828     0.276902728094     1.007825032070
           C          0.394798833586     0.764302911172     0.632505728094    12.000000000000
           H         -1.048783166414     0.679379911172    -0.927394271906     1.007825032070
           H         -1.639401166414     1.377604911172     0.570243728094     1.007825032070
           O          1.187539833586    -0.222263088828     0.036404728094    15.994914619560
           H          0.757408833586     1.753930911172     0.355397728094     1.007825032070
           H          0.434536833586     0.676572911172     1.715999728094     1.007825032070
           C          1.029191833586    -0.330786088828    -1.342261271906    12.000000000000
           H          1.685132833586    -1.118650088828    -1.686802271906     1.007825032070
           H          0.004490833586    -0.586237088828    -1.606298271906     1.007825032070
           H          1.294903833586     0.595676911172    -1.847110271906     1.007825032070

  Charge       = 0
  Multiplicity = 1
  Basis Set: 6-31G*
  Basis Set:

    Orbital Energies (a.u.)
    -----------------------

    Doubly Occupied:

       1A    -20.557422     2A    -15.536326     3A    -11.268076
       4A    -11.267018     5A    -11.242038     6A     -1.384546
       7A     -1.179869     8A     -0.996966     9A     -0.928934
      10A     -0.804328    11A     -0.700021    12A     -0.681980
      13A     -0.643423    14A     -0.618318    15A     -0.598691
      16A     -0.543268    17A     -0.534433    18A     -0.521400
      19A     -0.459174    20A     -0.418967    21A     -0.384454

  @DF-RHF Final Energy:  -248.11088793232307

   => Energetics <=

    Nuclear Repulsion Energy =            200.9387542538547677
    One-Electron Energy =                -735.5597951208362701
    Two-Electron Energy =                 286.5101529346580946
    DFT Exchange-Correlation Energy =       0.0000000000000000
    Empirical Dispersion Energy =           0.0000000000000000
    PCM Polarization Energy =               0.0000000000000000
    EFP Energy =                            0.0000000000000000
    Total Energy =                       -248.1108879323234078

  Mulliken Charges: (a.u.)
   Center  Symbol    Alpha    Beta     Spin     Total
       1     H     0.33191  0.33191  0.00000  0.33617
       2     N     3.91987  3.91987  0.00000 -0.83975
       3     C     3.09446  3.09446  0.00000 -0.18891
       4     H     0.32537  0.32537  0.00000  0.34927
       5     C     2.98934  2.98934  0.00000  0.02131
       6     H     0.42761  0.42761  0.00000  0.14478
       7     H     0.41661  0.41661  0.00000  0.16678
       8     O     4.30505  4.30505  0.00000 -0.61010
       9     H     0.42921  0.42921  0.00000  0.14158
      10     H     0.40516  0.40516  0.00000  0.18967
      11     C     3.08898  3.08898  0.00000 -0.17796
      12     H     0.40970  0.40970  0.00000  0.18060
      13     H     0.42917  0.42917  0.00000  0.14166
      14     H     0.42755  0.42755  0.00000  0.14491

   Total alpha = 21.00000, Total beta = 21.00000, Total charge = -0.00000
