  ==> Input File <==

--------------------------------------------------------------------------
set {
	reference rhf
	basis 6-31G*
}

set_num_threads( 1 )
memory 2 gb

molecule MOL {
0 1

H	 -0.275822	 3.375306	 -1.189027
C	 0.278963	 3.124448	 -0.276390
C	 -0.516903	 2.388328	 0.771147
O	 1.421409	 3.432473	 -0.168279
C	 -1.220012	 1.144545	 0.209990
H	 0.146639	 2.135677	 1.590042
H	 -1.265843	 3.082589	 1.150286
C	 -0.252658	 0.041456	 -0.226725
H	 -1.890534	 0.755969	 0.970709
H	 -1.850225	 1.433764	 -0.629618
C	 1.180775	 0.282413	 0.250794
H	 -0.266029	 -0.034465	 -1.312038
H	 -0.597733	 -0.921000	 0.146291
C	 2.148627	 -0.814315	 -0.201312
H	 1.516199	 1.249228	 -0.115937
H	 1.192670	 0.346017	 1.338083
C	 3.580890	 -0.659131	 0.322722
H	 2.166869	 -0.852443	 -1.289387
H	 1.762857	 -1.776509	 0.128956
C	 4.324889	 0.564933	 -0.213704
H	 4.142010	 -1.551473	 0.056605
H	 3.564836	 -0.624694	 1.410140
H	 4.342616	 0.565491	 -1.300421
H	 3.866655	 1.493402	 0.110242
H	 5.353900	 0.572371	 0.132816

	symmetry c1
}
set optking {
	frozen_dihedral = ("
		6 3 5 8,
		6 3 2 4,
		12 8 11 14,
		8 11 14 18,
		20 17 14 18
	")
}

ee = energy('scf')
oeprop('DIPOLE', 'QUADRUPOLE', 'MULLIKEN_CHARGES')
f=open( 'psi4out.xyz', 'w' )
f.write( "25  " )
f.write( str(ee) + "\n" )
f.write( MOL.save_string_xyz() )
f.close()
--------------------------------------------------------------------------

    Molecular point group: c1

    Geometry (in Angstrom), charge = 0, multiplicity = 1:

       Center              X                  Y                   Z               Mass
    ------------   -----------------  -----------------  -----------------  -----------------
           H         -1.517708737035     2.305248874713    -1.237058256653     1.007825032070
           C         -0.962923737035     2.054390874713    -0.324421256653    12.000000000000
           C         -1.758789737035     1.318270874713     0.723115743347    12.000000000000
           O          0.179522262965     2.362415874713    -0.216310256653    15.994914619560
           C         -2.461898737035     0.074487874713     0.161958743347    12.000000000000
           H         -1.095247737035     1.065619874713     1.542010743347     1.007825032070
           H         -2.507729737035     2.012531874713     1.102254743347     1.007825032070
           C         -1.494544737035    -1.028601125287    -0.274756256653    12.000000000000
           H         -3.132420737035    -0.314088125287     0.922677743347     1.007825032070
           H         -3.092111737035     0.363706874713    -0.677649256653     1.007825032070
           C         -0.061111737035    -0.787644125287     0.202762743347    12.000000000000
           H         -1.507915737035    -1.104522125287    -1.360069256653     1.007825032070
           H         -1.839619737035    -1.991057125287     0.098259743347     1.007825032070
           C          0.906740262965    -1.884372125287    -0.249343256653    12.000000000000
           H          0.274312262965     0.179170874713    -0.163968256653     1.007825032070
           H         -0.049216737035    -0.724040125287     1.290051743347     1.007825032070
           C          2.339003262965    -1.729188125287     0.274690743347    12.000000000000
           H          0.924982262965    -1.922500125287    -1.337418256653     1.007825032070
           H          0.520970262965    -2.846566125287     0.080924743347     1.007825032070
           C          3.083002262965    -0.505124125287    -0.261735256653    12.000000000000
           H          2.900123262965    -2.621530125287     0.008573743347     1.007825032070
           H          2.322949262965    -1.694751125287     1.362108743347     1.007825032070
           H          3.100729262965    -0.504566125287    -1.348452256653     1.007825032070
           H          2.624768262965     0.423344874713     0.062210743347     1.007825032070
           H          4.112013262965    -0.497686125287     0.084784743347     1.007825032070

  Charge       = 0
  Multiplicity = 1
  Basis Set: 6-31G*
  Basis Set:

    Orbital Energies (a.u.)
    -----------------------

    Doubly Occupied:

       1A    -20.564775     2A    -11.330192     3A    -11.235039
       4A    -11.233649     5A    -11.219815     6A    -11.209775
       7A    -11.209119     8A    -11.207766     9A    -11.198155
      10A     -1.407534    11A     -1.105566    12A     -1.061591
      13A     -1.002682    14A     -0.941544    15A     -0.877421
      16A     -0.818167    17A     -0.786316    18A     -0.766758
      19A     -0.671729    20A     -0.663118    21A     -0.631259
      22A     -0.620318    23A     -0.599018    24A     -0.594508
      25A     -0.564538    26A     -0.545947    27A     -0.539586
      28A     -0.525002    29A     -0.508718    30A     -0.497446
      31A     -0.472434    32A     -0.469389    33A     -0.453917
      34A     -0.442616    35A     -0.438389    36A     -0.411924

  @DF-RHF Final Energy:  -387.10486844888254

   => Energetics <=

    Nuclear Repulsion Energy =            468.1233389082179315
    One-Electron Energy =               -1452.8050345974563697
    Two-Electron Energy =                 597.5768272403549872
    DFT Exchange-Correlation Energy =       0.0000000000000000
    Empirical Dispersion Energy =           0.0000000000000000
    PCM Polarization Energy =               0.0000000000000000
    EFP Energy =                            0.0000000000000000
    Total Energy =                       -387.1048684488835079

  Mulliken Charges: (a.u.)
   Center  Symbol    Alpha    Beta     Spin     Total
       1     H     0.42983  0.42983  0.00000  0.14034
       2     C     2.83263  2.83263  0.00000  0.33473
       3     C     3.21486  3.21486  0.00000 -0.42972
       4     O     4.23917  4.23917  0.00000 -0.47835
       5     C     3.16675  3.16675  0.00000 -0.33350
       6     H     0.39572  0.39572  0.00000  0.20857
       7     H     0.40355  0.40355  0.00000  0.19291
       8     C     3.15723  3.15723  0.00000 -0.31447
       9     H     0.41062  0.41062  0.00000  0.17875
      10     H     0.41708  0.41708  0.00000  0.16583
      11     C     3.17821  3.17821  0.00000 -0.35642
      12     H     0.41987  0.41987  0.00000  0.16027
      13     H     0.41734  0.41734  0.00000  0.16532
      14     C     3.14888  3.14888  0.00000 -0.29775
      15     H     0.39618  0.39618  0.00000  0.20763
      16     H     0.42420  0.42420  0.00000  0.15160
      17     C     3.15168  3.15168  0.00000 -0.30336
      18     H     0.42527  0.42527  0.00000  0.14946
      19     H     0.42506  0.42506  0.00000  0.14989
      20     C     3.24522  3.24522  0.00000 -0.49045
      21     H     0.42262  0.42262  0.00000  0.15475
      22     H     0.42451  0.42451  0.00000  0.15099
      23     H     0.42371  0.42371  0.00000  0.15258
      24     H     0.40857  0.40857  0.00000  0.18287
      25     H     0.42122  0.42122  0.00000  0.15755

   Total alpha = 36.00000, Total beta = 36.00000, Total charge =  0.00000
