  ==> Input File <==

--------------------------------------------------------------------------
set {
	reference rhf
	basis 6-31G*
}

set_num_threads( 4 )
memory 2 gb

molecule MOL {
0 1

H	 -0.571303	 2.093096	 0.896234
C	 0.184500	 1.334341	 1.104415
N	 0.538815	 0.649616	 0.000000
O	 0.622282	 1.162710	 2.203550
C	 1.521968	 -0.411503	 0.000000
H	 0.096692	 0.892296	 -0.856690
H	 2.150599	 -0.357004	 -0.881901
H	 0.999455	 -1.354525	 0.000000
H	 2.150599	 -0.357004	 0.881901

	symmetry c1
}
set optking {
	frozen_dihedral = ("
		6 3 5 7
	")
}

ee = optimize('scf')
oeprop('DIPOLE', 'QUADRUPOLE', 'MULLIKEN_CHARGES')
f=open( 'psi4out.xyz', 'w' )
f.write( "9  " )
f.write( str(ee) + "\n" )
f.write( MOL.save_string_xyz() )
f.close()
--------------------------------------------------------------------------

    Molecular point group: c1
  Charge       = 0
  Multiplicity = 1
  Basis Set: 6-31G*
  Basis Set:
  @DF-RHF Final Energy:  -207.96024973064664
    Total Energy =                       -207.9602497306466944
    Molecular point group: c1
  Basis Set: 6-31G*
  Basis Set:
  Basis Set: 6-31G*
  Basis Set:
  @DF-RHF Final Energy:  -207.96084637419017
    Total Energy =                       -207.9608463741901971
  Basis Set: 6-31G*
  Basis Set:
  Basis Set: 6-31G*
  Basis Set:
  @DF-RHF Final Energy:  -207.96096308205182
    Total Energy =                       -207.9609630820518476
  Basis Set: 6-31G*
  Basis Set:
  Basis Set: 6-31G*
  Basis Set:
  @DF-RHF Final Energy:  -207.96086493264175
    Total Energy =                       -207.9608649326417549
  Basis Set: 6-31G*
  Basis Set:
  Basis Set: 6-31G*
  Basis Set:
  @DF-RHF Final Energy:  -207.96099859536650
    Total Energy =                       -207.9609985953663625
  Basis Set: 6-31G*
  Basis Set:
  Basis Set: 6-31G*
  Basis Set:
  @DF-RHF Final Energy:  -207.96102483323489
    Total Energy =                       -207.9610248332348021
  Basis Set: 6-31G*
  Basis Set:
  Basis Set: 6-31G*
  Basis Set:
  @DF-RHF Final Energy:  -207.96104375521364
    Total Energy =                       -207.9610437552136375
  Basis Set: 6-31G*
  Basis Set:
  Charge       = 0
  Multiplicity = 1
  Basis Set: 6-31G*
  Basis Set:

    Orbital Energies (a.u.)
    -----------------------

    Doubly Occupied:

       1A    -20.526068     2A    -15.590777     3A    -11.343789
       4A    -11.260597     5A     -1.389397     6A     -1.236377
       7A     -0.968194     8A     -0.807392     9A     -0.746395
      10A     -0.641574    11A     -0.626596    12A     -0.592955
      13A     -0.555587    14A     -0.535498    15A     -0.424127
      16A     -0.391044

  @DF-RHF Final Energy:  -207.96104408122659

   => Energetics <=

    Nuclear Repulsion Energy =            122.5564839843214031
    One-Electron Energy =                -525.7623266414543650
    Two-Electron Energy =                 195.2447985759063727
    DFT Exchange-Correlation Energy =       0.0000000000000000
    Empirical Dispersion Energy =           0.0000000000000000
    PCM Polarization Energy =               0.0000000000000000
    EFP Energy =                            0.0000000000000000
    Total Energy =                       -207.9610440812265892
    Molecular point group: c1
  Basis Set: 6-31G*
  Basis Set:

  -Total Gradient:
     Atom            X                  Y                   Z
    ------   -----------------  -----------------  -----------------
       1       -0.000008436727     0.000013504435     0.000016198065
       2       -0.000028387567     0.000028751453    -0.000060544691
       3        0.000149524581     0.000115241917    -0.000003234437
       4        0.000016412533    -0.000016273749     0.000017646085
       5       -0.000110416672    -0.000117394566    -0.000048992323
       6       -0.000109960486    -0.000072448013     0.000029661683
       7        0.000080410566     0.000063080090     0.000050475001
       8        0.000001351184    -0.000003222978    -0.000003266905
       9        0.000009502587    -0.000011238590     0.000002057518

  **** Optimization is complete! (in 8 steps) ****
    Final optimized geometry and variables:
    Molecular point group: c1

    Geometry (in Angstrom), charge = 0, multiplicity = 1:

    H           -1.282634867258     1.437156130468     0.085644575072
    C           -0.543501151952     0.659531231182     0.284404750055
    N           -0.130594324598     0.039742052623    -0.838003894023
    O           -0.154965729599     0.421394736969     1.389548006232
    C            0.797347379145    -1.070380249002    -0.819281928121
    H           -0.594841490396     0.261554656561    -1.688519318425
    H            1.376800394236    -1.071321635406    -1.733681949502
    H            0.287217837208    -2.023627189739    -0.724374599445
    H            1.464896460645    -0.951883365695     0.020006619087

  Mulliken Charges: (a.u.)
   Center  Symbol    Alpha    Beta     Spin     Total
       1     H     0.42718  0.42718  0.00000  0.14564
       2     C     2.74615  2.74615  0.00000  0.50770
       3     N     3.87420  3.87420  0.00000 -0.74840
       4     O     4.28348  4.28348  0.00000 -0.56695
       5     C     3.14138  3.14138  0.00000 -0.28276
       6     H     0.30937  0.30937  0.00000  0.38125
       7     H     0.41446  0.41446  0.00000  0.17108
       8     H     0.41276  0.41276  0.00000  0.17447
       9     H     0.39102  0.39102  0.00000  0.21796

   Total alpha = 16.00000, Total beta = 16.00000, Total charge = -0.00000
