  ==> Input File <==

--------------------------------------------------------------------------
set {
	reference rhf
	basis 6-31G*
}

set_num_threads( 1 )
memory 2 gb

molecule MOL {
0 1

H	 2.176868	 -0.646004	 -0.217325
O	 1.337496	 -0.537251	 0.205931
C	 0.702312	 0.627605	 -0.264544
C	 -0.714990	 0.596302	 0.266387
H	 0.682322	 0.642550	 -1.350929
H	 1.215941	 1.520383	 0.085680
O	 -1.405996	 -0.526611	 -0.195820
H	 -1.257453	 1.468809	 -0.075599
H	 -0.688972	 0.618407	 1.353696
H	 -2.282582	 -0.495210	 0.165601

	symmetry c1
}
set optking {
	frozen_dihedral = ("
		5 3 4 7
	")
}

ee = energy('scf')
oeprop('DIPOLE', 'QUADRUPOLE', 'MULLIKEN_CHARGES')
f=open( 'psi4out.xyz', 'w' )
f.write( "10  " )
f.write( str(ee) + "\n" )
f.write( MOL.save_string_xyz() )
f.close()
--------------------------------------------------------------------------

    Molecular point group: c1

    Geometry (in Angstrom), charge = 0, multiplicity = 1:

       Center              X                  Y                   Z               Mass
    ------------   -----------------  -----------------  -----------------  -----------------
           H          2.199481484274    -0.658960260245    -0.219656848576     1.007825032070
           O          1.360109484274    -0.550207260245     0.203599151424    15.994914619560
           C          0.724925484274     0.614648739755    -0.266875848576    12.000000000000
           C         -0.692376515726     0.583345739755     0.264055151424    12.000000000000
           H          0.704935484274     0.629593739755    -1.353260848576     1.007825032070
           H          1.238554484274     1.507426739755     0.083348151424     1.007825032070
           O         -1.383382515726    -0.539567260245    -0.198151848576    15.994914619560
           H         -1.234839515726     1.455852739755    -0.077930848576     1.007825032070
           H         -0.666358515726     0.605450739755     1.351364151424     1.007825032070
           H         -2.259968515726    -0.508166260245     0.163269151424     1.007825032070

  Charge       = 0
  Multiplicity = 1
  Basis Set: 6-31G*
  Basis Set:

    Orbital Energies (a.u.)
    -----------------------

    Doubly Occupied:

       1A    -20.551103     2A    -20.550397     3A    -11.272736
       4A    -11.268991     5A     -1.369920     6A     -1.347627
       7A     -1.000257     8A     -0.830858     9A     -0.716266
      10A     -0.699410    11A     -0.618780    12A     -0.598296
      13A     -0.585667    14A     -0.521254    15A     -0.475119
      16A     -0.440840    17A     -0.435385

  @DF-RHF Final Energy:  -228.91725397608715

   => Energetics <=

    Nuclear Repulsion Energy =            133.6749952219828685
    One-Electron Energy =                -578.6187008316333049
    Two-Electron Energy =                 216.0264516335631697
    DFT Exchange-Correlation Energy =       0.0000000000000000
    Empirical Dispersion Energy =           0.0000000000000000
    PCM Polarization Energy =               0.0000000000000000
    EFP Energy =                            0.0000000000000000
    Total Energy =                       -228.9172539760872951

  Mulliken Charges: (a.u.)
   Center  Symbol    Alpha    Beta     Spin     Total
       1     H     0.28038  0.28038  0.00000  0.43925
       2     O     4.36540  4.36540  0.00000 -0.73080
       3     C     3.00229  3.00229  0.00000 -0.00458
       4     C     2.99882  2.99882  0.00000  0.00236
       5     H     0.42377  0.42377  0.00000  0.15245
       6     H     0.42893  0.42893  0.00000  0.14215
       7     O     4.36267  4.36267  0.00000 -0.72535
       8     H     0.43266  0.43266  0.00000  0.13467
       9     H     0.42443  0.42443  0.00000  0.15114
      10     H     0.28064  0.28064  0.00000  0.43871

   Total alpha = 17.00000, Total beta = 17.00000, Total charge =  0.00000
