  ==> Input File <==

--------------------------------------------------------------------------
set {
	reference rhf
	basis 6-31G*
}

set_num_threads( 1 )
memory 2 gb

molecule MOL {
0 1

O	 1.772342	 3.069126	 -1.825434
C	 1.164106	 2.802083	 -2.816138
C	 -0.113845	 1.983033	 -2.785512
C	 1.632962	 3.267639	 -4.179438
C	 -0.535959	 1.541402	 -1.387293
H	 -0.899083	 2.573058	 -3.256319
H	 0.027499	 1.120459	 -3.435428
C	 -1.826162	 0.719786	 -1.396499
H	 -0.661066	 2.418251	 -0.759906
H	 0.266418	 0.963821	 -0.939254
C	 -2.259874	 0.272531	 0.000494
H	 -2.625707	 1.303653	 -1.850233
H	 -1.694271	 -0.157092	 -2.028762
C	 -3.549786	 -0.549746	 -0.000374
H	 -2.392704	 1.148344	 0.633208
H	 -1.461710	 -0.311958	 0.454700
C	 -4.809590	 0.315458	 -0.000369
H	 -3.560515	 -1.202009	 -0.871156
H	 -3.561123	 -1.202955	 0.869711
H	 -4.844746	 0.956611	 -0.876632
H	 -5.706986	 -0.295590	 -0.001609
H	 -4.845960	 0.954827	 0.877144
H	 0.872127	 3.881503	 -4.652640
H	 2.544943	 3.838992	 -4.076087
H	 1.810444	 2.416189	 -4.829951

	symmetry c1
}
set optking {
	frozen_dihedral = ("
		9 5 8 12,
		15 11 8 12,
		1 2 3 6,
		9 5 3 6
	")
}

ee = energy('scf')
oeprop('DIPOLE', 'QUADRUPOLE', 'MULLIKEN_CHARGES')
f=open( 'psi4out.xyz', 'w' )
f.write( "25  " )
f.write( str(ee) + "\n" )
f.write( MOL.save_string_xyz() )
f.close()
--------------------------------------------------------------------------

    Molecular point group: c1

    Geometry (in Angstrom), charge = 0, multiplicity = 1:

       Center              X                  Y                   Z               Mass
    ------------   -----------------  -----------------  -----------------  -----------------
           O          2.725907637270     1.571572142184    -0.226028323503    15.994914619560
           C          2.117671637270     1.304529142184    -1.216732323503    12.000000000000
           C          0.839720637270     0.485479142184    -1.186106323503    12.000000000000
           C          2.586527637270     1.770085142184    -2.580032323503    12.000000000000
           C          0.417606637270     0.043848142184     0.212112676497    12.000000000000
           H          0.054482637270     1.075504142184    -1.656913323503     1.007825032070
           H          0.981064637270    -0.377094857816    -1.836022323503     1.007825032070
           C         -0.872596362730    -0.777767857816     0.202906676497    12.000000000000
           H          0.292499637270     0.920697142184     0.839499676497     1.007825032070
           H          1.219983637270    -0.533732857816     0.660151676497     1.007825032070
           C         -1.306308362730    -1.225022857816     1.599899676497    12.000000000000
           H         -1.672141362730    -0.193900857816    -0.250827323503     1.007825032070
           H         -0.740705362730    -1.654645857816    -0.429356323503     1.007825032070
           C         -2.596220362730    -2.047299857816     1.599031676497    12.000000000000
           H         -1.439138362730    -0.349209857816     2.232613676497     1.007825032070
           H         -0.508144362730    -1.809511857816     2.054105676497     1.007825032070
           C         -3.856024362730    -1.182095857816     1.599036676497    12.000000000000
           H         -2.606949362730    -2.699562857816     0.728249676497     1.007825032070
           H         -2.607557362730    -2.700508857816     2.469116676497     1.007825032070
           H         -3.891180362730    -0.540942857816     0.722773676497     1.007825032070
           H         -4.753420362730    -1.793143857816     1.597796676497     1.007825032070
           H         -3.892394362730    -0.542726857816     2.476549676497     1.007825032070
           H          1.825692637270     2.383949142184    -3.053234323503     1.007825032070
           H          3.498508637270     2.341438142184    -2.476681323503     1.007825032070
           H          2.764009637270     0.918635142184    -3.230545323503     1.007825032070

  Charge       = 0
  Multiplicity = 1
  Basis Set: 6-31G*
  Basis Set:

    Orbital Energies (a.u.)
    -----------------------

    Doubly Occupied:

       1A    -20.550454     2A    -11.326286     3A    -11.231879
       4A    -11.228337     5A    -11.217031     6A    -11.216426
       7A    -11.214779     8A    -11.212881     9A    -11.208789
      10A     -1.395756    11A     -1.094218    12A     -1.056531
      13A     -1.013748    14A     -0.967440    15A     -0.893709
      16A     -0.820559    17A     -0.783748    18A     -0.729702
      19A     -0.657966    20A     -0.653289    21A     -0.625083
      22A     -0.619093    23A     -0.611135    24A     -0.589291
      25A     -0.568390    26A     -0.556739    27A     -0.537591
      28A     -0.523103    29A     -0.516112    30A     -0.491971
      31A     -0.487011    32A     -0.477650    33A     -0.464526
      34A     -0.454447    35A     -0.450143    36A     -0.399411

  @DF-RHF Final Energy:  -387.13376826310554

   => Energetics <=

    Nuclear Repulsion Energy =            442.1218801174908890
    One-Electron Energy =               -1400.8206302850346674
    Two-Electron Energy =                 571.5649819044399464
    DFT Exchange-Correlation Energy =       0.0000000000000000
    Empirical Dispersion Energy =           0.0000000000000000
    PCM Polarization Energy =               0.0000000000000000
    EFP Energy =                            0.0000000000000000
    Total Energy =                       -387.1337682631037751

  Mulliken Charges: (a.u.)
   Center  Symbol    Alpha    Beta     Spin     Total
       1     O     4.26115  4.26115  0.00000 -0.52229
       2     C     2.73572  2.73572  0.00000  0.52856
       3     C     3.21082  3.21082  0.00000 -0.42165
       4     C     3.28663  3.28663  0.00000 -0.57327
       5     C     3.14780  3.14780  0.00000 -0.29560
       6     H     0.41006  0.41006  0.00000  0.17988
       7     H     0.41005  0.41005  0.00000  0.17990
       8     C     3.15524  3.15524  0.00000 -0.31047
       9     H     0.41212  0.41212  0.00000  0.17577
      10     H     0.41214  0.41214  0.00000  0.17572
      11     C     3.15369  3.15369  0.00000 -0.30738
      12     H     0.42415  0.42415  0.00000  0.15170
      13     H     0.42457  0.42457  0.00000  0.15087
      14     C     3.15410  3.15410  0.00000 -0.30820
      15     H     0.42173  0.42173  0.00000  0.15654
      16     H     0.42022  0.42022  0.00000  0.15957
      17     C     3.24023  3.24023  0.00000 -0.48045
      18     H     0.42307  0.42307  0.00000  0.15385
      19     H     0.41997  0.41997  0.00000  0.16005
      20     H     0.42215  0.42215  0.00000  0.15570
      21     H     0.41952  0.41952  0.00000  0.16097
      22     H     0.42098  0.42098  0.00000  0.15804
      23     H     0.40874  0.40874  0.00000  0.18252
      24     H     0.39646  0.39646  0.00000  0.20709
      25     H     0.40870  0.40870  0.00000  0.18259

   Total alpha = 36.00000, Total beta = 36.00000, Total charge = -0.00000
