                              Psi4 1.0.54 Driver

  ==> Input File <==

--------------------------------------------------------------------------
set {
	reference rhf
	basis cc-pvtz
}

set_num_threads( 4 )
memory 2 gb

molecule MOL {
0 1

H	 2.138171	 1.131839	 -1.055928
O	 1.269625	 0.761738	 -1.104807
C	 1.050374	 0.054877	 0.000135
C	 -0.318151	 -0.570512	 0.000144
O	 1.860974	 -0.044039	 0.855186
C	 -1.454884	 0.441630	 -0.000560
H	 -0.371613	 -1.223646	 -0.864985
H	 -0.371920	 -1.222758	 0.865929
C	 -2.822577	 -0.232186	 0.000063
H	 -1.359760	 1.084704	 -0.867077
H	 -1.359641	 1.085996	 0.864983
H	 -2.954352	 -0.858985	 -0.875745
H	 -3.615886	 0.505352	 0.000019
H	 -2.953878	 -0.858359	 0.876394

	symmetry c1
}
set optking {
	frozen_dihedral = ("
		2 3 4 7
	")
}

ee,wfn = optimize('scf', return_wfn=True)
oeprop( wfn, 'DIPOLE', 'QUADRUPOLE', 'MULLIKEN_CHARGES')
f=open( 'psi4out.xyz', 'w' )
f.write( "14  " )
f.write( str(ee) + "\n" )
f.write( MOL.save_string_xyz() )
f.close()
--------------------------------------------------------------------------

    Molecular point group: c1
  Charge       = 0
  Multiplicity = 1
  Basis Set: CC-PVTZ
  Basis Set:
  @DF-RHF Final Energy:  -305.99934455139470
    Total Energy =                       -305.9993445513948132
    Molecular point group: c1
  Basis Set: CC-PVTZ
  Basis Set:
  Basis Set: CC-PVTZ
  Basis Set:
  @DF-RHF Final Energy:  -305.99965185434985
    Total Energy =                       -305.9996518543499633
  Basis Set: CC-PVTZ
  Basis Set:
  Basis Set: CC-PVTZ
  Basis Set:
  @DF-RHF Final Energy:  -305.99966246076985
    Total Energy =                       -305.9996624607697981
  Basis Set: CC-PVTZ
  Basis Set:
  Basis Set: CC-PVTZ
  Basis Set:
  @DF-RHF Final Energy:  -305.99965938907712
    Total Energy =                       -305.9996593890770100
  Basis Set: CC-PVTZ
  Basis Set:
  Basis Set: CC-PVTZ
  Basis Set:
  @DF-RHF Final Energy:  -305.99966745307142
    Total Energy =                       -305.9996674530714245
  Basis Set: CC-PVTZ
  Basis Set:
  Charge       = 0
  Multiplicity = 1
  Basis Set: CC-PVTZ
  Basis Set:

    Orbital Energies (a.u.)
    -----------------------

    Doubly Occupied:

       1A    -20.604842     2A    -20.539627     3A    -11.372878
       4A    -11.238607     5A    -11.232922     6A    -11.219159
       7A     -1.477588     8A     -1.368308     9A     -1.087671
      10A     -0.980769    11A     -0.850714    12A     -0.815264
      13A     -0.705434    14A     -0.688048    15A     -0.650588
      16A     -0.632483    17A     -0.595900    18A     -0.566885
      19A     -0.553660    20A     -0.521522    21A     -0.501131
      22A     -0.488846    23A     -0.477932    24A     -0.440807

  @DF-RHF Final Energy:  -305.99966749676378

   => Energetics <=

    Nuclear Repulsion Energy =            240.9176510852319382
    One-Electron Energy =                -894.6114699584358050
    Two-Electron Energy =                 347.6941513764401748
    DFT Exchange-Correlation Energy =       0.0000000000000000
    Empirical Dispersion Energy =           0.0000000000000000
    PCM Polarization Energy =               0.0000000000000000
    EFP Energy =                            0.0000000000000000
    Total Energy =                       -305.9996674967637205
    Molecular point group: c1
  Basis Set: CC-PVTZ
  Basis Set:

  -Total Gradient:
     Atom            X                  Y                   Z
    ------   -----------------  -----------------  -----------------
       1        0.000005224017     0.000009500199    -0.000002947817
       2       -0.000116237406     0.000272625879     0.000146407322
       3        0.000196735343    -0.000439821549    -0.000129299625
       4       -0.000229043330     0.000463211631    -0.000201094725
       5       -0.000006904725     0.000004056759    -0.000027245327
       6        0.000008566449    -0.000005356464    -0.000000261392
       7        0.000146742131    -0.000309461921     0.000214629199
       8        0.000000211651    -0.000006622384     0.000002110873
       9        0.000001196538     0.000004431115    -0.000000323237
      10       -0.000008032795     0.000006263097    -0.000000563447
      11       -0.000007995330    -0.000005493207    -0.000001811562
      12        0.000007000949     0.000000412201     0.000002560466
      13       -0.000000560706     0.000003539436    -0.000002682772
      14        0.000003097212     0.000002715209     0.000000522045

  **** Optimization is complete! (in 6 steps) ****
    Final optimized geometry and variables:
    Molecular point group: c1

    Geometry (in Angstrom), charge = 0, multiplicity = 1:

    H            2.172689209092     1.112105136050    -0.936576551353
    O            1.309523309811     0.733875251346    -1.011620706717
    C            1.087405009479    -0.021563188822     0.060558081564
    C           -0.270026283892    -0.669433977646     0.039561720014
    O            1.892890174571    -0.146687658138     0.917523827395
    C           -1.419774861974     0.342153895159     0.032235953170
    H           -0.324542340816    -1.293802008789    -0.846189275681
    H           -0.327911932785    -1.310345339422     0.907285017770
    C           -2.781227933431    -0.343157792585     0.048704836495
    H           -1.337063216715     0.975034191302    -0.842313604770
    H           -1.329512173418     0.989952171162     0.898434431467
    H           -2.910442332853    -0.977034865813    -0.821990541085
    H           -3.580982844051     0.387524393420     0.048108818184
    H           -2.898628170452    -0.962988776945     0.930770023440

  Mulliken Charges: (a.u.)
   Center  Symbol    Alpha    Beta     Spin     Total
       1     H     0.38054  0.38054  0.00000  0.23893
       2     O     4.16361  4.16361  0.00000 -0.32722
       3     C     2.80781  2.80781  0.00000  0.38439
       4     C     3.08688  3.08688  0.00000 -0.17376
       5     O     4.19373  4.19373  0.00000 -0.38745
       6     C     3.09303  3.09303  0.00000 -0.18607
       7     H     0.44538  0.44538  0.00000  0.10924
       8     H     0.43638  0.43638  0.00000  0.12724
       9     C     3.14982  3.14982  0.00000 -0.29965
      10     H     0.44249  0.44249  0.00000  0.11501
      11     H     0.44789  0.44789  0.00000  0.10421
      12     H     0.45400  0.45400  0.00000  0.09200
      13     H     0.44566  0.44566  0.00000  0.10868
      14     H     0.45277  0.45277  0.00000  0.09445

   Total alpha = 24.00000, Total beta = 24.00000, Total charge =  0.00000

*** Psi4 exiting successfully. Buy a developer a beer!
