  ==> Input File <==

--------------------------------------------------------------------------
set {
	reference rhf
	basis cc-pvtz
}

set_num_threads( 4 )
memory 2 gb

molecule MOL {
0 1

H	 -3.144994	 -1.202467	 -0.018751
O	 -2.321472	 -0.864941	 -0.318626
C	 -2.021813	 0.336996	 0.342658
C	 -0.669613	 0.837286	 -0.127252
H	 -2.780861	 1.084746	 0.127159
H	 -2.006390	 0.184138	 1.420053
C	 0.490865	 -0.082543	 0.241244
H	 -0.708709	 0.967192	 -1.204587
H	 -0.507562	 1.822272	 0.303070
C	 0.924407	 0.057133	 1.697658
H	 1.332122	 0.126998	 -0.409475
H	 0.203140	 -1.114589	 0.050938
C	 2.079076	 -0.867386	 2.068855
H	 1.213678	 1.087157	 1.887596
H	 0.077757	 -0.145806	 2.348572
H	 2.952865	 -0.664773	 1.458645
H	 2.364569	 -0.743214	 3.107305
H	 1.809812	 -1.908286	 1.922329

	symmetry c1
}
set optking {
	frozen_dihedral = ("
		10 7 4 8
	")
}

ee = optimize('scf')
oeprop('DIPOLE', 'QUADRUPOLE', 'MULLIKEN_CHARGES')
f=open( 'psi4out.xyz', 'w' )
f.write( "18  " )
f.write( str(ee) + "\n" )
f.write( MOL.save_string_xyz() )
f.close()
--------------------------------------------------------------------------

    Molecular point group: c1
  Charge       = 0
  Multiplicity = 1
  Basis Set: CC-PVTZ
  Basis Set:
  @DF-RHF Final Energy:  -271.28469820902410
    Total Energy =                       -271.2846982090237589
    Molecular point group: c1
  Basis Set: CC-PVTZ
  Basis Set:
  Basis Set: CC-PVTZ
  Basis Set:
  @DF-RHF Final Energy:  -271.28494991406296
    Total Energy =                       -271.2849499140631906
  Basis Set: CC-PVTZ
  Basis Set:
  Basis Set: CC-PVTZ
  Basis Set:
  @DF-RHF Final Energy:  -271.28497720503839
    Total Energy =                       -271.2849772050384445
  Basis Set: CC-PVTZ
  Basis Set:
  Charge       = 0
  Multiplicity = 1
  Basis Set: CC-PVTZ
  Basis Set:

    Orbital Energies (a.u.)
    -----------------------

    Doubly Occupied:

       1A    -20.546347     2A    -11.265682     3A    -11.210629
       4A    -11.210030     5A    -11.205002     6A    -11.203534
       7A     -1.364161     8A     -1.076273     9A     -1.008802
      10A     -0.914737    11A     -0.829291    12A     -0.775404
      13A     -0.706192    14A     -0.650513    15A     -0.622304
      16A     -0.585224    17A     -0.566800    18A     -0.557843
      19A     -0.533711    20A     -0.504241    21A     -0.487186
      22A     -0.469111    23A     -0.456612    24A     -0.449699
      25A     -0.430713

  @DF-RHF Final Energy:  -271.28497806601820

   => Energetics <=

    Nuclear Repulsion Energy =            252.2726728194882355
    One-Electron Energy =                -867.8552225745460191
    Two-Electron Energy =                 344.2975716890395574
    DFT Exchange-Correlation Energy =       0.0000000000000000
    Empirical Dispersion Energy =           0.0000000000000000
    PCM Polarization Energy =               0.0000000000000000
    EFP Energy =                            0.0000000000000000
    Total Energy =                       -271.2849780660182546
    Molecular point group: c1
  Basis Set: CC-PVTZ
  Basis Set:

  -Total Gradient:
     Atom            X                  Y                   Z
    ------   -----------------  -----------------  -----------------
       1       -0.000013793642    -0.000022435931    -0.000010357714
       2       -0.000024087102     0.000029824735     0.000017810468
       3        0.000014992964    -0.000023000003     0.000011517379
       4       -0.000855123817    -0.001215484363    -0.000282990034
       5       -0.000014634339    -0.000007984726    -0.000008128902
       6       -0.000011911391    -0.000008776042    -0.000001875213
       7       -0.000867972536    -0.000897974524     0.000491445569
       8        0.000961061910     0.001278290712     0.000121437638
       9        0.000026989374    -0.000020416962    -0.000003763507
      10        0.000787794400     0.000859892933    -0.000332773693
      11        0.000020100828     0.000014710153    -0.000003859287
      12       -0.000006504513     0.000026308798     0.000001776170
      13       -0.000026876278    -0.000011920130     0.000003485597
      14       -0.000006080208     0.000005388731    -0.000014996150
      15        0.000002767479    -0.000001191938     0.000000492734
      16       -0.000006794098     0.000002305669     0.000001696468
      17        0.000005262243    -0.000005459407     0.000012149029
      18        0.000014808724    -0.000002077703    -0.000003066551

  **** Optimization is complete! (in 4 steps) ****
    Final optimized geometry and variables:
    Molecular point group: c1

    Geometry (in Angstrom), charge = 0, multiplicity = 1:

    H           -2.863406008456    -1.066692619603    -0.668849157350
    O           -2.032289661096    -0.740272584307    -0.959754826654
    C           -1.737266953765     0.472934227999    -0.316716874462
    C           -0.372281590945     0.953730004787    -0.774190824027
    H           -2.483109606395     1.223097782323    -0.567024300161
    H           -1.754796851125     0.343300704082     0.762329619431
    C            0.794789664466     0.042059562118    -0.386048851805
    H           -0.399064070434     1.069927985922    -1.852219732127
    H           -0.210408180581     1.947521812558    -0.364107621134
    C            1.239482685581     0.175351252668     1.069320173301
    H            1.641986324125     0.278368686128    -1.023700202505
    H            0.530177378318    -0.987278033969    -0.599379554771
    C            2.405451395448    -0.744042654705     1.418047439901
    H            1.524159089418     1.206390624452     1.262206841822
    H            0.408500203881    -0.040437938102     1.734386400336
    H            3.268917491112    -0.533160040600     0.795780538032
    H            2.706345979865    -0.623740623619     2.452646191739
    H            2.139613049379    -1.785166735692     1.269145126460

  Mulliken Charges: (a.u.)
   Center  Symbol    Alpha    Beta     Spin     Total
       1     H     0.39570  0.39570  0.00000  0.20860
       2     O     4.19856  4.19856  0.00000 -0.39712
       3     C     2.97209  2.97209  0.00000  0.05582
       4     C     3.09825  3.09825  0.00000 -0.19650
       5     H     0.46431  0.46431  0.00000  0.07139
       6     H     0.47346  0.47346  0.00000  0.05308
       7     C     3.09465  3.09465  0.00000 -0.18930
       8     H     0.44629  0.44629  0.00000  0.10743
       9     H     0.45545  0.45545  0.00000  0.08911
      10     C     3.08410  3.08410  0.00000 -0.16820
      11     H     0.45073  0.45073  0.00000  0.09855
      12     H     0.44526  0.44526  0.00000  0.10948
      13     C     3.14974  3.14974  0.00000 -0.29948
      14     H     0.45625  0.45625  0.00000  0.08750
      15     H     0.45661  0.45661  0.00000  0.08678
      16     H     0.45498  0.45498  0.00000  0.09005
      17     H     0.44955  0.44955  0.00000  0.10090
      18     H     0.45403  0.45403  0.00000  0.09194

   Total alpha = 25.00000, Total beta = 25.00000, Total charge = -0.00000
