  ==> Input File <==

--------------------------------------------------------------------------
set {
	reference rhf
	basis 6-31G*
}

set_num_threads( 4 )
memory 2 gb

molecule MOL {
0 1

H	 2.633613	 -0.351512	 0.597282
O	 2.064459	 -0.086912	 -0.111827
C	 0.745630	 0.005118	 0.354752
H	 0.739005	 0.037656	 1.444976
C	 -0.064159	 -1.194875	 -0.122754
C	 -0.046302	 1.193543	 -0.190431
H	 0.197384	 -1.376065	 -1.160690
H	 0.162855	 -2.097978	 0.431858
C	 -1.535782	 -0.752177	 0.006642
H	 0.154512	 1.271315	 -1.255561
H	 0.226209	 2.140461	 0.267302
C	 -1.509193	 0.801505	 0.065617
H	 -2.127797	 -1.112194	 -0.826847
H	 -1.986849	 -1.158408	 0.905561
H	 -2.183670	 1.254107	 -0.651985
H	 -1.821727	 1.144320	 1.047089

	symmetry c1
}
set optking {
	frozen_dihedral = ("
		1 2 3 6
	")
}

ee = optimize('scf')
oeprop('DIPOLE', 'QUADRUPOLE', 'MULLIKEN_CHARGES')
f=open( 'psi4out.xyz', 'w' )
f.write( "16  " )
f.write( str(ee) + "\n" )
f.write( MOL.save_string_xyz() )
f.close()
--------------------------------------------------------------------------

    Molecular point group: c1
  Charge       = 0
  Multiplicity = 1
  Basis Set: 6-31G*
  Basis Set:
  @DF-RHF Final Energy:  -270.01205143116647
    Total Energy =                       -270.0120514311666966
    Molecular point group: c1
  Basis Set: 6-31G*
  Basis Set:
  Basis Set: 6-31G*
  Basis Set:
  @DF-RHF Final Energy:  -270.01300953578823
    Total Energy =                       -270.0130095357882283
  Basis Set: 6-31G*
  Basis Set:
  Basis Set: 6-31G*
  Basis Set:
  @DF-RHF Final Energy:  -270.01308460322366
    Total Energy =                       -270.0130846032238878
  Basis Set: 6-31G*
  Basis Set:
  Basis Set: 6-31G*
  Basis Set:
  @DF-RHF Final Energy:  -270.01308852822842
    Total Energy =                       -270.0130885282283089
  Basis Set: 6-31G*
  Basis Set:
  Basis Set: 6-31G*
  Basis Set:
  @DF-RHF Final Energy:  -270.01308992860970
    Total Energy =                       -270.0130899286097019
  Basis Set: 6-31G*
  Basis Set:
  Basis Set: 6-31G*
  Basis Set:
  @DF-RHF Final Energy:  -270.01309141861191
    Total Energy =                       -270.0130914186117934
  Basis Set: 6-31G*
  Basis Set:
  Charge       = 0
  Multiplicity = 1
  Basis Set: 6-31G*
  Basis Set:

    Orbital Energies (a.u.)
    -----------------------

    Doubly Occupied:

       1A    -20.551255     2A    -11.269382     3A    -11.214457
       4A    -11.213844     5A    -11.207442     6A    -11.207127
       7A     -1.359855     8A     -1.111494     9A     -0.963197
      10A     -0.947575    11A     -0.779537    12A     -0.778471
      13A     -0.712392    14A     -0.651716    15A     -0.620256
      16A     -0.578089    17A     -0.550974    18A     -0.525920
      19A     -0.518373    20A     -0.479216    21A     -0.468482
      22A     -0.454839    23A     -0.452326    24A     -0.410252

  @DF-RHF Final Energy:  -270.01309188470304

   => Energetics <=

    Nuclear Repulsion Energy =            254.8614401602179669
    One-Electron Energy =                -871.6961221463084257
    Two-Electron Energy =                 346.8215901013876987
    DFT Exchange-Correlation Energy =       0.0000000000000000
    Empirical Dispersion Energy =           0.0000000000000000
    PCM Polarization Energy =               0.0000000000000000
    EFP Energy =                            0.0000000000000000
    Total Energy =                       -270.0130918847027601
    Molecular point group: c1
  Basis Set: 6-31G*
  Basis Set:

  -Total Gradient:
     Atom            X                  Y                   Z
    ------   -----------------  -----------------  -----------------
       1        0.000142593260     0.001394291370     0.000409617669
       2       -0.000078310478    -0.001516219084    -0.000226100753
       3       -0.000339778814    -0.000389353750    -0.000926075127
       4        0.000003102591    -0.000009887366     0.000002807453
       5        0.000067033606    -0.000007030858     0.000004775561
       6        0.000210827672     0.000507778538     0.000750619224
       7       -0.000006577969    -0.000011366620     0.000015706886
       8       -0.000008380589     0.000006116502     0.000019612278
       9       -0.000042774458    -0.000007167416    -0.000006280591
      10       -0.000007440200    -0.000009480437    -0.000010786702
      11       -0.000006289478     0.000011874321    -0.000016661013
      12        0.000050167393     0.000022548231    -0.000005387256
      13        0.000015277781     0.000017082677    -0.000013495769
      14       -0.000009038726    -0.000016172889    -0.000010209230
      15       -0.000010714845     0.000016427665     0.000012181542
      16        0.000020303252    -0.000009440883    -0.000000324171

  **** Optimization is complete! (in 7 steps) ****
    Final optimized geometry and variables:
    Molecular point group: c1

    Geometry (in Angstrom), charge = 0, multiplicity = 1:

    H            2.659241661003    -0.279862386189     0.565144302188
    O            2.067260241306    -0.014446815707    -0.121785622072
    C            0.744256297110    -0.008523783207     0.352336629242
    H            0.740552971402     0.024042897582     1.441383826990
    C           -0.079671643990    -1.204124715856    -0.126949670243
    C           -0.034565937047     1.188042029039    -0.182159024407
    H            0.178752205077    -1.383618930248    -1.166000572607
    H            0.135038623538    -2.115153848035     0.422524209877
    C           -1.546114945295    -0.747669702916     0.005994227391
    H            0.181210343403     1.279458427963    -1.243064054579
    H            0.250867475005     2.121026895906     0.291068422235
    C           -1.504058965799     0.807190963491     0.050748975661
    H           -2.147355502845    -1.110546070192    -0.819676171122
    H           -1.995275284230    -1.140764141552     0.911976982619
    H           -2.162264070076     1.257159512221    -0.683480702020
    H           -1.833315330518     1.161814661990     1.022610747120

  Mulliken Charges: (a.u.)
   Center  Symbol    Alpha    Beta     Spin     Total
       1     H     0.28006  0.28006  0.00000  0.43988
       2     O     4.37797  4.37797  0.00000 -0.75594
       3     C     2.91057  2.91057  0.00000  0.17885
       4     H     0.43130  0.43130  0.00000  0.13740
       5     C     3.16989  3.16989  0.00000 -0.33978
       6     C     3.16481  3.16481  0.00000 -0.32962
       7     H     0.41179  0.41179  0.00000  0.17642
       8     H     0.41947  0.41947  0.00000  0.16106
       9     C     3.16897  3.16897  0.00000 -0.33793
      10     H     0.41290  0.41290  0.00000  0.17421
      11     H     0.41596  0.41596  0.00000  0.16808
      12     C     3.17030  3.17030  0.00000 -0.34060
      13     H     0.41459  0.41459  0.00000  0.17082
      14     H     0.41821  0.41821  0.00000  0.16358
      15     H     0.41431  0.41431  0.00000  0.17137
      16     H     0.41890  0.41890  0.00000  0.16220

   Total alpha = 24.00000, Total beta = 24.00000, Total charge =  0.00000
