                              Psi4 1.0.54 Driver

  ==> Input File <==

--------------------------------------------------------------------------
set {
	reference rhf
	basis cc-pvtz
}

set_num_threads( 4 )
memory 2 gb

molecule MOL {
0 1

O	 -2.081319	 -0.951530	 -0.502732
N	 -1.613558	 0.006676	 0.014756
C	 -0.329345	 -0.171618	 0.743966
O	 -2.068523	 1.100482	 -0.024385
C	 -0.568706	 -0.987919	 2.007867
H	 0.026403	 0.819984	 0.968886
H	 0.334434	 -0.675066	 0.061199
C	 0.726342	 -1.197157	 2.788403
H	 -1.295383	 -0.474084	 2.626310
H	 -0.994375	 -1.945920	 1.732592
C	 0.515760	 -2.018276	 4.055644
H	 1.150515	 -0.232041	 3.049301
H	 1.454474	 -1.692994	 2.153283
H	 -0.182907	 -1.530149	 4.725938
H	 0.121158	 -3.001154	 3.823357
H	 1.448694	 -2.152826	 4.589210

	symmetry c1
}
set optking {
	frozen_dihedral = ("
		5 3 2 1
	")
}

ee,wfn = optimize('scf', return_wfn=True)
oeprop( wfn, 'DIPOLE', 'QUADRUPOLE', 'MULLIKEN_CHARGES')
f=open( 'psi4out.xyz', 'w' )
f.write( "16  " )
f.write( str(ee) + "\n" )
f.write( MOL.save_string_xyz() )
f.close()
--------------------------------------------------------------------------

    Molecular point group: c1
  Charge       = 0
  Multiplicity = 1
  Basis Set: CC-PVTZ
  Basis Set:
  @DF-RHF Final Energy:  -360.90919498428065
    Total Energy =                       -360.9091949842807026
    Molecular point group: c1
  Basis Set: CC-PVTZ
  Basis Set:
  Basis Set: CC-PVTZ
  Basis Set:
  @DF-RHF Final Energy:  -360.90387284106345
    Total Energy =                       -360.9038728410635599
  Basis Set: CC-PVTZ
  Basis Set:
  Basis Set: CC-PVTZ
  Basis Set:
  @DF-RHF Final Energy:  -360.90820296581205
    Total Energy =                       -360.9082029658122224
  Basis Set: CC-PVTZ
  Basis Set:
  Basis Set: CC-PVTZ
  Basis Set:
  @DF-RHF Final Energy:  -360.90936345902730
    Total Energy =                       -360.9093634590270767
  Basis Set: CC-PVTZ
  Basis Set:
  Basis Set: CC-PVTZ
  Basis Set:
  @DF-RHF Final Energy:  -360.90938767764072
    Total Energy =                       -360.9093876776410070
  Basis Set: CC-PVTZ
  Basis Set:
  Basis Set: CC-PVTZ
  Basis Set:
  @DF-RHF Final Energy:  -360.90939559992728
    Total Energy =                       -360.9093955999275067
  Basis Set: CC-PVTZ
  Basis Set:
  Charge       = 0
  Multiplicity = 1
  Basis Set: CC-PVTZ
  Basis Set:

    Orbital Energies (a.u.)
    -----------------------

    Doubly Occupied:

       1A    -20.591430     2A    -20.588289     3A    -15.836437
       4A    -11.296484     5A    -11.249620     6A    -11.241532
       7A    -11.225641     8A     -1.635456     9A     -1.419690
      10A     -1.136168    11A     -1.059938    12A     -0.948797
      13A     -0.843433    14A     -0.828225    15A     -0.758275
      16A     -0.739175    17A     -0.728447    18A     -0.678174
      19A     -0.615546    20A     -0.607410    21A     -0.567500
      22A     -0.541267    23A     -0.517482    24A     -0.503913
      25A     -0.496233    26A     -0.486406    27A     -0.469818
      28A     -0.452576

  @DF-RHF Final Energy:  -360.90939582372329

   => Energetics <=

    Nuclear Repulsion Energy =            312.9074207666922689
    One-Electron Energy =               -1111.5069083662392586
    Two-Electron Energy =                 437.6900917758237597
    DFT Exchange-Correlation Energy =       0.0000000000000000
    Empirical Dispersion Energy =           0.0000000000000000
    PCM Polarization Energy =               0.0000000000000000
    EFP Energy =                            0.0000000000000000
    Total Energy =                       -360.9093958237232869
    Molecular point group: c1
  Basis Set: CC-PVTZ
  Basis Set:

  -Total Gradient:
     Atom            X                  Y                   Z
    ------   -----------------  -----------------  -----------------
       1       -0.000210520516    -0.000056070827     0.000349430971
       2        0.000302536931     0.000015201322    -0.000539517178
       3       -0.000145047556     0.000353451764     0.000338398919
       4        0.000013924181    -0.000047104025     0.000005509040
       5        0.000055963084    -0.000278870135    -0.000152798300
       6        0.000005587260     0.000003688828    -0.000003378238
       7       -0.000010328432    -0.000000802865    -0.000000649938
       8       -0.000007408050     0.000019578301     0.000000493708
       9        0.000008956712     0.000009339909    -0.000008447086
      10       -0.000018104049    -0.000009285440     0.000013181543
      11        0.000002378724    -0.000013189812    -0.000007204287
      12        0.000000352098     0.000002466771     0.000007078234
      13        0.000000569750     0.000004867607     0.000000599709
      14        0.000003081688     0.000004308725    -0.000002958259
      15       -0.000003857956    -0.000003523050     0.000002310818
      16        0.000001916134    -0.000004057070    -0.000002049654

  **** Optimization is complete! (in 7 steps) ****
    Final optimized geometry and variables:
    Molecular point group: c1

    Geometry (in Angstrom), charge = 0, multiplicity = 1:

    O           -1.266565074097    -0.378036714031    -1.787288194654
    N           -0.812057216725     0.586663550597    -1.268663277024
    C            0.467886093499     0.415860436478    -0.528005870648
    O           -1.300236246293     1.665971880574    -1.279327429354
    C            0.239721606787    -0.398282572342     0.738049456526
    H            0.825252113978     1.409067668834    -0.318223560990
    H            1.132677504237    -0.092186296755    -1.209270001156
    C            1.536501584879    -0.576160807071     1.523726942845
    H           -0.497770510530     0.105453802674     1.354103658259
    H           -0.168696978914    -1.363376755508     0.467742264277
    C            1.337729973495    -1.389258221666     2.798061215420
    H            1.944246966852     0.398068228894     1.776690145220
    H            2.274350029443    -1.065454596317     0.894515462075
    H            0.629185278460    -0.907363186172     3.462550390580
    H            0.960744435200    -2.380876715549     2.573980096231
    H            2.271671779408    -1.502495686396     3.334834629326

  Mulliken Charges: (a.u.)
   Center  Symbol    Alpha    Beta     Spin     Total
       1     O     4.17538  4.17538  0.00000 -0.35075
       2     N     3.27625  3.27625  0.00000  0.44749
       3     C     3.04079  3.04079  0.00000 -0.08158
       4     O     4.17054  4.17054  0.00000 -0.34108
       5     C     3.10135  3.10135  0.00000 -0.20270
       6     H     0.43273  0.43273  0.00000  0.13454
       7     H     0.43553  0.43553  0.00000  0.12894
       8     C     3.09359  3.09359  0.00000 -0.18719
       9     H     0.44151  0.44151  0.00000  0.11698
      10     H     0.43430  0.43430  0.00000  0.13140
      11     C     3.14819  3.14819  0.00000 -0.29639
      12     H     0.45035  0.45035  0.00000  0.09931
      13     H     0.45072  0.45072  0.00000  0.09856
      14     H     0.45195  0.45195  0.00000  0.09609
      15     H     0.45155  0.45155  0.00000  0.09689
      16     H     0.44526  0.44526  0.00000  0.10947

   Total alpha = 28.00000, Total beta = 28.00000, Total charge = -0.00000

*** Psi4 exiting successfully. Buy a developer a beer!
