  ==> Input File <==

--------------------------------------------------------------------------
set {
	reference rhf
	basis 6-31G*
}

set_num_threads( 4 )
memory 2 gb

molecule MOL {
0 1

H	 -1.968091	 0.039845	 0.394461
N	 -1.172117	 -0.314371	 -0.100254
C	 -0.024542	 0.565565	 0.069209
H	 -0.976580	 -1.222355	 0.277116
C	 1.271298	 -0.229563	 -0.014192
H	 -0.049409	 1.297310	 -0.731596
H	 -0.046881	 1.125219	 1.006750
H	 1.332152	 -0.753033	 -0.961461
H	 2.134169	 0.422483	 0.080702
H	 1.326077	 -0.968298	 0.781395

	symmetry c1
}
set optking {
	frozen_dihedral = ("
		1 2 3 6
	")
}

ee = optimize('scf')
oeprop('DIPOLE', 'QUADRUPOLE', 'MULLIKEN_CHARGES')
f=open( 'psi4out.xyz', 'w' )
f.write( "10  " )
f.write( str(ee) + "\n" )
f.write( MOL.save_string_xyz() )
f.close()
--------------------------------------------------------------------------

    Molecular point group: c1
  Charge       = 0
  Multiplicity = 1
  Basis Set: 6-31G*
  Basis Set:
  @DF-RHF Final Energy:  -134.24513427112259
    Total Energy =                       -134.2451342711225379
    Molecular point group: c1
  Basis Set: 6-31G*
  Basis Set:
  Basis Set: 6-31G*
  Basis Set:
  @DF-RHF Final Energy:  -134.24532191188979
    Total Energy =                       -134.2453219118897891
  Basis Set: 6-31G*
  Basis Set:
  Basis Set: 6-31G*
  Basis Set:
  @DF-RHF Final Energy:  -134.24535182317786
    Total Energy =                       -134.2453518231778560
  Basis Set: 6-31G*
  Basis Set:
  Charge       = 0
  Multiplicity = 1
  Basis Set: 6-31G*
  Basis Set:

    Orbital Energies (a.u.)
    -----------------------

    Doubly Occupied:

       1A    -15.532469     2A    -11.242581     3A    -11.212006
       4A     -1.175965     5A     -0.989462     6A     -0.827719
       7A     -0.655832     8A     -0.629745     9A     -0.589022
      10A     -0.522012    11A     -0.502286    12A     -0.492880
      13A     -0.382647

  @DF-RHF Final Energy:  -134.24535272125325

   => Energetics <=

    Nuclear Repulsion Energy =             83.3849569692503252
    One-Electron Energy =                -345.7513711267220629
    Two-Electron Energy =                 128.1210614362185254
    DFT Exchange-Correlation Energy =       0.0000000000000000
    Empirical Dispersion Energy =           0.0000000000000000
    PCM Polarization Energy =               0.0000000000000000
    EFP Energy =                            0.0000000000000000
    Total Energy =                       -134.2453527212532265
    Molecular point group: c1
  Basis Set: 6-31G*
  Basis Set:

  -Total Gradient:
     Atom            X                  Y                   Z
    ------   -----------------  -----------------  -----------------
       1        0.000987099298    -0.002001290253     0.003126499873
       2       -0.000802802315     0.002019853504    -0.004382250901
       3       -0.002247946313     0.002081932369     0.003294801879
       4        0.000001801258    -0.000015774730    -0.000012401281
       5        0.000005829489     0.000038905132     0.000026417130
       6        0.001976001583    -0.002163515041    -0.001991326799
       7        0.000050908198     0.000034026010    -0.000010247947
       8        0.000014733467    -0.000004344176    -0.000018860159
       9        0.000023961035     0.000002649009    -0.000017293088
      10       -0.000009585700     0.000007558176    -0.000015338707

  **** Optimization is complete! (in 4 steps) ****
    Final optimized geometry and variables:
    Molecular point group: c1

    Geometry (in Angstrom), charge = 0, multiplicity = 1:

    H           -1.986296283523     0.048833676091     0.368434702120
    N           -1.183064113802    -0.305528726587    -0.114122981951
    C           -0.031709915366     0.573011061169     0.076974267498
    H           -0.999331079404    -1.202790351333     0.293983213118
    C            1.268277833908    -0.217519036080    -0.015314649789
    H           -0.031286325311     1.312478766324    -0.717583934452
    H           -0.060916756603     1.108692915726     1.025477729183
    H            1.317726472500    -0.755443034111    -0.956494436609
    H            2.127986780361     0.441818423463     0.045466118283
    H            1.346422017203    -0.941249893070     0.792210788480

  Mulliken Charges: (a.u.)
   Center  Symbol    Alpha    Beta     Spin     Total
       1     H     0.33347  0.33347  0.00000  0.33305
       2     N     3.92108  3.92108  0.00000 -0.84215
       3     C     3.05561  3.05561  0.00000 -0.11121
       4     H     0.33551  0.33551  0.00000  0.32898
       5     C     3.24973  3.24973  0.00000 -0.49945
       6     H     0.41842  0.41842  0.00000  0.16316
       7     H     0.43192  0.43192  0.00000  0.13616
       8     H     0.41185  0.41185  0.00000  0.17629
       9     H     0.41782  0.41782  0.00000  0.16436
      10     H     0.42460  0.42460  0.00000  0.15080

   Total alpha = 13.00000, Total beta = 13.00000, Total charge =  0.00000
