  ==> Input File <==

--------------------------------------------------------------------------
set {
	reference rhf
	basis cc-pvtz
}

set_num_threads( 4 )
memory 2 gb

molecule MOL {
0 1

H	 1.352126	 -2.118747	 0.665858
C	 0.411708	 -1.611695	 0.801302
O	 0.462329	 -0.453336	 -0.000137
H	 0.292129	 -1.357446	 1.846901
H	 -0.393059	 -2.265932	 0.490558
C	 -0.590565	 0.341382	 0.000062
O	 -1.693898	 -0.053880	 0.000252
H	 -0.340426	 1.403822	 0.000200

	symmetry c1
}
set optking {
	frozen_dihedral = ("
		2 3 6 7
	")
}

ee = optimize('scf')
oeprop('DIPOLE', 'QUADRUPOLE', 'MULLIKEN_CHARGES')
f=open( 'psi4out.xyz', 'w' )
f.write( "8  " )
f.write( str(ee) + "\n" )
f.write( MOL.save_string_xyz() )
f.close()
--------------------------------------------------------------------------

    Molecular point group: c1
  Charge       = 0
  Multiplicity = 1
  Basis Set: CC-PVTZ
  Basis Set:
  @DF-RHF Final Energy:  -227.86939572585337
    Total Energy =                       -227.8693957258533942
    Molecular point group: c1
  Basis Set: CC-PVTZ
  Basis Set:
  Basis Set: CC-PVTZ
  Basis Set:
  @DF-RHF Final Energy:  -227.86390961771485
    Total Energy =                       -227.8639096177148531
  Basis Set: CC-PVTZ
  Basis Set:
  Basis Set: CC-PVTZ
  Basis Set:
  @DF-RHF Final Energy:  -227.87006342477514
    Total Energy =                       -227.8700634247753669
  Basis Set: CC-PVTZ
  Basis Set:
  Basis Set: CC-PVTZ
  Basis Set:
  @DF-RHF Final Energy:  -227.87066396755640
    Total Energy =                       -227.8706639675564816
  Basis Set: CC-PVTZ
  Basis Set:
  Basis Set: CC-PVTZ
  Basis Set:
  @DF-RHF Final Energy:  -227.87066740168663
    Total Energy =                       -227.8706674016864895
  Basis Set: CC-PVTZ
  Basis Set:
  Charge       = 0
  Multiplicity = 1
  Basis Set: CC-PVTZ
  Basis Set:

    Orbital Energies (a.u.)
    -----------------------

    Doubly Occupied:

       1A    -20.601627     2A    -20.553333     3A    -11.373886
       4A    -11.290054     5A     -1.477422     6A     -1.381304
       7A     -0.995339     8A     -0.823037     9A     -0.744890
      10A     -0.686696    11A     -0.677807    12A     -0.611384
      13A     -0.562260    14A     -0.528714    15A     -0.471735
      16A     -0.458830

  @DF-RHF Final Energy:  -227.87066765344537

   => Energetics <=

    Nuclear Repulsion Energy =            123.2464205703995646
    One-Electron Energy =                -555.7575357072117868
    Two-Electron Energy =                 204.6404474833668132
    DFT Exchange-Correlation Energy =       0.0000000000000000
    Empirical Dispersion Energy =           0.0000000000000000
    PCM Polarization Energy =               0.0000000000000000
    EFP Energy =                            0.0000000000000000
    Total Energy =                       -227.8706676534454232
    Molecular point group: c1
  Basis Set: CC-PVTZ
  Basis Set:

  -Total Gradient:
     Atom            X                  Y                   Z
    ------   -----------------  -----------------  -----------------
       1       -0.000006680705    -0.000019328448     0.000015600028
       2        0.003093176205     0.004039422111     0.006143062970
       3       -0.004640650043    -0.005924498223    -0.014685918700
       4        0.000003957781    -0.000002087984     0.000008174569
       5        0.000003735649    -0.000002517654     0.000006601519
       6        0.001564962688     0.001702323772     0.019023138225
       7       -0.000004081955     0.000211308834    -0.010506122238
       8       -0.000014419619    -0.000004622406    -0.000004536374

  **** Optimization is complete! (in 6 steps) ****
    Final optimized geometry and variables:
    Molecular point group: c1

    Geometry (in Angstrom), charge = 0, multiplicity = 1:

    H            1.732558673454    -1.649602921813     0.445827537319
    C            0.776112363580    -1.170547810375     0.573133790693
    O            0.816922144304     0.009272314540    -0.211640189868
    H            0.629252587091    -0.917315816580     1.614241829601
    H           -0.014805003484    -1.827620987698     0.245232604442
    C           -0.246336744582     0.794829797794    -0.195016002325
    O           -1.365169766435     0.433690915088    -0.200085063497
    H            0.046133823448     1.838001830572    -0.273107147151

  Mulliken Charges: (a.u.)
   Center  Symbol    Alpha    Beta     Spin     Total
       1     H     0.44489  0.44489  0.00000  0.11021
       2     C     3.02670  3.02670  0.00000 -0.05340
       3     O     4.14730  4.14730  0.00000 -0.29459
       4     H     0.46076  0.46076  0.00000  0.07848
       5     H     0.44807  0.44807  0.00000  0.10386
       6     C     2.83351  2.83351  0.00000  0.33298
       7     O     4.18361  4.18361  0.00000 -0.36721
       8     H     0.45517  0.45517  0.00000  0.08967

   Total alpha = 16.00000, Total beta = 16.00000, Total charge = -0.00000
