  ==> Input File <==

--------------------------------------------------------------------------
set {
	reference rhf
	basis 6-31G*
}

set_num_threads( 4 )
memory 2 gb

molecule MOL {
0 1

H	 1.361832	 3.593289	 2.561384
N	 0.529989	 3.039153	 2.494174
C	 0.556479	 2.211807	 1.296542
H	 -0.241652	 3.678208	 2.462395
C	 -0.664319	 1.299118	 1.247498
H	 1.456236	 1.605315	 1.334791
H	 0.610756	 2.794480	 0.373533
C	 -0.679275	 0.379305	 0.025956
H	 -0.689933	 0.711258	 2.160514
H	 -1.566134	 1.910726	 1.249110
C	 -1.903357	 -0.536963	 -0.023547
H	 0.223190	 -0.230113	 0.022168
H	 -0.645087	 0.979030	 -0.882344
C	 -3.225172	 0.228290	 0.028445
H	 -1.867824	 -1.134999	 -0.931459
H	 -1.860449	 -1.239604	 0.805977
H	 -3.313397	 0.915643	 -0.808262
H	 -4.073500	 -0.448134	 -0.008893
H	 -3.306061	 0.809945	 0.942516

	symmetry c1
}
set optking {
	frozen_dihedral = ("
		12 8 11 15
	")
}

ee = optimize('scf')
oeprop('DIPOLE', 'QUADRUPOLE', 'MULLIKEN_CHARGES')
f=open( 'psi4out.xyz', 'w' )
f.write( "19  " )
f.write( str(ee) + "\n" )
f.write( MOL.save_string_xyz() )
f.close()
--------------------------------------------------------------------------

    Molecular point group: c1
  Charge       = 0
  Multiplicity = 1
  Basis Set: 6-31G*
  Basis Set:
  @DF-RHF Final Energy:  -251.34875232729061
    Total Energy =                       -251.3487523272908675
    Molecular point group: c1
  Basis Set: 6-31G*
  Basis Set:
  Basis Set: 6-31G*
  Basis Set:
  @DF-RHF Final Energy:  -251.34925455444986
    Total Energy =                       -251.3492545544499421
  Basis Set: 6-31G*
  Basis Set:
  Basis Set: 6-31G*
  Basis Set:
  @DF-RHF Final Energy:  -251.34984804563558
    Total Energy =                       -251.3498480456355537
  Basis Set: 6-31G*
  Basis Set:
  Basis Set: 6-31G*
  Basis Set:
  @DF-RHF Final Energy:  -251.34988629286946
    Total Energy =                       -251.3498862928692006
  Basis Set: 6-31G*
  Basis Set:
  Basis Set: 6-31G*
  Basis Set:
  @DF-RHF Final Energy:  -251.34988906017364
    Total Energy =                       -251.3498890601734956
  Basis Set: 6-31G*
  Basis Set:
  Basis Set: 6-31G*
  Basis Set:
  @DF-RHF Final Energy:  -251.34989087396795
    Total Energy =                       -251.3498908739680928
  Basis Set: 6-31G*
  Basis Set:
  Charge       = 0
  Multiplicity = 1
  Basis Set: 6-31G*
  Basis Set:

    Orbital Energies (a.u.)
    -----------------------

    Doubly Occupied:

       1A    -15.532433     2A    -11.239703     3A    -11.214338
       4A    -11.213075     5A    -11.208925     6A    -11.206826
       7A     -1.176554     8A     -1.072399     9A     -0.994797
      10A     -0.903915    11A     -0.823519    12A     -0.775461
      13A     -0.664968    14A     -0.631079    15A     -0.617938
      16A     -0.603561    17A     -0.566208    18A     -0.548244
      19A     -0.520763    20A     -0.503342    21A     -0.486992
      22A     -0.459844    23A     -0.455126    24A     -0.451009
      25A     -0.380898

  @DF-RHF Final Energy:  -251.34989093149949

   => Energetics <=

    Nuclear Repulsion Energy =            249.1215865354672019
    One-Electron Energy =                -832.4391214150703036
    Two-Electron Energy =                 331.9676439481038415
    DFT Exchange-Correlation Energy =       0.0000000000000000
    Empirical Dispersion Energy =           0.0000000000000000
    PCM Polarization Energy =               0.0000000000000000
    EFP Energy =                            0.0000000000000000
    Total Energy =                       -251.3498909314992034
    Molecular point group: c1
  Basis Set: 6-31G*
  Basis Set:

  -Total Gradient:
     Atom            X                  Y                   Z
    ------   -----------------  -----------------  -----------------
       1       -0.000000065751     0.000001442396     0.000000957825
       2        0.000007012753    -0.000002007870     0.000003828345
       3       -0.000005180021     0.000003588287    -0.000002000775
       4        0.000000326487    -0.000002193740    -0.000002484751
       5       -0.000003586147    -0.000001858231    -0.000005923857
       6       -0.000000358414     0.000003100964     0.000003967649
       7        0.000002359249    -0.000001036917    -0.000000868106
       8       -0.000196143252     0.000325807276    -0.002364596902
       9       -0.000001074598    -0.000003982240    -0.000004258362
      10        0.000000711126     0.000004094100    -0.000001408404
      11        0.001186607524    -0.001509645641     0.001451903679
      12       -0.000012492998    -0.000047283411     0.001787559666
      13       -0.000006905276    -0.000002302745     0.000001541410
      14       -0.000002471539     0.000002224255     0.000002716798
      15       -0.000967257259     0.001226201308    -0.000870492569
      16        0.000002243581     0.000002052199    -0.000003347809
      17       -0.000000480227    -0.000002224249    -0.000000284212
      18       -0.000001110542     0.000000195662     0.000001612787
      19       -0.000002134696     0.000003828597     0.000001577587

  **** Optimization is complete! (in 7 steps) ****
    Final optimized geometry and variables:
    Molecular point group: c1

    Geometry (in Angstrom), charge = 0, multiplicity = 1:

    H            2.338637169045     2.398476976567     1.718602780605
    N            1.474913115312     1.898087705778     1.633960712019
    C            1.484877243973     1.048031912522     0.452043092398
    H            0.748023360588     2.585046445144     1.566423224004
    C            0.210381632287     0.213058530325     0.380350942272
    H            2.343218862976     0.387577701699     0.528355541375
    H            1.603306384777     1.608647219422    -0.478711865309
    C            0.176197024864    -0.709321560409    -0.841349384422
    H            0.130634932758    -0.370204987373     1.293820048510
    H           -0.645797545256     0.883908489806     0.365767349832
    C           -1.012724561471    -1.676950144042    -0.879031555027
    H            1.092362164165    -1.296788586288    -0.849813447564
    H            0.181784591571    -0.109900318936    -1.750078512668
    C           -2.385707686671    -1.001512819401    -0.851596770806
    H           -0.943057653897    -2.267070662275    -1.789621305888
    H           -0.937215465069    -2.374676874942    -0.048302242738
    H           -2.478551269937    -0.271180398791    -1.651391043873
    H           -3.176084268571    -1.734312387076    -0.982190347017
    H           -2.568774934661    -0.490035955907     0.087242169381

  Mulliken Charges: (a.u.)
   Center  Symbol    Alpha    Beta     Spin     Total
       1     H     0.33252  0.33252  0.00000  0.33496
       2     N     3.92189  3.92189  0.00000 -0.84379
       3     C     3.06000  3.06000  0.00000 -0.12000
       4     H     0.33541  0.33541  0.00000  0.32918
       5     C     3.15365  3.15365  0.00000 -0.30731
       6     H     0.42097  0.42097  0.00000  0.15806
       7     H     0.43482  0.43482  0.00000  0.13036
       8     C     3.15635  3.15635  0.00000 -0.31270
       9     H     0.41396  0.41396  0.00000  0.17208
      10     H     0.42529  0.42529  0.00000  0.14942
      11     C     3.15102  3.15102  0.00000 -0.30204
      12     H     0.42237  0.42237  0.00000  0.15526
      13     H     0.42461  0.42461  0.00000  0.15078
      14     C     3.24220  3.24220  0.00000 -0.48440
      15     H     0.42159  0.42159  0.00000  0.15682
      16     H     0.42193  0.42193  0.00000  0.15614
      17     H     0.42326  0.42326  0.00000  0.15348
      18     H     0.41937  0.41937  0.00000  0.16126
      19     H     0.41878  0.41878  0.00000  0.16243

   Total alpha = 25.00000, Total beta = 25.00000, Total charge =  0.00000
