  ==> Input File <==

--------------------------------------------------------------------------
set {
	reference rhf
	basis 6-31G*
}

set_num_threads( 4 )
memory 2 gb

molecule MOL {
0 1

H	 -3.420663	 1.227371	 -1.044276
O	 -3.452007	 0.283848	 -0.965577
C	 -3.181085	 -0.079926	 0.364119
C	 -1.765924	 0.277073	 0.805136
H	 -3.327791	 -1.152017	 0.410903
H	 -3.905698	 0.375695	 1.036898
C	 -0.677594	 -0.417312	 -0.014550
H	 -1.637766	 1.358238	 0.744969
H	 -1.659588	 0.017670	 1.857098
C	 0.738335	 -0.034840	 0.421385
H	 -0.814977	 -0.178223	 -1.064632
H	 -0.802730	 -1.495410	 0.071702
C	 1.566058	 0.570213	 -0.715660
H	 0.675888	 0.666964	 1.249631
H	 1.249371	 -0.916523	 0.806197
C	 3.020840	 0.888113	 -0.351373
H	 1.079419	 1.476959	 -1.071595
H	 1.564206	 -0.123046	 -1.554233
C	 3.187822	 1.992122	 0.694421
H	 3.545538	 1.184024	 -1.256590
H	 3.510069	 -0.018461	 -0.000688
H	 2.697254	 2.908193	 0.376152
H	 4.237999	 2.218430	 0.851743
H	 2.769411	 1.709151	 1.654642

	symmetry c1
}
set optking {
	frozen_dihedral = ("
		13 10 7 11
	")
}

ee = optimize('scf')
oeprop('DIPOLE', 'QUADRUPOLE', 'MULLIKEN_CHARGES')
f=open( 'psi4out.xyz', 'w' )
f.write( "24  " )
f.write( str(ee) + "\n" )
f.write( MOL.save_string_xyz() )
f.close()
--------------------------------------------------------------------------

    Molecular point group: c1
  Charge       = 0
  Multiplicity = 1
  Basis Set: 6-31G*
  Basis Set:
  @DF-RHF Final Energy:  -349.24192136213958
    Total Energy =                       -349.2419213621395784
    Molecular point group: c1
  Basis Set: 6-31G*
  Basis Set:
  Basis Set: 6-31G*
  Basis Set:
  @DF-RHF Final Energy:  -349.24213462027382
    Total Energy =                       -349.2421346202738164
  Basis Set: 6-31G*
  Basis Set:
  Basis Set: 6-31G*
  Basis Set:
  @DF-RHF Final Energy:  -349.24219031958120
    Total Energy =                       -349.2421903195813115
  Basis Set: 6-31G*
  Basis Set:
  Basis Set: 6-31G*
  Basis Set:
  @DF-RHF Final Energy:  -349.24218491031684
    Total Energy =                       -349.2421849103166096
  Basis Set: 6-31G*
  Basis Set:
  Basis Set: 6-31G*
  Basis Set:
  @DF-RHF Final Energy:  -349.24221562486014
    Total Energy =                       -349.2422156248601368
  Basis Set: 6-31G*
  Basis Set:
  Charge       = 0
  Multiplicity = 1
  Basis Set: 6-31G*
  Basis Set:

    Orbital Energies (a.u.)
    -----------------------

    Doubly Occupied:

       1A    -20.553622     2A    -11.267500     3A    -11.217826
       4A    -11.214177     5A    -11.212561     6A    -11.211828
       7A    -11.210775     8A    -11.207940     9A     -1.360145
      10A     -1.086985    11A     -1.047868    12A     -0.984614
      13A     -0.914809    14A     -0.851453    15A     -0.802871
      16A     -0.776228    17A     -0.679857    18A     -0.641506
      19A     -0.632024    20A     -0.615745    21A     -0.600737
      22A     -0.587674    23A     -0.555760    24A     -0.541929
      25A     -0.515230    26A     -0.510177    27A     -0.498058
      28A     -0.475696    29A     -0.466266    30A     -0.459539
      31A     -0.451986    32A     -0.448906    33A     -0.418465

  @DF-RHF Final Energy:  -349.24221481314891

   => Energetics <=

    Nuclear Repulsion Energy =            386.4420298092828148
    One-Electron Energy =               -1239.3269730391000394
    Two-Electron Energy =                 503.6427284166682625
    DFT Exchange-Correlation Energy =       0.0000000000000000
    Empirical Dispersion Energy =           0.0000000000000000
    PCM Polarization Energy =               0.0000000000000000
    EFP Energy =                            0.0000000000000000
    Total Energy =                       -349.2422148131490189
    Molecular point group: c1
  Basis Set: 6-31G*
  Basis Set:

  -Total Gradient:
     Atom            X                  Y                   Z
    ------   -----------------  -----------------  -----------------
       1       -0.000002877699     0.000009215152    -0.000007361437
       2       -0.000021468659     0.000018034358     0.000034948541
       3       -0.000042641937    -0.000046431289     0.000011726403
       4        0.000062530750    -0.000015406147    -0.000093814978
       5        0.000002601652     0.000003549902    -0.000003837869
       6       -0.000036342580    -0.000003822139    -0.000007696058
       7       -0.000157918883     0.000820127720     0.000229448907
       8        0.000011819177    -0.000023409434    -0.000028947230
       9        0.000022415186     0.000004229775    -0.000017538826
      10        0.000099220665    -0.000584537728    -0.000240438921
      11        0.000143835458    -0.000487508363    -0.000117865593
      12       -0.000043101619    -0.000020509671     0.000030710458
      13       -0.000173294160     0.000306677603     0.000204536730
      14        0.000040148470     0.000037837987     0.000009205317
      15        0.000066978200     0.000006603549    -0.000014463843
      16        0.000055023030     0.000019772890    -0.000063263208
      17        0.000022521478    -0.000018150145     0.000039817663
      18       -0.000054803803    -0.000024450080     0.000026254541
      19       -0.000019542183    -0.000023201285     0.000007421705
      20        0.000031016268     0.000028536415     0.000004693425
      21        0.000012011543     0.000011314557    -0.000020864870
      22        0.000015327320    -0.000002568264    -0.000006404216
      23        0.000002457004    -0.000015576584     0.000011967016
      24       -0.000035914672    -0.000000328778     0.000011766343

  **** Optimization is complete! (in 6 steps) ****
    Final optimized geometry and variables:
    Molecular point group: c1

    Geometry (in Angstrom), charge = 0, multiplicity = 1:

    H           -3.301832868004     0.777862626056    -1.059746248519
    O           -3.335374152771    -0.165601013212    -0.981578679467
    C           -3.063863237418    -0.530837557158     0.347735990274
    C           -1.648681927025    -0.174701547749     0.788326831285
    H           -3.210516113969    -1.602954259085     0.393284974726
    H           -3.788369015554    -0.076165656082     1.021287491621
    C           -0.559370426794    -0.866464590476    -0.033400540666
    H           -1.518661058024     0.906567228900     0.729615735634
    H           -1.540556847976    -0.435712144580     1.839701926688
    C            0.875030647452    -0.487128957852     0.399916046963
    H           -0.707882802209    -0.627386231414    -1.080981101057
    H           -0.696873726157    -1.942176380260     0.044649916262
    C            1.706662681230     0.117756634889    -0.735537780721
    H            0.828871910127     0.215394987660     1.227374940268
    H            1.390641390362    -1.363929620098     0.784208484493
    C            3.159034448788     0.440893197830    -0.367971633338
    H            1.217048224858     1.022081135935    -1.095019369014
    H            1.707675599274    -0.577524298928    -1.572327619104
    C            3.320647588093     1.547181553358     0.676417437847
    H            3.685634643221     0.736583867608    -1.272176719574
    H            3.649671778254    -0.463794434985    -0.014340029198
    H            2.830754225152     2.462302848384     0.354193183641
    H            4.369963575850     1.774842649717     0.837351014152
    H            2.898790974015     1.266182122854     1.635657635544

  Mulliken Charges: (a.u.)
   Center  Symbol    Alpha    Beta     Spin     Total
       1     H     0.28336  0.28336  0.00000  0.43329
       2     O     4.36826  4.36826  0.00000 -0.73652
       3     C     2.99688  2.99688  0.00000  0.00624
       4     C     3.17070  3.17070  0.00000 -0.34141
       5     H     0.41632  0.41632  0.00000  0.16737
       6     H     0.42814  0.42814  0.00000  0.14372
       7     C     3.15591  3.15591  0.00000 -0.31183
       8     H     0.42817  0.42817  0.00000  0.14366
       9     H     0.42191  0.42191  0.00000  0.15618
      10     C     3.15743  3.15743  0.00000 -0.31485
      11     H     0.40884  0.40884  0.00000  0.18233
      12     H     0.42099  0.42099  0.00000  0.15803
      13     C     3.15377  3.15377  0.00000 -0.30754
      14     H     0.42041  0.42041  0.00000  0.15917
      15     H     0.42137  0.42137  0.00000  0.15727
      16     C     3.15310  3.15310  0.00000 -0.30621
      17     H     0.42575  0.42575  0.00000  0.14850
      18     H     0.42060  0.42060  0.00000  0.15879
      19     C     3.24106  3.24106  0.00000 -0.48211
      20     H     0.42106  0.42106  0.00000  0.15787
      21     H     0.42336  0.42336  0.00000  0.15328
      22     H     0.42298  0.42298  0.00000  0.15403
      23     H     0.41932  0.41932  0.00000  0.16135
      24     H     0.42031  0.42031  0.00000  0.15938

   Total alpha = 33.00000, Total beta = 33.00000, Total charge = -0.00000
