  ==> Input File <==

--------------------------------------------------------------------------
set {
	reference rhf
	basis 6-31G*
}

set_num_threads( 1 )
memory 2 gb

molecule MOL {
0 1

H	 0.013662	 2.224664	 -4.851727
C	 0.265941	 1.843642	 -3.878093
C	 -0.172623	 2.506249	 -2.741536
C	 1.028377	 0.691885	 -3.763724
H	 -0.763858	 3.399384	 -2.831639
C	 0.152159	 2.015724	 -1.489983
H	 1.367449	 0.179599	 -4.645880
C	 1.354703	 0.199029	 -2.511935
H	 -0.178522	 2.515336	 -0.599641
C	 0.916688	 0.860806	 -1.370901
H	 1.944492	 -0.691918	 -2.418748
C	 1.239129	 0.373821	 0.000060
O	 1.970282	 -0.730723	 0.000018
O	 0.881496	 0.914176	 0.999547
C	 3.377318	 -0.566646	 -0.000065
H	 3.695437	 -0.028981	 -0.881264
H	 3.789299	 -1.563704	 0.000236
H	 3.695516	 -0.028316	 0.880770

	symmetry c1
}
set optking {
	frozen_dihedral = ("
		12 13 15 16,
		13 12 10 6
	")
}

ee = energy('scf')
oeprop('DIPOLE', 'QUADRUPOLE', 'MULLIKEN_CHARGES')
f=open( 'psi4out.xyz', 'w' )
f.write( "18  " )
f.write( str(ee) + "\n" )
f.write( MOL.save_string_xyz() )
f.close()
--------------------------------------------------------------------------

    Molecular point group: c1

    Geometry (in Angstrom), charge = 0, multiplicity = 1:

       Center              X                  Y                   Z               Mass
    ------------   -----------------  -----------------  -----------------  -----------------
           H         -1.141950287363     1.459653796941    -3.465833645341     1.007825032070
           C         -0.889671287363     1.078631796941    -2.492199645341    12.000000000000
           C         -1.328235287363     1.741238796941    -1.355642645341    12.000000000000
           C         -0.127235287363    -0.073125203059    -2.377830645341    12.000000000000
           H         -1.919470287363     2.634373796941    -1.445745645341     1.007825032070
           C         -1.003453287363     1.250713796941    -0.104089645341    12.000000000000
           H          0.211836712637    -0.585411203059    -3.259986645341     1.007825032070
           C          0.199090712637    -0.565981203059    -1.126041645341    12.000000000000
           H         -1.334134287363     1.750325796941     0.786252354659     1.007825032070
           C         -0.238924287363     0.095795796941     0.014992354659    12.000000000000
           H          0.788879712637    -1.456928203059    -1.032854645341     1.007825032070
           C          0.083516712637    -0.391189203059     1.385953354659    12.000000000000
           O          0.814669712637    -1.495733203059     1.385911354659    15.994914619560
           O         -0.274116287363     0.149165796941     2.385440354659    15.994914619560
           C          2.221705712637    -1.331656203059     1.385828354659    12.000000000000
           H          2.539824712637    -0.793991203059     0.504629354659     1.007825032070
           H          2.633686712637    -2.328714203059     1.386129354659     1.007825032070
           H          2.539903712637    -0.793326203059     2.266663354659     1.007825032070

  Charge       = 0
  Multiplicity = 1
  Basis Set: 6-31G*
  Basis Set:

    Orbital Energies (a.u.)
    -----------------------

    Doubly Occupied:

       1A    -20.589905     2A    -20.553080     3A    -11.378256
       4A    -11.294611     5A    -11.249882     6A    -11.249305
       7A    -11.246277     8A    -11.244292     9A    -11.242049
      10A    -11.240248    11A     -1.466260    12A     -1.367628
      13A     -1.168603    14A     -1.045984    15A     -1.028791
      16A     -0.982462    17A     -0.870678    18A     -0.839841
      19A     -0.781333    20A     -0.739979    21A     -0.685464
      22A     -0.676683    23A     -0.666609    24A     -0.640374
      25A     -0.627366    26A     -0.608537    27A     -0.596288
      28A     -0.562265    29A     -0.528513    30A     -0.521233
      31A     -0.503878    32A     -0.490579    33A     -0.464215
      34A     -0.442505    35A     -0.348425    36A     -0.344793

  @DF-RHF Final Energy:  -457.32968062248381

   => Energetics <=

    Nuclear Repulsion Energy =            497.7254316502338725
    One-Electron Energy =               -1609.5358533611981784
    Two-Electron Energy =                 654.4807410884786805
    DFT Exchange-Correlation Energy =       0.0000000000000000
    Empirical Dispersion Energy =           0.0000000000000000
    PCM Polarization Energy =               0.0000000000000000
    EFP Energy =                            0.0000000000000000
    Total Energy =                       -457.3296806224857391

  Mulliken Charges: (a.u.)
   Center  Symbol    Alpha    Beta     Spin     Total
       1     H     0.39448  0.39448  0.00000  0.21105
       2     C     3.09022  3.09022  0.00000 -0.18045
       3     C     3.10653  3.10653  0.00000 -0.21306
       4     C     3.10651  3.10651  0.00000 -0.21302
       5     H     0.39456  0.39456  0.00000  0.21087
       6     C     3.08510  3.08510  0.00000 -0.17020
       7     H     0.39575  0.39575  0.00000  0.20850
       8     C     3.09318  3.09318  0.00000 -0.18635
       9     H     0.37544  0.37544  0.00000  0.24913
      10     C     3.07694  3.07694  0.00000 -0.15387
      11     H     0.38469  0.38469  0.00000  0.23062
      12     C     2.59348  2.59348  0.00000  0.81305
      13     O     4.31685  4.31685  0.00000 -0.63369
      14     O     4.26527  4.26527  0.00000 -0.53055
      15     C     3.09654  3.09654  0.00000 -0.19307
      16     H     0.41757  0.41757  0.00000  0.16486
      17     H     0.40177  0.40177  0.00000  0.19645
      18     H     0.40513  0.40513  0.00000  0.18974

   Total alpha = 36.00000, Total beta = 36.00000, Total charge =  0.00000
