  ==> Input File <==

--------------------------------------------------------------------------
set {
	reference rhf
	basis 6-31G*
}

set_num_threads( 1 )
memory 2 gb

molecule MOL {
0 1

H	 0.020137	 3.902321	 -1.534554
O	 -0.422647	 3.134067	 -1.866391
C	 -0.287455	 2.079460	 -0.951780
C	 1.113674	 1.495298	 -0.987275
H	 -0.527228	 2.393016	 0.060421
H	 -1.002001	 1.320982	 -1.239156
O	 1.171513	 0.459272	 -0.058250
H	 1.847529	 2.267158	 -0.747131
H	 1.334608	 1.136606	 -1.990825
C	 2.397842	 -0.198080	 -0.002151
H	 2.508049	 -0.905315	 -0.822092
H	 3.173794	 0.550865	 -0.078850
H	 2.517602	 -0.735921	 0.936026

	symmetry c1
}
set optking {
	frozen_dihedral = ("
		8 4 3 5,
		1 2 3 5,
		10 7 4 8
	")
}

ee = energy('scf')
oeprop('DIPOLE', 'QUADRUPOLE', 'MULLIKEN_CHARGES')
f=open( 'psi4out.xyz', 'w' )
f.write( "13  " )
f.write( str(ee) + "\n" )
f.write( MOL.save_string_xyz() )
f.close()
--------------------------------------------------------------------------

    Molecular point group: c1

    Geometry (in Angstrom), charge = 0, multiplicity = 1:

       Center              X                  Y                   Z               Mass
    ------------   -----------------  -----------------  -----------------  -----------------
           H         -0.776898974844     2.482212536205    -0.751706121285     1.007825032070
           O         -1.219682974844     1.713958536205    -1.083543121285    15.994914619560
           C         -1.084490974844     0.659351536205    -0.168932121285    12.000000000000
           C          0.316638025156     0.075189536205    -0.204427121285    12.000000000000
           H         -1.324263974844     0.972907536205     0.843268878715     1.007825032070
           H         -1.799036974844    -0.099126463795    -0.456308121285     1.007825032070
           O          0.374477025156    -0.960836463795     0.724597878715    15.994914619560
           H          1.050493025156     0.847049536205     0.035716878715     1.007825032070
           H          0.537572025156    -0.283502463795    -1.207977121285     1.007825032070
           C          1.600806025156    -1.618188463795     0.780696878715    12.000000000000
           H          1.711013025156    -2.325423463795    -0.039244121285     1.007825032070
           H          2.376758025156    -0.869243463795     0.703997878715     1.007825032070
           H          1.720566025156    -2.156029463795     1.718873878715     1.007825032070

  Charge       = 0
  Multiplicity = 1
  Basis Set: 6-31G*
  Basis Set:

    Orbital Energies (a.u.)
    -----------------------

    Doubly Occupied:

       1A    -20.560857     2A    -20.560362     3A    -11.271625
       4A    -11.270480     5A    -11.269166     6A     -1.388517
       7A     -1.365360     8A     -1.018156     9A     -0.913286
      10A     -0.842869    11A     -0.709407    12A     -0.674937
      13A     -0.659557    14A     -0.637338    15A     -0.597198
      16A     -0.569169    17A     -0.547409    18A     -0.487781
      19A     -0.481802    20A     -0.438844    21A     -0.420609

  @DF-RHF Final Energy:  -267.94856741947336

   => Energetics <=

    Nuclear Repulsion Energy =            190.3116993338259135
    One-Electron Energy =                -743.1510904496166177
    Two-Electron Energy =                 284.8908236963172840
    DFT Exchange-Correlation Energy =       0.0000000000000000
    Empirical Dispersion Energy =           0.0000000000000000
    PCM Polarization Energy =               0.0000000000000000
    EFP Energy =                            0.0000000000000000
    Total Energy =                       -267.9485674194734202

  Mulliken Charges: (a.u.)
   Center  Symbol    Alpha    Beta     Spin     Total
       1     H     0.28126  0.28126  0.00000  0.43747
       2     O     4.37078  4.37078  0.00000 -0.74156
       3     C     3.00471  3.00471  0.00000 -0.00941
       4     C     2.99718  2.99718  0.00000  0.00565
       5     H     0.42218  0.42218  0.00000  0.15564
       6     H     0.40823  0.40823  0.00000  0.18354
       7     O     4.30867  4.30867  0.00000 -0.61733
       8     H     0.43708  0.43708  0.00000  0.12585
       9     H     0.42327  0.42327  0.00000  0.15345
      10     C     3.07801  3.07801  0.00000 -0.15601
      11     H     0.42584  0.42584  0.00000  0.14833
      12     H     0.43049  0.43049  0.00000  0.13902
      13     H     0.41232  0.41232  0.00000  0.17536

   Total alpha = 21.00000, Total beta = 21.00000, Total charge = -0.00000
