  ==> Input File <==

--------------------------------------------------------------------------
set {
	reference rhf
	basis 6-31G*
}

set_num_threads( 4 )
memory 2 gb

molecule MOL {
0 1

O	 0.984144	 1.673199	 0.482560
C	 0.439177	 1.206683	 1.430408
C	 -0.839417	 0.405252	 1.402127
O	 0.898595	 1.335092	 2.668722
C	 -1.412532	 0.227344	 -0.000452
H	 -0.631262	 -0.554599	 1.867007
H	 -1.549198	 0.903018	 2.057256
C	 -2.706999	 -0.587347	 -0.000541
H	 -0.673088	 -0.256487	 -0.631035
H	 -1.591898	 1.203300	 -0.440726
C	 -3.956778	 0.291888	 0.000910
H	 -2.726114	 -1.239230	 -0.871609
H	 -2.725217	 -1.240844	 0.869333
H	 -3.985213	 0.933254	 -0.875158
H	 -4.860123	 -0.309979	 0.000519
H	 -3.984618	 0.931166	 0.878514
C	 2.098211	 2.068568	 2.836278
H	 2.907980	 1.601628	 2.294310
H	 2.303499	 2.060594	 3.895401
H	 1.975186	 3.083388	 2.486261

	symmetry c1
}
set optking {
	frozen_dihedral = ("
		9 5 8 12
	")
}

ee = optimize('scf')
oeprop('DIPOLE', 'QUADRUPOLE', 'MULLIKEN_CHARGES')
f=open( 'psi4out.xyz', 'w' )
f.write( "20  " )
f.write( str(ee) + "\n" )
f.write( MOL.save_string_xyz() )
f.close()
--------------------------------------------------------------------------

    Molecular point group: c1
  Charge       = 0
  Multiplicity = 1
  Basis Set: 6-31G*
  Basis Set:
  @DF-RHF Final Energy:  -383.93731898616539
    Total Energy =                       -383.9373189861654510
    Molecular point group: c1
  Basis Set: 6-31G*
  Basis Set:
  Basis Set: 6-31G*
  Basis Set:
  @DF-RHF Final Energy:  -383.93761141864485
    Total Energy =                       -383.9376114186445648
  Basis Set: 6-31G*
  Basis Set:
  Basis Set: 6-31G*
  Basis Set:
  @DF-RHF Final Energy:  -383.93739844415910
    Total Energy =                       -383.9373984441594985
  Basis Set: 6-31G*
  Basis Set:
  Basis Set: 6-31G*
  Basis Set:
  @DF-RHF Final Energy:  -383.93768718633100
    Total Energy =                       -383.9376871863314591
  Basis Set: 6-31G*
  Basis Set:
  Basis Set: 6-31G*
  Basis Set:
  @DF-RHF Final Energy:  -383.93769218045514
    Total Energy =                       -383.9376921804552012
  Basis Set: 6-31G*
  Basis Set:
  Charge       = 0
  Multiplicity = 1
  Basis Set: 6-31G*
  Basis Set:

    Orbital Energies (a.u.)
    -----------------------

    Doubly Occupied:

       1A    -20.603806     2A    -20.545688     3A    -11.372411
       4A    -11.280977     5A    -11.236128     6A    -11.220081
       7A    -11.219040     8A    -11.212414     9A     -1.469505
      10A     -1.362973    11A     -1.087696    12A     -1.023135
      13A     -0.968535    14A     -0.890073    15A     -0.802917
      16A     -0.766830    17A     -0.700855    18A     -0.682707
      19A     -0.672556    20A     -0.631853    21A     -0.609808
      22A     -0.595400    23A     -0.572701    24A     -0.545813
      25A     -0.526996    26A     -0.523630    27A     -0.514139
      28A     -0.473912    29A     -0.472955    30A     -0.465756
      31A     -0.455595    32A     -0.437019

  @DF-RHF Final Energy:  -383.93769235770168

   => Energetics <=

    Nuclear Repulsion Energy =            383.4497741306429930
    One-Electron Energy =               -1282.8871247764889176
    Two-Electron Energy =                 515.4996582881442464
    DFT Exchange-Correlation Energy =       0.0000000000000000
    Empirical Dispersion Energy =           0.0000000000000000
    PCM Polarization Energy =               0.0000000000000000
    EFP Energy =                            0.0000000000000000
    Total Energy =                       -383.9376923577017351
    Molecular point group: c1
  Basis Set: 6-31G*
  Basis Set:

  -Total Gradient:
     Atom            X                  Y                   Z
    ------   -----------------  -----------------  -----------------
       1        0.000003396105     0.000001307086     0.000004171616
       2       -0.000006001676    -0.000007856868    -0.000001595746
       3       -0.000013718823     0.000006723030    -0.000003998480
       4        0.000006597626     0.000012922462    -0.000002143958
       5        0.001733273721    -0.003058273609     0.003958798429
       6        0.000001539425    -0.000002240489    -0.000008987171
       7        0.000001035019    -0.000009637523    -0.000010168841
       8       -0.002150373223     0.003753686615    -0.002990442768
       9       -0.001099624026     0.001937621111    -0.002810083798
      10       -0.000007877208     0.000010908774    -0.000007313232
      11       -0.000005480539    -0.000004837879    -0.000014549492
      12        0.001506248590    -0.002628888607     0.001868714750
      13        0.000008930230     0.000000916583     0.000010318690
      14        0.000013764142     0.000004284148     0.000011499871
      15       -0.000004720855    -0.000000797317    -0.000008183472
      16        0.000007822950    -0.000015113573    -0.000001170242
      17        0.000004582166    -0.000003475648     0.000004545037
      18        0.000000104974     0.000001052089     0.000000535927
      19        0.000001483118     0.000001671803     0.000000376820
      20       -0.000000981717     0.000000027813    -0.000000323939

  **** Optimization is complete! (in 6 steps) ****
    Final optimized geometry and variables:
    Molecular point group: c1

    Geometry (in Angstrom), charge = 0, multiplicity = 1:

    O            1.514049861502     0.831413287558    -0.635880172417
    C            0.974448269720     0.354445356931     0.309853351193
    C           -0.291088784289    -0.467384879356     0.277448068442
    O            1.429734567044     0.486832927999     1.549333773568
    C           -0.854692356383    -0.658460264161    -1.127243762780
    H           -0.069616051615    -1.422971245251     0.744365944521
    H           -1.010804055147     0.020182822634     0.929400053716
    C           -2.185417878081    -1.433402499450    -1.139336036526
    H           -0.121589977361    -1.153194898612    -1.754531665616
    H           -0.998390666351     0.316351195727    -1.583176685114
    C           -3.419551234850    -0.532945159402    -1.099289737429
    H           -2.223374134501    -2.076781063571    -2.013381211677
    H           -2.215487351373    -2.113478822580    -0.289881925680
    H           -3.462755122159     0.107511879734    -1.975109633972
    H           -4.332855586129    -1.119020635103    -1.070257105892
    H           -3.413359512496     0.108962909493    -0.222513060401
    C            2.617742663092     1.238077405229     1.720808308319
    H            3.435442432783     0.784919492273     1.179032904975
    H            2.821362958115     1.230498528273     2.780258585545
    H            2.479856653446     2.251810019215     1.373187104043

  Mulliken Charges: (a.u.)
   Center  Symbol    Alpha    Beta     Spin     Total
       1     O     4.28579  4.28579  0.00000 -0.57158
       2     C     2.60580  2.60580  0.00000  0.78839
       3     C     3.20838  3.20838  0.00000 -0.41676
       4     O     4.30720  4.30720  0.00000 -0.61439
       5     C     3.15585  3.15585  0.00000 -0.31171
       6     H     0.40022  0.40022  0.00000  0.19955
       7     H     0.40039  0.40039  0.00000  0.19921
       8     C     3.15829  3.15829  0.00000 -0.31659
       9     H     0.40959  0.40959  0.00000  0.18082
      10     H     0.41005  0.41005  0.00000  0.17990
      11     C     3.23956  3.23956  0.00000 -0.47912
      12     H     0.41669  0.41669  0.00000  0.16663
      13     H     0.42296  0.42296  0.00000  0.15407
      14     H     0.41883  0.41883  0.00000  0.16235
      15     H     0.41863  0.41863  0.00000  0.16274
      16     H     0.42281  0.42281  0.00000  0.15437
      17     C     3.09245  3.09245  0.00000 -0.18491
      18     H     0.40903  0.40903  0.00000  0.18193
      19     H     0.40842  0.40842  0.00000  0.18316
      20     H     0.40904  0.40904  0.00000  0.18191

   Total alpha = 32.00000, Total beta = 32.00000, Total charge = -0.00000
