                              Psi4 1.0.54 Driver

  ==> Input File <==

--------------------------------------------------------------------------
set {
	reference rhf
	basis cc-pvtz
}

set_num_threads( 4 )
memory 2 gb

molecule MOL {
0 1

H	 2.614283	 2.028610	 0.296620
O	 3.358864	 1.662087	 -0.142800
C	 3.565468	 0.338079	 0.273842
C	 2.533667	 -0.637565	 -0.272227
H	 4.548038	 0.064914	 -0.086598
H	 3.593945	 0.282242	 1.360360
C	 1.114816	 -0.402372	 0.240993
H	 2.544552	 -0.580764	 -1.356576
H	 2.850574	 -1.642962	 -0.005497
C	 0.113298	 -1.420414	 -0.302504
H	 0.796373	 0.598427	 -0.031033
H	 1.113377	 -0.446476	 1.328807
C	 -0.789698	 -0.903446	 -1.423930
H	 0.650885	 -2.298948	 -0.650937
H	 -0.515713	 -1.756910	 0.516999
C	 -0.074003	 -0.585010	 -2.735464
H	 -1.552501	 -1.651990	 -1.619740
H	 -1.318674	 -0.017892	 -1.078770
C	 -1.029014	 -0.168655	 -3.851265
H	 0.490989	 -1.457716	 -3.055836
H	 0.651846	 0.207856	 -2.582137
C	 -0.317395	 0.153622	 -5.161085
H	 -1.751240	 -0.962663	 -4.020141
H	 -1.600299	 0.698044	 -3.529507
H	 0.237570	 -0.704202	 -5.526308
H	 -1.023419	 0.442444	 -5.931292
H	 0.385582	 0.970398	 -5.034386

	symmetry c1
}
set optking {
	frozen_dihedral = ("
		14 10 7 4
	")
}

ee,wfn = optimize('scf', return_wfn=True)
oeprop( wfn, 'DIPOLE', 'QUADRUPOLE', 'MULLIKEN_CHARGES')
f=open( 'psi4out.xyz', 'w' )
f.write( "27  " )
f.write( str(ee) + "\n" )
f.write( MOL.save_string_xyz() )
f.close()
--------------------------------------------------------------------------

    Molecular point group: c1
  Charge       = 0
  Multiplicity = 1
  Basis Set: CC-PVTZ
  Basis Set:
  @DF-RHF Final Energy:  -388.42273691812579
    Total Energy =                       -388.4227369181255654
    Molecular point group: c1
  Basis Set: CC-PVTZ
  Basis Set:
  Basis Set: CC-PVTZ
  Basis Set:
  @DF-RHF Final Energy:  -388.42308464279108
    Total Energy =                       -388.4230846427910819
  Basis Set: CC-PVTZ
  Basis Set:
  Basis Set: CC-PVTZ
  Basis Set:
  @DF-RHF Final Energy:  -388.42316555727604
    Total Energy =                       -388.4231655572763202
  Basis Set: CC-PVTZ
  Basis Set:
  Basis Set: CC-PVTZ
  Basis Set:
  @DF-RHF Final Energy:  -388.42319099423298
    Total Energy =                       -388.4231909942333232
  Basis Set: CC-PVTZ
  Basis Set:
  Basis Set: CC-PVTZ
  Basis Set:
  @DF-RHF Final Energy:  -388.42319930690422
    Total Energy =                       -388.4231993069047348
  Basis Set: CC-PVTZ
  Basis Set:
  Charge       = 0
  Multiplicity = 1
  Basis Set: CC-PVTZ
  Basis Set:

    Orbital Energies (a.u.)
    -----------------------

    Doubly Occupied:

       1A    -20.545701     2A    -11.264870     3A    -11.217368
       4A    -11.214416     5A    -11.212870     6A    -11.212159
       7A    -11.211692     8A    -11.209376     9A    -11.204671
      10A     -1.363399    11A     -1.094408    12A     -1.059676
      13A     -1.010906    14A     -0.948617    15A     -0.888491
      16A     -0.824004    17A     -0.795479    18A     -0.777940
      19A     -0.697258    20A     -0.648111    21A     -0.633547
      22A     -0.617261    23A     -0.610756    24A     -0.583329
      25A     -0.571587    26A     -0.552824    27A     -0.545138
      28A     -0.522901    29A     -0.508218    30A     -0.500186
      31A     -0.482443    32A     -0.471981    33A     -0.467079
      34A     -0.458892    35A     -0.454284    36A     -0.437284
      37A     -0.424983

  @DF-RHF Final Energy:  -388.42319957678671

   => Energetics <=

    Nuclear Repulsion Energy =            471.1796442711487316
    One-Electron Energy =               -1460.7174614371292591
    Two-Electron Energy =                 601.1146175891940402
    DFT Exchange-Correlation Energy =       0.0000000000000000
    Empirical Dispersion Energy =           0.0000000000000000
    PCM Polarization Energy =               0.0000000000000000
    EFP Energy =                            0.0000000000000000
    Total Energy =                       -388.4231995767864873
    Molecular point group: c1
  Basis Set: CC-PVTZ
  Basis Set:

  -Total Gradient:
     Atom            X                  Y                   Z
    ------   -----------------  -----------------  -----------------
       1        0.000009335990    -0.000022973318    -0.000002096689
       2        0.000013343647    -0.000014250034    -0.000004375883
       3        0.000016151980     0.000021920971     0.000005850973
       4        0.000097486848    -0.000356738840     0.000552158187
       5        0.000002785218     0.000028857353     0.000001640013
       6        0.000002559312    -0.000010605541    -0.000009651945
       7       -0.000148359389     0.000627877216    -0.000905790585
       8       -0.000017580350    -0.000000664522    -0.000003816588
       9       -0.000011053033     0.000009175200     0.000000067028
      10       -0.000050856236    -0.000580940519     0.001159679700
      11        0.000050247317    -0.000010929255    -0.000001144246
      12        0.000019954527     0.000014231989     0.000007076014
      13       -0.000006996974    -0.000086833417     0.000006106208
      14        0.000044032925     0.000379195056    -0.000810263075
      15       -0.000034986796    -0.000030694768    -0.000036592909
      16        0.000013957469     0.000035219408     0.000028832471
      17       -0.000017139701     0.000030820491    -0.000007426850
      18        0.000058640671    -0.000023383838    -0.000005004255
      19        0.000003647964    -0.000011260203     0.000022019757
      20       -0.000035183996     0.000076584287     0.000038101186
      21       -0.000080900365    -0.000046196822    -0.000038982768
      22        0.000008020184    -0.000010148434    -0.000035423728
      23        0.000048196799     0.000051967064     0.000024174078
      24        0.000054928580    -0.000062163761    -0.000014972771
      25       -0.000035098240     0.000062570086     0.000021559516
      26        0.000051782350    -0.000015544521     0.000021547182
      27       -0.000056916701    -0.000055091326    -0.000013270022

  **** Optimization is complete! (in 6 steps) ****
    Final optimized geometry and variables:
    Molecular point group: c1

    Geometry (in Angstrom), charge = 0, multiplicity = 1:

    H            1.644158594599     2.171090880530     1.684381690459
    O            2.391020399098     1.788414462672     1.263399856076
    C            2.597650743928     0.482036976997     1.733671125803
    C            1.577936267305    -0.517211557489     1.208756257060
    H            3.586561950025     0.200462508718     1.397890596037
    H            2.610768259783     0.468112753304     2.821784558728
    C            0.154615146865    -0.280281444896     1.714236255231
    H            1.602328128845    -0.495946010450     0.124951266103
    H            1.896903426690    -1.511755450256     1.510674265308
    C           -0.886092671091    -1.279267935078     1.170606670594
    H           -0.161852192712     0.729381073265     1.469325462108
    H            0.169747838148    -0.336191787107     2.799107659333
    C           -1.787210019675    -0.740553497268     0.056103811001
    H           -0.378947809633    -2.171032332499     0.812707051832
    H           -1.525682607471    -1.602932120213     1.984297817769
    C           -1.072611749696    -0.370825872198    -1.241636929293
    H           -2.542329824932    -1.490407492225    -0.164175364371
    H           -2.325645113778     0.128625891541     0.427025464851
    C           -2.028716476627     0.094813567982    -2.336618754046
    H           -0.511703657679    -1.230947977358    -1.600118952600
    H           -0.344052123695     0.412274487251    -1.055712006542
    C           -1.319492146101     0.462208804329    -3.635742039599
    H           -2.757749400913    -0.686540642870    -2.532901239851
    H           -2.591858433343     0.952731560440    -1.979397895105
    H           -0.774581641636    -0.385670938608    -4.037221498530
    H           -2.025740338381     0.788054289530    -4.390732537590
    H           -0.608021196141     1.265994753785    -3.479451594186

  Mulliken Charges: (a.u.)
   Center  Symbol    Alpha    Beta     Spin     Total
       1     H     0.39265  0.39265  0.00000  0.21470
       2     O     4.20565  4.20565  0.00000 -0.41130
       3     C     2.98113  2.98113  0.00000  0.03775
       4     C     3.09004  3.09004  0.00000 -0.18008
       5     H     0.44800  0.44800  0.00000  0.10401
       6     H     0.46871  0.46871  0.00000  0.06257
       7     C     3.11751  3.11751  0.00000 -0.23501
       8     H     0.44781  0.44781  0.00000  0.10439
       9     H     0.45363  0.45363  0.00000  0.09273
      10     C     3.10400  3.10400  0.00000 -0.20800
      11     H     0.45600  0.45600  0.00000  0.08800
      12     H     0.44355  0.44355  0.00000  0.11290
      13     C     3.09432  3.09432  0.00000 -0.18864
      14     H     0.45352  0.45352  0.00000  0.09297
      15     H     0.44202  0.44202  0.00000  0.11597
      16     C     3.09495  3.09495  0.00000 -0.18991
      17     H     0.44858  0.44858  0.00000  0.10283
      18     H     0.45454  0.45454  0.00000  0.09093
      19     C     3.08340  3.08340  0.00000 -0.16680
      20     H     0.45337  0.45337  0.00000  0.09326
      21     H     0.44897  0.44897  0.00000  0.10207
      22     C     3.15038  3.15038  0.00000 -0.30076
      23     H     0.45440  0.45440  0.00000  0.09119
      24     H     0.45510  0.45510  0.00000  0.08979
      25     H     0.45532  0.45532  0.00000  0.08936
      26     H     0.44863  0.44863  0.00000  0.10273
      27     H     0.45382  0.45382  0.00000  0.09236

   Total alpha = 37.00000, Total beta = 37.00000, Total charge = -0.00000

*** Psi4 exiting successfully. Buy a developer a beer!
