  ==> Input File <==

--------------------------------------------------------------------------
set {
	reference rhf
	basis 6-31G*
}

set_num_threads( 4 )
memory 2 gb

molecule MOL {
0 1

H	 -3.042581	 -0.665861	 0.004336
O	 -2.245037	 -1.176175	 0.000806
C	 -1.162163	 -0.365336	 0.001020
C	 -1.103606	 0.796389	 -0.747510
C	 -0.084998	 -0.745974	 0.792007
H	 -1.936665	 1.091288	 -1.363155
C	 0.044623	 1.574115	 -0.696294
H	 -0.163744	 -1.655769	 1.358742
C	 1.059064	 0.030939	 0.843413
H	 0.094492	 2.476923	 -1.278953
C	 1.118070	 1.201745	 0.087303
C	 2.221640	 -0.369349	 1.721642
H	 2.002251	 1.813966	 0.114509
H	 3.166267	 -0.233903	 1.205768
H	 2.149574	 -1.407022	 2.024797
H	 2.251006	 0.237990	 2.621988

	symmetry c1
}
set optking {
	frozen_dihedral = ("
		5 3 2 1
	")
}

ee = optimize('scf')
oeprop('DIPOLE', 'QUADRUPOLE', 'MULLIKEN_CHARGES')
f=open( 'psi4out.xyz', 'w' )
f.write( "16  " )
f.write( str(ee) + "\n" )
f.write( MOL.save_string_xyz() )
f.close()
--------------------------------------------------------------------------

    Molecular point group: c1
  Charge       = 0
  Multiplicity = 1
  Basis Set: 6-31G*
  Basis Set:
  @DF-RHF Final Energy:  -344.59297194246466
    Total Energy =                       -344.5929719424647715
    Molecular point group: c1
  Basis Set: 6-31G*
  Basis Set:
  Basis Set: 6-31G*
  Basis Set:
  @DF-RHF Final Energy:  -344.59308744935441
    Total Energy =                       -344.5930874493544138
  Basis Set: 6-31G*
  Basis Set:
  Basis Set: 6-31G*
  Basis Set:
  @DF-RHF Final Energy:  -344.59310477367944
    Total Energy =                       -344.5931047736794426
  Basis Set: 6-31G*
  Basis Set:
  Basis Set: 6-31G*
  Basis Set:
  @DF-RHF Final Energy:  -344.59310661707184
    Total Energy =                       -344.5931066170721238
  Basis Set: 6-31G*
  Basis Set:
  Charge       = 0
  Multiplicity = 1
  Basis Set: 6-31G*
  Basis Set:

    Orbital Energies (a.u.)
    -----------------------

    Doubly Occupied:

       1A    -20.582568     2A    -11.292025     3A    -11.241322
       4A    -11.234237     5A    -11.222629     6A    -11.220628
       7A    -11.218367     8A    -11.217466     9A     -1.399606
      10A     -1.149606    11A     -1.042892    12A     -1.004185
      13A     -0.936020    14A     -0.823368    15A     -0.817804
      16A     -0.713184    17A     -0.678748    18A     -0.652963
      19A     -0.614943    20A     -0.589671    21A     -0.573995
      22A     -0.568144    23A     -0.553737    24A     -0.522529
      25A     -0.504075    26A     -0.481472    27A     -0.465770
      28A     -0.328612    29A     -0.310809

  @DF-RHF Final Energy:  -344.59310699345781

   => Energetics <=

    Nuclear Repulsion Energy =            345.3040530471884040
    One-Electron Energy =               -1151.8715708339805133
    Two-Electron Energy =                 461.9744107933343003
    DFT Exchange-Correlation Energy =       0.0000000000000000
    Empirical Dispersion Energy =           0.0000000000000000
    PCM Polarization Energy =               0.0000000000000000
    EFP Energy =                            0.0000000000000000
    Total Energy =                       -344.5931069934578090
    Molecular point group: c1
  Basis Set: 6-31G*
  Basis Set:

  -Total Gradient:
     Atom            X                  Y                   Z
    ------   -----------------  -----------------  -----------------
       1       -0.000030425927    -0.000019292710     0.002757913278
       2       -0.000385208338     0.000449315299    -0.002674853389
       3        0.001216257709    -0.001357267472    -0.001657427423
       4       -0.000056085436    -0.000090222810     0.000006322170
       5       -0.000752603954     0.000997860858     0.001562356848
       6       -0.000007295623     0.000003784910    -0.000008245799
       7        0.000081740991     0.000042051595     0.000056553374
       8        0.000002194695    -0.000004588356    -0.000008850467
       9       -0.000044017019    -0.000073291020     0.000033328471
      10        0.000000469289    -0.000013023930    -0.000001678789
      11       -0.000042960130     0.000051654661    -0.000065171145
      12        0.000001046811     0.000016928019    -0.000002020551
      13        0.000011757565    -0.000004795119     0.000007668516
      14        0.000002934906    -0.000003102185    -0.000001250028
      15       -0.000002995071     0.000005010110     0.000000024588
      16        0.000005189534    -0.000001021851    -0.000004669654

  **** Optimization is complete! (in 5 steps) ****
    Final optimized geometry and variables:
    Molecular point group: c1

    Geometry (in Angstrom), charge = 0, multiplicity = 1:

    H           -2.988073249142    -0.739102707309    -0.280380584468
    O           -2.193944882229    -1.254923126215    -0.279158596353
    C           -1.101916769519    -0.442543413069    -0.260788584816
    C           -1.046189035593     0.719168161214    -1.009831860364
    C           -0.028835367852    -0.819367425322     0.533184325494
    H           -1.877373502971     1.001137848226    -1.632650318612
    C            0.098911293525     1.499551189475    -0.957427619446
    H           -0.110620364411    -1.724846004853     1.106416748527
    C            1.121337376846    -0.047061821999     0.577184703792
    H            0.149459275144     2.403010671236    -1.538974891019
    C            1.175624693273     1.122846094282    -0.177430934564
    C            2.285827220929    -0.447042188831     1.453315589636
    H            2.060143653895     1.735068247743    -0.152880811122
    H            3.229129462549    -0.315805372466     0.933831881899
    H            2.212426661707    -1.483952781117     1.759080867752
    H            2.320664242874     0.162151473922     2.352279400635

  Mulliken Charges: (a.u.)
   Center  Symbol    Alpha    Beta     Spin     Total
       1     H     0.27232  0.27232  0.00000  0.45537
       2     O     4.38365  4.38365  0.00000 -0.76731
       3     C     2.79875  2.79875  0.00000  0.40251
       4     C     3.14032  3.14032  0.00000 -0.28065
       5     C     3.13761  3.13761  0.00000 -0.27521
       6     H     0.40184  0.40184  0.00000  0.19632
       7     C     3.08958  3.08958  0.00000 -0.17916
       8     H     0.39458  0.39458  0.00000  0.21085
       9     C     2.97140  2.97140  0.00000  0.05719
      10     H     0.39881  0.39881  0.00000  0.20239
      11     C     3.12110  3.12110  0.00000 -0.24219
      12     C     3.25443  3.25443  0.00000 -0.50886
      13     H     0.40303  0.40303  0.00000  0.19394
      14     H     0.41161  0.41161  0.00000  0.17678
      15     H     0.41151  0.41151  0.00000  0.17698
      16     H     0.40947  0.40947  0.00000  0.18106

   Total alpha = 29.00000, Total beta = 29.00000, Total charge = -0.00000
