  ==> Input File <==

--------------------------------------------------------------------------
set {
	reference rhf
	basis 6-31G*
}

set_num_threads( 4 )
memory 2 gb

molecule MOL {
0 1

H	 -3.042581	 -0.665861	 0.004336
O	 -2.245037	 -1.176175	 0.000806
C	 -1.162163	 -0.365336	 0.001020
C	 -1.016199	 0.679222	 0.895962
C	 -0.180335	 -0.618191	 -0.949196
H	 -1.777621	 0.878093	 1.631257
C	 0.123245	 1.468712	 0.830503
H	 -0.327391	 -1.436430	 -1.630355
C	 0.956162	 0.168854	 -1.012809
H	 0.238900	 2.283326	 1.523372
C	 1.102226	 1.222957	 -0.110866
C	 2.035594	 -0.119894	 -2.029939
H	 1.978707	 1.845478	 -0.150591
H	 2.396555	 0.795019	 -2.487573
H	 1.673468	 -0.769905	 -2.817474
H	 2.885464	 -0.608225	 -1.561324

	symmetry c1
}
set optking {
	frozen_dihedral = ("
		5 3 2 1
	")
}

ee = optimize('scf')
oeprop('DIPOLE', 'QUADRUPOLE', 'MULLIKEN_CHARGES')
f=open( 'psi4out.xyz', 'w' )
f.write( "16  " )
f.write( str(ee) + "\n" )
f.write( MOL.save_string_xyz() )
f.close()
--------------------------------------------------------------------------

    Molecular point group: c1
  Charge       = 0
  Multiplicity = 1
  Basis Set: 6-31G*
  Basis Set:
  @DF-RHF Final Energy:  -344.59209060989423
    Total Energy =                       -344.5920906098941714
    Molecular point group: c1
  Basis Set: 6-31G*
  Basis Set:
  Basis Set: 6-31G*
  Basis Set:
  @DF-RHF Final Energy:  -344.59230688000213
    Total Energy =                       -344.5923068800021838
  Basis Set: 6-31G*
  Basis Set:
  Basis Set: 6-31G*
  Basis Set:
  @DF-RHF Final Energy:  -344.59233499928052
    Total Energy =                       -344.5923349992805242
  Basis Set: 6-31G*
  Basis Set:
  Basis Set: 6-31G*
  Basis Set:
  @DF-RHF Final Energy:  -344.59233838045401
    Total Energy =                       -344.5923383804540094
  Basis Set: 6-31G*
  Basis Set:
  @DF-RHF Final Energy:  -344.59233962328250
    Total Energy =                       -344.5923396232826690
  @DF-RHF Final Energy:  -344.59234098284179
    Total Energy =                       -344.5923409828418471
  @DF-RHF Final Energy:  -344.59234298551979
    Total Energy =                       -344.5923429855203040
  @DF-RHF Final Energy:  -344.59235174244407
    Total Energy =                       -344.5923517424440661
  Basis Set: 6-31G*
  Basis Set:
  @DF-RHF Final Energy:  -344.59235756702452
    Total Energy =                       -344.5923575670246350
  Basis Set: 6-31G*
  Basis Set:
  Basis Set: 6-31G*
  Basis Set:
  @DF-RHF Final Energy:  -344.59236238568678
    Total Energy =                       -344.5923623856867835
  Basis Set: 6-31G*
  Basis Set:
  Basis Set: 6-31G*
  Basis Set:
  @DF-RHF Final Energy:  -344.59236498373804
    Total Energy =                       -344.5923649837380935
  Basis Set: 6-31G*
  Basis Set:
  Charge       = 0
  Multiplicity = 1
  Basis Set: 6-31G*
  Basis Set:

    Orbital Energies (a.u.)
    -----------------------

    Doubly Occupied:

       1A    -20.580078     2A    -11.290440     3A    -11.241172
       4A    -11.233821     5A    -11.222933     6A    -11.220828
       7A    -11.219709     8A    -11.217781     9A     -1.396464
      10A     -1.149721    11A     -1.042969    12A     -1.003962
      13A     -0.935980    14A     -0.823919    15A     -0.814983
      16A     -0.713492    17A     -0.677923    18A     -0.653838
      19A     -0.615863    20A     -0.589602    21A     -0.573886
      22A     -0.568355    23A     -0.552310    24A     -0.517387
      25A     -0.504510    26A     -0.481153    27A     -0.464691
      28A     -0.327855    29A     -0.313871

  @DF-RHF Final Energy:  -344.59236544296391

   => Energetics <=

    Nuclear Repulsion Energy =            345.2095311983177908
    One-Electron Energy =               -1151.7047994548950101
    Two-Electron Energy =                 461.9029028136133661
    DFT Exchange-Correlation Energy =       0.0000000000000000
    Empirical Dispersion Energy =           0.0000000000000000
    PCM Polarization Energy =               0.0000000000000000
    EFP Energy =                            0.0000000000000000
    Total Energy =                       -344.5923654429638532
    Molecular point group: c1
  Basis Set: 6-31G*
  Basis Set:

  -Total Gradient:
     Atom            X                  Y                   Z
    ------   -----------------  -----------------  -----------------
       1       -0.000064049207    -0.000115610904    -0.002553648376
       2       -0.000371270032     0.000617265969     0.002613905091
       3        0.001220184821    -0.001435912014     0.001125481018
       4       -0.000022053589    -0.000074768532     0.000010966247
       5       -0.000809872438     0.001013765544    -0.001211540867
       6        0.000028582838    -0.000022783387     0.000020073113
       7        0.000041042240    -0.000006218172    -0.000041787321
       8        0.000010441864    -0.000005698895     0.000033601479
       9       -0.000062766726     0.000039274583    -0.000066252496
      10       -0.000002088318     0.000003640725     0.000004964273
      11        0.000007094093     0.000007068786     0.000066646546
      12        0.000014383611    -0.000002955023     0.000004669558
      13       -0.000005788932    -0.000003124878    -0.000010374322
      14        0.000002593002    -0.000003833817     0.000001120216
      15        0.000004063118    -0.000002359371     0.000005261659
      16        0.000009503657    -0.000007750613    -0.000003085820

  **** Optimization is complete! (in 12 steps) ****
    Final optimized geometry and variables:
    Molecular point group: c1

    Geometry (in Angstrom), charge = 0, multiplicity = 1:

    H           -2.936082613718    -0.845138056223     0.378085393196
    O           -2.129091454487    -1.340969504842     0.381606885516
    C           -1.056720977095    -0.499406200339     0.324422266787
    C           -0.936996785199     0.573736047153     1.193733243832
    C           -0.077747643914    -0.749662382078    -0.620201325634
    H           -1.698615151005     0.754942101829     1.931700417494
    C            0.175160291253     1.391500761477     1.102385858951
    H           -0.207184082343    -1.586262282181    -1.283030730799
    C            1.048499497243     0.060590395819    -0.703889381994
    H            0.274301279391     2.228328416380     1.770870501339
    C            1.163228376793     1.139398176092     0.164340311328
    C            2.128995365241    -0.242817558223    -1.715820473439
    H            2.023145573494     1.783195859435     0.108223057150
    H            2.750649616069     0.625498084337    -1.900965127222
    H            1.704284342153    -0.560229174841    -2.661982766369
    H            2.774459624641    -1.042339448485    -1.362686375430

  Mulliken Charges: (a.u.)
   Center  Symbol    Alpha    Beta     Spin     Total
       1     H     0.27226  0.27226  0.00000  0.45547
       2     O     4.38545  4.38545  0.00000 -0.77089
       3     C     2.80394  2.80394  0.00000  0.39212
       4     C     3.13547  3.13547  0.00000 -0.27094
       5     C     3.13329  3.13329  0.00000 -0.26659
       6     H     0.40027  0.40027  0.00000  0.19945
       7     C     3.09051  3.09051  0.00000 -0.18102
       8     H     0.39504  0.39504  0.00000  0.20993
       9     C     2.97306  2.97306  0.00000  0.05389
      10     H     0.39870  0.39870  0.00000  0.20260
      11     C     3.12246  3.12246  0.00000 -0.24493
      12     C     3.25379  3.25379  0.00000 -0.50758
      13     H     0.40272  0.40272  0.00000  0.19456
      14     H     0.41300  0.41300  0.00000  0.17399
      15     H     0.41176  0.41176  0.00000  0.17647
      16     H     0.40827  0.40827  0.00000  0.18345

   Total alpha = 29.00000, Total beta = 29.00000, Total charge =  0.00000
