  ==> Input File <==

--------------------------------------------------------------------------
set {
	reference rhf
	basis 6-31G*
}

set_num_threads( 1 )
memory 2 gb

molecule MOL {
0 1

O	 -2.821601	 1.309235	 -0.001213
C	 -2.668563	 0.129746	 -0.000350
C	 -3.801572	 -0.864014	 -0.000442
O	 -1.481751	 -0.454642	 0.000584
H	 -4.417280	 -0.689587	 -0.874708
H	 -3.443784	 -1.883046	 -0.000565
H	 -4.417179	 -0.689832	 0.873954
C	 -0.334255	 0.388708	 0.000906
C	 0.891947	 -0.504646	 0.000751
H	 -0.365390	 1.025305	 -0.873475
H	 -0.365484	 1.024911	 0.875569
C	 2.191998	 0.301789	 0.000897
H	 0.855148	 -1.151283	 -0.871571
H	 0.855132	 -1.151660	 0.872805
C	 2.991037	 0.144395	 -1.294128
H	 1.966523	 1.355393	 0.156346
H	 2.810484	 -0.005300	 0.842475
C	 4.288861	 0.950942	 -1.294463
H	 2.374587	 0.451173	 -2.136121
H	 3.219207	 -0.907633	 -1.449840
H	 4.091132	 2.012297	 -1.174289
H	 4.832453	 0.819226	 -2.224728
H	 4.942229	 0.643062	 -0.483087

	symmetry c1
}
set optking {
	frozen_dihedral = ("
		13 9 8 10,
		2 4 8 10,
		19 15 12 16,
		1 2 4 8
	")
}

ee = energy('scf')
oeprop('DIPOLE', 'QUADRUPOLE', 'MULLIKEN_CHARGES')
f=open( 'psi4out.xyz', 'w' )
f.write( "23  " )
f.write( str(ee) + "\n" )
f.write( MOL.save_string_xyz() )
f.close()
--------------------------------------------------------------------------

    Molecular point group: c1

    Geometry (in Angstrom), charge = 0, multiplicity = 1:

       Center              X                  Y                   Z               Mass
    ------------   -----------------  -----------------  -----------------  -----------------
           O         -2.721067889685     1.147113681083     0.287565088048    15.994914619560
           C         -2.568029889685    -0.032375318917     0.288428088048    12.000000000000
           C         -3.701038889685    -1.026135318917     0.288336088048    12.000000000000
           O         -1.381217889685    -0.616763318917     0.289362088048    15.994914619560
           H         -4.316746889685    -0.851708318917    -0.585929911952     1.007825032070
           H         -3.343250889685    -2.045167318917     0.288213088048     1.007825032070
           H         -4.316645889685    -0.851953318917     1.162732088048     1.007825032070
           C         -0.233721889685     0.226586681083     0.289684088048    12.000000000000
           C          0.992480110315    -0.666767318917     0.289529088048    12.000000000000
           H         -0.264856889685     0.863183681083    -0.584696911952     1.007825032070
           H         -0.264950889685     0.862789681083     1.164347088048     1.007825032070
           C          2.292531110315     0.139667681083     0.289675088048    12.000000000000
           H          0.955681110315    -1.313404318917    -0.582792911952     1.007825032070
           H          0.955665110315    -1.313781318917     1.161583088048     1.007825032070
           C          3.091570110315    -0.017726318917    -1.005349911952    12.000000000000
           H          2.067056110315     1.193271681083     0.445124088048     1.007825032070
           H          2.911017110315    -0.167421318917     1.131253088048     1.007825032070
           C          4.389394110315     0.788820681083    -1.005684911952    12.000000000000
           H          2.475120110315     0.289051681083    -1.847342911952     1.007825032070
           H          3.319740110315    -1.069754318917    -1.161061911952     1.007825032070
           H          4.191665110315     1.850175681083    -0.885510911952     1.007825032070
           H          4.932986110315     0.657104681083    -1.935949911952     1.007825032070
           H          5.042762110315     0.480940681083    -0.194308911952     1.007825032070

  Charge       = 0
  Multiplicity = 1
  Basis Set: 6-31G*
  Basis Set:

    Orbital Energies (a.u.)
    -----------------------

    Doubly Occupied:

       1A    -20.602832     2A    -20.540597     3A    -11.374093
       4A    -11.282032     5A    -11.232342     6A    -11.223034
       7A    -11.222443     8A    -11.221668     9A    -11.212364
      10A     -1.467966    11A     -1.360766    12A     -1.094798
      13A     -1.041452    14A     -1.003064    15A     -0.930731
      16A     -0.843748    17A     -0.800454    18A     -0.777129
      19A     -0.688719    20A     -0.684891    21A     -0.672229
      22A     -0.636334    23A     -0.613949    24A     -0.586188
      25A     -0.580045    26A     -0.571954    27A     -0.560135
      28A     -0.532586    29A     -0.525853    30A     -0.501644
      31A     -0.496825    32A     -0.478947    33A     -0.468422
      34A     -0.461926    35A     -0.449653    36A     -0.435436

  @DF-RHF Final Energy:  -422.97446789371776

   => Energetics <=

    Nuclear Repulsion Energy =            452.5177301356199564
    One-Electron Energy =               -1472.6298952733061469
    Two-Electron Energy =                 597.1376972439660449
    DFT Exchange-Correlation Energy =       0.0000000000000000
    Empirical Dispersion Energy =           0.0000000000000000
    PCM Polarization Energy =               0.0000000000000000
    EFP Energy =                            0.0000000000000000
    Total Energy =                       -422.9744678937200888

  Mulliken Charges: (a.u.)
   Center  Symbol    Alpha    Beta     Spin     Total
       1     O     4.28395  4.28395  0.00000 -0.56791
       2     C     2.61554  2.61554  0.00000  0.76893
       3     C     3.28777  3.28777  0.00000 -0.57555
       4     O     4.31233  4.31233  0.00000 -0.62466
       5     H     0.39753  0.39753  0.00000  0.20495
       6     H     0.39984  0.39984  0.00000  0.20032
       7     H     0.39752  0.39752  0.00000  0.20497
       8     C     3.00034  3.00034  0.00000 -0.00067
       9     C     3.16548  3.16548  0.00000 -0.33097
      10     H     0.41062  0.41062  0.00000  0.17876
      11     H     0.40991  0.40991  0.00000  0.18018
      12     C     3.16375  3.16375  0.00000 -0.32749
      13     H     0.41154  0.41154  0.00000  0.17691
      14     H     0.41186  0.41186  0.00000  0.17628
      15     C     3.15365  3.15365  0.00000 -0.30730
      16     H     0.41883  0.41883  0.00000  0.16234
      17     H     0.41684  0.41684  0.00000  0.16633
      18     C     3.24047  3.24047  0.00000 -0.48093
      19     H     0.42188  0.42188  0.00000  0.15623
      20     H     0.42062  0.42062  0.00000  0.15876
      21     H     0.42060  0.42060  0.00000  0.15881
      22     H     0.41810  0.41810  0.00000  0.16380
      23     H     0.42104  0.42104  0.00000  0.15791

   Total alpha = 36.00000, Total beta = 36.00000, Total charge = -0.00000
