  ==> Input File <==

--------------------------------------------------------------------------
set {
	reference rhf
	basis cc-pvtz
}

set_num_threads( 4 )
memory 2 gb

molecule MOL {
0 1

H	 1.053009	 1.829246	 -0.266700
O	 0.237489	 1.351646	 -0.283813
C	 0.489979	 0.078084	 0.002623
C	 -0.763662	 -0.754014	 0.000816
O	 1.581950	 -0.312346	 0.233001
C	 -2.038001	 0.074705	 -0.000833
H	 -0.712945	 -1.405886	 -0.864342
H	 -0.715137	 -1.405770	 0.866182
H	 -2.087267	 0.710831	 -0.874232
H	 -2.903419	 -0.576199	 -0.001922
H	 -2.089467	 0.710909	 0.872389

	symmetry c1
}
set optking {
	frozen_dihedral = ("
		2 3 4 7
	")
}

ee = optimize('scf')
oeprop('DIPOLE', 'QUADRUPOLE', 'MULLIKEN_CHARGES')
f=open( 'psi4out.xyz', 'w' )
f.write( "11  " )
f.write( str(ee) + "\n" )
f.write( MOL.save_string_xyz() )
f.close()
--------------------------------------------------------------------------

    Molecular point group: c1
  Charge       = 0
  Multiplicity = 1
  Basis Set: CC-PVTZ
  Basis Set:
  @DF-RHF Final Energy:  -266.94942889255901
    Total Energy =                       -266.9494288925587853
    Molecular point group: c1
  Basis Set: CC-PVTZ
  Basis Set:
  Basis Set: CC-PVTZ
  Basis Set:
  @DF-RHF Final Energy:  -266.95011956899623
    Total Energy =                       -266.9501195689962856
  Basis Set: CC-PVTZ
  Basis Set:
  Basis Set: CC-PVTZ
  Basis Set:
  @DF-RHF Final Energy:  -266.94954123875573
    Total Energy =                       -266.9495412387557849
  Basis Set: CC-PVTZ
  Basis Set:
  Basis Set: CC-PVTZ
  Basis Set:
  @DF-RHF Final Energy:  -266.95058282102718
    Total Energy =                       -266.9505828210271829
  Basis Set: CC-PVTZ
  Basis Set:
  Basis Set: CC-PVTZ
  Basis Set:
  @DF-RHF Final Energy:  -266.95059913093291
    Total Energy =                       -266.9505991309329147
  Basis Set: CC-PVTZ
  Basis Set:
  Charge       = 0
  Multiplicity = 1
  Basis Set: CC-PVTZ
  Basis Set:

    Orbital Energies (a.u.)
    -----------------------

    Doubly Occupied:

       1A    -20.607859     2A    -20.537255     3A    -11.374966
       4A    -11.243208     5A    -11.223388     6A     -1.479852
       7A     -1.368866     8A     -1.067480     9A     -0.910922
      10A     -0.826820    11A     -0.705977    12A     -0.677672
      13A     -0.663471    14A     -0.599145    15A     -0.589595
      16A     -0.556578    17A     -0.524986    18A     -0.518078
      19A     -0.474950    20A     -0.443343

  @DF-RHF Final Energy:  -266.95059948993389

   => Energetics <=

    Nuclear Repulsion Energy =            180.4064024517073506
    One-Electron Energy =                -721.9251843311958510
    Two-Electron Energy =                 274.5681823895544085
    DFT Exchange-Correlation Energy =       0.0000000000000000
    Empirical Dispersion Energy =           0.0000000000000000
    PCM Polarization Energy =               0.0000000000000000
    EFP Energy =                            0.0000000000000000
    Total Energy =                       -266.9505994899341204
    Molecular point group: c1
  Basis Set: CC-PVTZ
  Basis Set:

  -Total Gradient:
     Atom            X                  Y                   Z
    ------   -----------------  -----------------  -----------------
       1       -0.000003849631    -0.000016384557    -0.000003796327
       2       -0.000096050533     0.000188015907     0.000403498315
       3        0.000230864700    -0.000355367676    -0.000487258581
       4       -0.000288887978     0.000501213127    -0.000178278583
       5       -0.000071134169     0.000046513123    -0.000007287223
       6        0.000004647701    -0.000010751378     0.000005170553
       7        0.000228144449    -0.000354705312     0.000262817908
       8       -0.000006353689     0.000000740653     0.000000649316
       9        0.000006393399    -0.000005023129     0.000003850446
      10       -0.000002165333     0.000001626272    -0.000000569137
      11       -0.000001608916     0.000004122974     0.000001203313

  **** Optimization is complete! (in 6 steps) ****
    Final optimized geometry and variables:
    Molecular point group: c1

    Geometry (in Angstrom), charge = 0, multiplicity = 1:

    H            1.236367759331     1.680266841299    -0.255402240092
    O            0.392280934005     1.254027118911    -0.264621792973
    C            0.573813081782    -0.029800281707     0.019375394522
    C           -0.694183730419    -0.848256759651     0.016566115831
    O            1.646278908551    -0.478386368611     0.239124286361
    C           -2.005742922024    -0.074326546238     0.013965055855
    H           -0.625042863209    -1.492013300920    -0.854122247597
    H           -0.625747218703    -1.503982704405     0.874670406943
    H           -2.098962431401     0.546035509126    -0.866701490477
    H           -2.837544654451    -0.767570693210     0.029825735819
    H           -2.087224591411     0.567150990885     0.882164834405

  Mulliken Charges: (a.u.)
   Center  Symbol    Alpha    Beta     Spin     Total
       1     H     0.38323  0.38323  0.00000  0.23354
       2     O     4.15287  4.15287  0.00000 -0.30574
       3     C     2.80620  2.80620  0.00000  0.38759
       4     C     3.09658  3.09658  0.00000 -0.19317
       5     O     4.19764  4.19764  0.00000 -0.39528
       6     C     3.14202  3.14202  0.00000 -0.28403
       7     H     0.44025  0.44025  0.00000  0.11949
       8     H     0.43521  0.43521  0.00000  0.12957
       9     H     0.44758  0.44758  0.00000  0.10483
      10     H     0.44908  0.44908  0.00000  0.10184
      11     H     0.44933  0.44933  0.00000  0.10135

   Total alpha = 20.00000, Total beta = 20.00000, Total charge = -0.00000
