  ==> Input File <==

--------------------------------------------------------------------------
set {
	reference rhf
	basis 6-31G*
}

set_num_threads( 4 )
memory 2 gb

molecule MOL {
0 1

H	 -2.798360	 -0.862255	 -0.071053
N	 -1.863561	 -0.715187	 0.256814
C	 -1.344686	 0.554728	 -0.219830
H	 -1.300452	 -1.461917	 -0.101532
C	 0.081427	 0.741154	 0.254071
H	 -1.362155	 0.656231	 -1.305829
H	 -1.952773	 1.354456	 0.191809
O	 0.728696	 1.607654	 -0.633232
H	 0.092256	 1.159205	 1.260428
H	 0.587561	 -0.221385	 0.278171
C	 2.080416	 1.801469	 -0.363305
H	 2.468905	 2.483872	 -1.107012
H	 2.230996	 2.234859	 0.623853
H	 2.634766	 0.866854	 -0.418071

	symmetry c1
}
set optking {
	frozen_dihedral = ("
		8 5 3 6
	")
}

ee = optimize('scf')
oeprop('DIPOLE', 'QUADRUPOLE', 'MULLIKEN_CHARGES')
f=open( 'psi4out.xyz', 'w' )
f.write( "14  " )
f.write( str(ee) + "\n" )
f.write( MOL.save_string_xyz() )
f.close()
--------------------------------------------------------------------------

    Molecular point group: c1
  Charge       = 0
  Multiplicity = 1
  Basis Set: 6-31G*
  Basis Set:
  @DF-RHF Final Energy:  -248.12054429390611
    Total Energy =                       -248.1205442939063346
    Molecular point group: c1
  Basis Set: 6-31G*
  Basis Set:
  Basis Set: 6-31G*
  Basis Set:
  @DF-RHF Final Energy:  -248.12147447831214
    Total Energy =                       -248.1214744783122228
  Basis Set: 6-31G*
  Basis Set:
  Basis Set: 6-31G*
  Basis Set:
  @DF-RHF Final Energy:  -248.12160608513156
    Total Energy =                       -248.1216060851315888
  Basis Set: 6-31G*
  Basis Set:
  Basis Set: 6-31G*
  Basis Set:
  @DF-RHF Final Energy:  -248.12162389025414
    Total Energy =                       -248.1216238902542273
  Basis Set: 6-31G*
  Basis Set:
  Basis Set: 6-31G*
  Basis Set:
  @DF-RHF Final Energy:  -248.12164171763260
    Total Energy =                       -248.1216417176326559
  Basis Set: 6-31G*
  Basis Set:
  Charge       = 0
  Multiplicity = 1
  Basis Set: 6-31G*
  Basis Set:

    Orbital Energies (a.u.)
    -----------------------

    Doubly Occupied:

       1A    -20.554383     2A    -15.538792     3A    -11.264347
       4A    -11.263852     5A    -11.240836     6A     -1.379178
       7A     -1.180995     8A     -0.997714     9A     -0.899837
      10A     -0.823143    11A     -0.686250    12A     -0.664265
      13A     -0.651969    14A     -0.619887    15A     -0.584705
      16A     -0.569994    17A     -0.514357    18A     -0.497312
      19A     -0.469571    20A     -0.413720    21A     -0.386833

  @DF-RHF Final Energy:  -248.12164224892683

   => Energetics <=

    Nuclear Repulsion Energy =            190.8502267491866178
    One-Electron Energy =                -715.5398594897151270
    Two-Electron Energy =                 276.5679904916017904
    DFT Exchange-Correlation Energy =       0.0000000000000000
    Empirical Dispersion Energy =           0.0000000000000000
    PCM Polarization Energy =               0.0000000000000000
    EFP Energy =                            0.0000000000000000
    Total Energy =                       -248.1216422489267188
    Molecular point group: c1
  Basis Set: 6-31G*
  Basis Set:

  -Total Gradient:
     Atom            X                  Y                   Z
    ------   -----------------  -----------------  -----------------
       1        0.000007947144    -0.000013386015     0.000005039407
       2       -0.000011534456     0.000001465069    -0.000018902177
       3        0.001057105873    -0.006064751563    -0.001021358664
       4       -0.000010090264    -0.000018590654     0.000012180134
       5       -0.001316437520     0.004462802428     0.002460881990
       6       -0.000636426047     0.004299212611     0.000429720595
       7        0.000013805639     0.000021594882    -0.000008798769
       8        0.000945572687    -0.002667341810    -0.001868137603
       9       -0.000033156862    -0.000025884843     0.000023194060
      10       -0.000029475355    -0.000038520774     0.000032030978
      11        0.000007382489     0.000059564546    -0.000060628720
      12        0.000033039998     0.000006377289     0.000009319833
      13       -0.000008503188    -0.000013927875    -0.000001066446
      14       -0.000019230142    -0.000008613292     0.000006525383

  **** Optimization is complete! (in 6 steps) ****
    Final optimized geometry and variables:
    Molecular point group: c1

    Geometry (in Angstrom), charge = 0, multiplicity = 1:

    H           -2.818271005934    -1.534196697808     0.310192064738
    N           -1.825825561045    -1.494596762497     0.434210341778
    C           -1.286901164163    -0.249749880992    -0.085684094702
    H           -1.438182448857    -2.280680592753    -0.051642277454
    C            0.155952340118    -0.074576295134     0.369948828784
    H           -1.316775383971    -0.144922102398    -1.169281727072
    H           -1.884990173925     0.564580398801     0.309235685492
    O            0.803690307065     0.786629585047    -0.517582615228
    H            0.192826941116     0.310292004745     1.386748027602
    H            0.657259766608    -1.043260446444     0.375832928561
    C            2.121032621834     1.074583609056    -0.175103537036
    H            2.519868642529     1.736034163360    -0.932139336574
    H            2.183526389933     1.568658782867     0.792682558104
    H            2.729490586959     0.172376337399    -0.140050470194

  Mulliken Charges: (a.u.)
   Center  Symbol    Alpha    Beta     Spin     Total
       1     H     0.32942  0.32942  0.00000  0.34115
       2     N     3.92727  3.92727  0.00000 -0.85454
       3     C     3.07584  3.07584  0.00000 -0.15168
       4     H     0.33281  0.33281  0.00000  0.33439
       5     C     2.98229  2.98229  0.00000  0.03543
       6     H     0.41896  0.41896  0.00000  0.16208
       7     H     0.41628  0.41628  0.00000  0.16743
       8     O     4.30822  4.30822  0.00000 -0.61644
       9     H     0.42534  0.42534  0.00000  0.14932
      10     H     0.43225  0.43225  0.00000  0.13549
      11     C     3.07936  3.07936  0.00000 -0.15871
      12     H     0.41247  0.41247  0.00000  0.17505
      13     H     0.42929  0.42929  0.00000  0.14142
      14     H     0.43020  0.43020  0.00000  0.13960

   Total alpha = 21.00000, Total beta = 21.00000, Total charge = -0.00000
