  ==> Input File <==

--------------------------------------------------------------------------
set {
	reference rhf
	basis cc-pvtz
}

set_num_threads( 4 )
memory 2 gb

molecule MOL {
0 1

H	 -0.939693	 0.000281	 1.681345
O	 -0.046262	 -0.000157	 1.387678
C	 -0.000837	 0.000006	 -0.025491
C	 0.266156	 1.417390	 -0.528369
C	 1.089289	 -0.957878	 -0.502177
C	 -1.374187	 -0.480847	 -0.473686
H	 0.270749	 1.455741	 -1.611559
H	 1.230967	 1.773891	 -0.180349
H	 -0.495238	 2.094864	 -0.162621
H	 1.123968	 -1.006519	 -1.584406
H	 2.065447	 -0.634048	 -0.153864
H	 0.907849	 -1.953823	 -0.117941
H	 -1.437896	 -0.514886	 -1.554921
H	 -2.143494	 0.184764	 -0.103092
H	 -1.569305	 -1.472249	 -0.084756

	symmetry c1
}
set optking {
	frozen_dihedral = ("
		4 3 2 1
	")
}

ee = optimize('scf')
oeprop('DIPOLE', 'QUADRUPOLE', 'MULLIKEN_CHARGES')
f=open( 'psi4out.xyz', 'w' )
f.write( "15  " )
f.write( str(ee) + "\n" )
f.write( MOL.save_string_xyz() )
f.close()
--------------------------------------------------------------------------

    Molecular point group: c1
  Charge       = 0
  Multiplicity = 1
  Basis Set: CC-PVTZ
  Basis Set:
  @DF-RHF Final Energy:  -232.24323783049726
    Total Energy =                       -232.2432378304974918
    Molecular point group: c1
  Basis Set: CC-PVTZ
  Basis Set:
  Basis Set: CC-PVTZ
  Basis Set:
  @DF-RHF Final Energy:  -232.24484936484691
    Total Energy =                       -232.2448493648469139
  Basis Set: CC-PVTZ
  Basis Set:
  Basis Set: CC-PVTZ
  Basis Set:
  @DF-RHF Final Energy:  -232.24528451272502
    Total Energy =                       -232.2452845127248793
  Basis Set: CC-PVTZ
  Basis Set:
  Basis Set: CC-PVTZ
  Basis Set:
  @DF-RHF Final Energy:  -232.24529037162887
    Total Energy =                       -232.2452903716289256
  Basis Set: CC-PVTZ
  Basis Set:
  Charge       = 0
  Multiplicity = 1
  Basis Set: CC-PVTZ
  Basis Set:

    Orbital Energies (a.u.)
    -----------------------

    Doubly Occupied:

       1A    -20.540828     2A    -11.280993     3A    -11.215393
       4A    -11.204211     5A    -11.203244     6A     -1.363408
       7A     -1.065645     8A     -0.945963     9A     -0.936880
      10A     -0.778551    11A     -0.672171    12A     -0.624486
      13A     -0.622774    14A     -0.576373    15A     -0.557361
      16A     -0.534334    17A     -0.517035    18A     -0.511412
      19A     -0.503377    20A     -0.458593    21A     -0.426960

  @DF-RHF Final Energy:  -232.24529104869936

   => Energetics <=

    Nuclear Repulsion Energy =            200.6091657992599835
    One-Electron Energy =                -712.6289268442628781
    Two-Electron Energy =                 279.7744699963035941
    DFT Exchange-Correlation Energy =       0.0000000000000000
    Empirical Dispersion Energy =           0.0000000000000000
    PCM Polarization Energy =               0.0000000000000000
    EFP Energy =                            0.0000000000000000
    Total Energy =                       -232.2452910486993574
    Molecular point group: c1
  Basis Set: CC-PVTZ
  Basis Set:

  -Total Gradient:
     Atom            X                  Y                   Z
    ------   -----------------  -----------------  -----------------
       1       -0.000060534333    -0.001700913278    -0.000035197077
       2        0.000447268971     0.002043441286    -0.000062307484
       3       -0.001446159013    -0.000134991364     0.000152059697
       4        0.001042204830    -0.000281757308    -0.000036886614
       5       -0.000018126003     0.000044637610    -0.000073074590
       6       -0.000011364384    -0.000008849605     0.000060428973
       7        0.000023460645    -0.000003804794     0.000010455753
       8        0.000017894723     0.000038730223     0.000018165384
       9       -0.000018970782    -0.000059850945     0.000000017861
      10        0.000017008826    -0.000015485509    -0.000009607302
      11       -0.000003377906     0.000032080129     0.000008639447
      12       -0.000019730288     0.000011906819     0.000008058207
      13        0.000003994549    -0.000008767944    -0.000053748656
      14        0.000030772367    -0.000013914870    -0.000000208481
      15       -0.000004342201     0.000057539551     0.000013204884

  **** Optimization is complete! (in 5 steps) ****
    Final optimized geometry and variables:
    Molecular point group: c1

    Geometry (in Angstrom), charge = 0, multiplicity = 1:

    H           -0.812135717280     0.037687362706     1.755226438803
    O            0.052449253085     0.008846574392     1.390595097871
    C           -0.001843017921     0.002575380222    -0.025176928626
    C            0.275036916110     1.418334246077    -0.525651617902
    C            1.095244834965    -0.948658985701    -0.489405151376
    C           -1.370173827752    -0.483381059534    -0.493221698222
    H            0.295095387312     1.457264951721    -1.609128762925
    H            1.230291882587     1.763228858609    -0.150681240084
    H           -0.489582877962     2.102561020827    -0.175019399505
    H            1.158764191590    -0.973568404221    -1.571266300751
    H            2.052665962989    -0.629747666347    -0.096772350318
    H            0.901815195740    -1.951770219896    -0.130102335756
    H           -1.421497248698    -0.519405045111    -1.574486045907
    H           -2.154883466965     0.183294137799    -0.147929687433
    H           -1.572281543126    -1.477418560038    -0.111002953581

  Mulliken Charges: (a.u.)
   Center  Symbol    Alpha    Beta     Spin     Total
       1     H     0.39293  0.39293  0.00000  0.21415
       2     O     4.21419  4.21419  0.00000 -0.42837
       3     C     2.87942  2.87942  0.00000  0.24116
       4     C     3.14237  3.14237  0.00000 -0.28474
       5     C     3.14035  3.14035  0.00000 -0.28069
       6     C     3.16022  3.16022  0.00000 -0.32044
       7     H     0.45870  0.45870  0.00000  0.08260
       8     H     0.44817  0.44817  0.00000  0.10367
       9     H     0.45480  0.45480  0.00000  0.09040
      10     H     0.45947  0.45947  0.00000  0.08106
      11     H     0.44740  0.44740  0.00000  0.10520
      12     H     0.45192  0.45192  0.00000  0.09616
      13     H     0.45128  0.45128  0.00000  0.09743
      14     H     0.45288  0.45288  0.00000  0.09424
      15     H     0.44592  0.44592  0.00000  0.10816

   Total alpha = 21.00000, Total beta = 21.00000, Total charge = -0.00000
