  ==> Input File <==

--------------------------------------------------------------------------
set {
	reference rhf
	basis 6-31G*
}

set_num_threads( 4 )
memory 2 gb

molecule MOL {
0 1

H	 2.159957	 1.912328	 -0.111631
O	 1.229946	 1.891195	 0.062009
C	 0.702312	 0.627605	 -0.264544
C	 -0.714990	 0.596302	 0.266387
H	 1.282198	 -0.163658	 0.202887
H	 0.704680	 0.470385	 -1.341020
O	 -1.405996	 -0.526611	 -0.195820
H	 -1.257453	 1.468809	 -0.075599
H	 -0.688972	 0.618407	 1.353696
H	 -0.890587	 -1.292708	 0.022039

	symmetry c1
}
set optking {
	frozen_dihedral = ("
		5 3 4 7
	")
}

ee = optimize('scf')
oeprop('DIPOLE', 'QUADRUPOLE', 'MULLIKEN_CHARGES')
f=open( 'psi4out.xyz', 'w' )
f.write( "10  " )
f.write( str(ee) + "\n" )
f.write( MOL.save_string_xyz() )
f.close()
--------------------------------------------------------------------------

    Molecular point group: c1
  Charge       = 0
  Multiplicity = 1
  Basis Set: 6-31G*
  Basis Set:
  @DF-RHF Final Energy:  -228.91999413283477
    Total Energy =                       -228.9199941328347734
    Molecular point group: c1
  Basis Set: 6-31G*
  Basis Set:
  Basis Set: 6-31G*
  Basis Set:
  @DF-RHF Final Energy:  -228.92094280150752
    Total Energy =                       -228.9209428015074650
  Basis Set: 6-31G*
  Basis Set:
  Basis Set: 6-31G*
  Basis Set:
  @DF-RHF Final Energy:  -228.92119792397389
    Total Energy =                       -228.9211979239740060
  Basis Set: 6-31G*
  Basis Set:
  Basis Set: 6-31G*
  Basis Set:
  @DF-RHF Final Energy:  -228.92123311048340
    Total Energy =                       -228.9212331104833709
  Basis Set: 6-31G*
  Basis Set:
  Basis Set: 6-31G*
  Basis Set:
  @DF-RHF Final Energy:  -228.92123462838566
    Total Energy =                       -228.9212346283856618
  Basis Set: 6-31G*
  Basis Set:
  Charge       = 0
  Multiplicity = 1
  Basis Set: 6-31G*
  Basis Set:

    Orbital Energies (a.u.)
    -----------------------

    Doubly Occupied:

       1A    -20.561690     2A    -20.560227     3A    -11.272253
       4A    -11.268576     5A     -1.374317     6A     -1.360973
       7A     -0.997818     8A     -0.845337     9A     -0.718260
      10A     -0.694031    11A     -0.634253    12A     -0.612277
      13A     -0.577287    14A     -0.524218    15A     -0.490836
      16A     -0.444307    17A     -0.439831

  @DF-RHF Final Energy:  -228.92123472460003

   => Energetics <=

    Nuclear Repulsion Energy =            131.2896109578321671
    One-Electron Energy =                -573.6687106419219617
    Two-Electron Energy =                 213.4578649594897399
    DFT Exchange-Correlation Energy =       0.0000000000000000
    Empirical Dispersion Energy =           0.0000000000000000
    PCM Polarization Energy =               0.0000000000000000
    EFP Energy =                            0.0000000000000000
    Total Energy =                       -228.9212347246000547
    Molecular point group: c1
  Basis Set: 6-31G*
  Basis Set:

  -Total Gradient:
     Atom            X                  Y                   Z
    ------   -----------------  -----------------  -----------------
       1       -0.000007961565    -0.000001700605    -0.000000462259
       2        0.000003875813     0.000002893166    -0.000000982234
       3       -0.000956444038    -0.001493234878    -0.002968967666
       4        0.000963718383    -0.001142498990     0.002540748705
       5        0.000623341017     0.001504585374     0.001967866706
       6       -0.000007484242    -0.000003739422     0.000000474211
       7       -0.000609748401     0.001131297225    -0.001543809942
       8       -0.000010129877    -0.000000262672     0.000004806674
       9        0.000004428834     0.000006314073     0.000002458056
      10       -0.000003595922    -0.000003653273    -0.000002132249

  **** Optimization is complete! (in 6 steps) ****
    Final optimized geometry and variables:
    Molecular point group: c1

    Geometry (in Angstrom), charge = 0, multiplicity = 1:

    H            2.145711064226     1.347426373867    -0.131985334071
    O            1.252956940848     1.258049802447     0.168739608145
    C            0.739290455043     0.012016549104    -0.221865691344
    C           -0.689162794995    -0.062718614303     0.288336341310
    H            1.334427507100    -0.792974858721     0.209107473396
    H            0.736712912725    -0.101520778739    -1.302034561063
    O           -1.366719699136    -1.172531763561    -0.238045389278
    H           -1.222800254121     0.815765570724    -0.046558373516
    H           -0.699277947399    -0.061640587337     1.374582110873
    H           -1.086137213397    -1.960588251588     0.205367083294

  Mulliken Charges: (a.u.)
   Center  Symbol    Alpha    Beta     Spin     Total
       1     H     0.27828  0.27828  0.00000  0.44344
       2     O     4.37225  4.37225  0.00000 -0.74451
       3     C     3.00665  3.00665  0.00000 -0.01329
       4     C     3.00372  3.00372  0.00000 -0.00745
       5     H     0.43627  0.43627  0.00000  0.12746
       6     H     0.42129  0.42129  0.00000  0.15741
       7     O     4.37046  4.37046  0.00000 -0.74092
       8     H     0.40660  0.40660  0.00000  0.18679
       9     H     0.42295  0.42295  0.00000  0.15410
      10     H     0.28152  0.28152  0.00000  0.43696

   Total alpha = 17.00000, Total beta = 17.00000, Total charge = -0.00000
