  ==> Input File <==

--------------------------------------------------------------------------
set {
	reference rhf
	basis 6-31G*
}

set_num_threads( 4 )
memory 2 gb

molecule MOL {
0 1

H	 1.326908	 0.454732	 0.987304
C	 0.850167	 0.441173	 0.000644
C	 -0.623425	 0.760064	 0.000248
O	 1.489973	 0.191025	 -0.968799
C	 -1.518387	 -0.473136	 -0.000101
H	 -0.818289	 1.390622	 -0.866171
H	 -0.818694	 1.390413	 0.866696
H	 -1.333417	 -1.085530	 -0.874338
H	 -2.563510	 -0.183466	 -0.000351
H	 -1.333864	 -1.085676	 0.874123

	symmetry c1
}
set optking {
	frozen_dihedral = ("
		4 2 3 6
	")
}

ee = optimize('scf')
oeprop('DIPOLE', 'QUADRUPOLE', 'MULLIKEN_CHARGES')
f=open( 'psi4out.xyz', 'w' )
f.write( "10  " )
f.write( str(ee) + "\n" )
f.write( MOL.save_string_xyz() )
f.close()
--------------------------------------------------------------------------

    Molecular point group: c1
  Charge       = 0
  Multiplicity = 1
  Basis Set: 6-31G*
  Basis Set:
  @DF-RHF Final Energy:  -191.94814910638772
    Total Energy =                       -191.9481491063876888
    Molecular point group: c1
  Basis Set: 6-31G*
  Basis Set:
  Basis Set: 6-31G*
  Basis Set:
  @DF-RHF Final Energy:  -191.94793031375900
    Total Energy =                       -191.9479303137589739
  Basis Set: 6-31G*
  Basis Set:
  Basis Set: 6-31G*
  Basis Set:
  @DF-RHF Final Energy:  -191.94851871309396
    Total Energy =                       -191.9485187130939892
  Basis Set: 6-31G*
  Basis Set:
  Basis Set: 6-31G*
  Basis Set:
  @DF-RHF Final Energy:  -191.94896962506709
    Total Energy =                       -191.9489696250672068
  Basis Set: 6-31G*
  Basis Set:
  Basis Set: 6-31G*
  Basis Set:
  @DF-RHF Final Energy:  -191.94897180484179
    Total Energy =                       -191.9489718048418183
  Basis Set: 6-31G*
  Basis Set:
  Charge       = 0
  Multiplicity = 1
  Basis Set: 6-31G*
  Basis Set:

    Orbital Energies (a.u.)
    -----------------------

    Doubly Occupied:

       1A    -20.563727     2A    -11.328072     3A    -11.238343
       4A    -11.231585     5A     -1.403934     6A     -1.062969
       7A     -0.904672     8A     -0.787821     9A     -0.681444
      10A     -0.639403    11A     -0.604421    12A     -0.574647
      13A     -0.540145    14A     -0.509435    15A     -0.494904
      16A     -0.411888

  @DF-RHF Final Energy:  -191.94897202008895

   => Energetics <=

    Nuclear Repulsion Energy =            118.2076028711983469
    One-Electron Energy =                -494.3583288231698702
    Two-Electron Energy =                 184.2017539318826209
    DFT Exchange-Correlation Energy =       0.0000000000000000
    Empirical Dispersion Energy =           0.0000000000000000
    PCM Polarization Energy =               0.0000000000000000
    EFP Energy =                            0.0000000000000000
    Total Energy =                       -191.9489720200889167
    Molecular point group: c1
  Basis Set: 6-31G*
  Basis Set:

  -Total Gradient:
     Atom            X                  Y                   Z
    ------   -----------------  -----------------  -----------------
       1        0.000001013315    -0.000000201494    -0.000011262726
       2        0.000385494082     0.001601817987    -0.000102091913
       3       -0.000371516767    -0.001442917165    -0.000553203557
       4       -0.000234483195    -0.000987242820     0.000152857337
       5        0.000007187542     0.000003085307     0.000011526203
       6        0.000212265425     0.000820657906     0.000516001822
       7       -0.000004457931    -0.000002137652    -0.000008676862
       8        0.000000996502     0.000002053206    -0.000004274474
       9        0.000004093502     0.000008536616    -0.000001136107
      10       -0.000000592477    -0.000003651891     0.000000260281

  **** Optimization is complete! (in 6 steps) ****
    Final optimized geometry and variables:
    Molecular point group: c1

    Geometry (in Angstrom), charge = 0, multiplicity = 1:

    H            1.301513607655     0.218792742023     1.231799846868
    C            0.803354900472     0.226628773830     0.256047985597
    C           -0.663612737366     0.588024305815     0.254373012855
    O            1.404260588616    -0.078719846392    -0.722996611265
    C           -1.532196721984    -0.677475125911     0.246377969689
    H           -0.862928856209     1.185862277924    -0.627884642637
    H           -0.890624205556     1.190022799417     1.129072768706
    H           -1.323506274586    -1.274230739806    -0.633608315339
    H           -2.583721907327    -0.414016437911     0.240618119615
    H           -1.347649069737    -1.290443948112     1.123407447634

  Mulliken Charges: (a.u.)
   Center  Symbol    Alpha    Beta     Spin     Total
       1     H     0.42858  0.42858  0.00000  0.14284
       2     C     2.84159  2.84159  0.00000  0.31682
       3     C     3.19948  3.19948  0.00000 -0.39896
       4     O     4.23548  4.23548  0.00000 -0.47096
       5     C     3.24787  3.24787  0.00000 -0.49574
       6     H     0.39937  0.39937  0.00000  0.20127
       7     H     0.41548  0.41548  0.00000  0.16905
       8     H     0.40464  0.40464  0.00000  0.19073
       9     H     0.41105  0.41105  0.00000  0.17790
      10     H     0.41647  0.41647  0.00000  0.16705

   Total alpha = 16.00000, Total beta = 16.00000, Total charge = -0.00000
