  ==> Input File <==

--------------------------------------------------------------------------
set {
	reference rhf
	basis 6-31G*
}

set_num_threads( 4 )
memory 2 gb

molecule MOL {
0 1

H	 -2.294596	 0.113574	 2.577986
C	 -2.733160	 -0.280860	 1.652942
C	 -2.647883	 0.641372	 0.463477
O	 -3.228242	 -1.360894	 1.639884
C	 -1.220012	 1.144545	 0.209990
H	 -3.047109	 0.123021	 -0.400606
H	 -3.295751	 1.492103	 0.671272
C	 -0.252658	 0.041456	 -0.226725
H	 -1.257511	 1.914920	 -0.554471
H	 -0.842673	 1.628891	 1.109312
C	 1.180775	 0.282413	 0.250794
H	 -0.266029	 -0.034465	 -1.312038
H	 -0.597733	 -0.921000	 0.146291
C	 2.148627	 -0.814315	 -0.201312
H	 1.516199	 1.249228	 -0.115937
H	 1.192670	 0.346017	 1.338083
C	 3.580890	 -0.659131	 0.322722
H	 2.166869	 -0.852443	 -1.289387
H	 1.762857	 -1.776509	 0.128956
C	 4.324889	 0.564933	 -0.213704
H	 4.142010	 -1.551473	 0.056605
H	 3.564836	 -0.624694	 1.410140
H	 4.342616	 0.565491	 -1.300421
H	 3.866655	 1.493402	 0.110242
H	 5.353900	 0.572371	 0.132816

	symmetry c1
}
set optking {
	frozen_dihedral = ("
		3 5 8 12
	")
}

ee = optimize('scf')
oeprop('DIPOLE', 'QUADRUPOLE', 'MULLIKEN_CHARGES')
f=open( 'psi4out.xyz', 'w' )
f.write( "25  " )
f.write( str(ee) + "\n" )
f.write( MOL.save_string_xyz() )
f.close()
--------------------------------------------------------------------------

    Molecular point group: c1
  Charge       = 0
  Multiplicity = 1
  Basis Set: 6-31G*
  Basis Set:
  @DF-RHF Final Energy:  -387.11893407768679
    Total Energy =                       -387.1189340776872996
    Molecular point group: c1
  Basis Set: 6-31G*
  Basis Set:
  Basis Set: 6-31G*
  Basis Set:
  @DF-RHF Final Energy:  -387.11888675838441
    Total Energy =                       -387.1188867583845195
  Basis Set: 6-31G*
  Basis Set:
  Basis Set: 6-31G*
  Basis Set:
  @DF-RHF Final Energy:  -387.11661864523791
    Total Energy =                       -387.1166186452383045
  Basis Set: 6-31G*
  Basis Set:
  Basis Set: 6-31G*
  Basis Set:
  @DF-RHF Final Energy:  -387.11916723619646
    Total Energy =                       -387.1191672361971996
  Basis Set: 6-31G*
  Basis Set:
  Basis Set: 6-31G*
  Basis Set:
  @DF-RHF Final Energy:  -387.11923576208653
    Total Energy =                       -387.1192357620873281
  Basis Set: 6-31G*
  Basis Set:
  Basis Set: 6-31G*
  Basis Set:
  @DF-RHF Final Energy:  -387.11924693357844
    Total Energy =                       -387.1192469335788928
  Basis Set: 6-31G*
  Basis Set:
  Basis Set: 6-31G*
  Basis Set:
  @DF-RHF Final Energy:  -387.11925117188576
    Total Energy =                       -387.1192511718857077
  Basis Set: 6-31G*
  Basis Set:
  Charge       = 0
  Multiplicity = 1
  Basis Set: 6-31G*
  Basis Set:

    Orbital Energies (a.u.)
    -----------------------

    Doubly Occupied:

       1A    -20.563160     2A    -11.326730     3A    -11.235339
       4A    -11.234728     5A    -11.222888     6A    -11.219324
       7A    -11.217460     8A    -11.216235     9A    -11.210339
      10A     -1.402888    11A     -1.102631    12A     -1.069016
      13A     -1.012848    14A     -0.941724    15A     -0.875346
      16A     -0.818901    17A     -0.789614    18A     -0.780245
      19A     -0.665558    20A     -0.660319    21A     -0.635932
      22A     -0.621923    23A     -0.608037    24A     -0.586840
      25A     -0.573474    26A     -0.555633    27A     -0.533218
      28A     -0.522660    29A     -0.510070    30A     -0.497164
      31A     -0.488034    32A     -0.477910    33A     -0.463661
      34A     -0.458057    35A     -0.440214    36A     -0.410540

  @DF-RHF Final Energy:  -387.11925201257469

   => Energetics <=

    Nuclear Repulsion Energy =            441.3914183918906815
    One-Electron Energy =               -1399.1240180888441955
    Two-Electron Energy =                 570.6133476843792778
    DFT Exchange-Correlation Energy =       0.0000000000000000
    Empirical Dispersion Energy =           0.0000000000000000
    PCM Polarization Energy =               0.0000000000000000
    EFP Energy =                            0.0000000000000000
    Total Energy =                       -387.1192520125741794
    Molecular point group: c1
  Basis Set: 6-31G*
  Basis Set:

  -Total Gradient:
     Atom            X                  Y                   Z
    ------   -----------------  -----------------  -----------------
       1        0.000043503506    -0.000026158182    -0.000005315863
       2        0.000004655014    -0.000021365911     0.000001550949
       3        0.000676249982    -0.000479237135     0.002796077154
       4       -0.000056110476     0.000023209754     0.000029077122
       5       -0.000219424690     0.001347457992    -0.003972828978
       6        0.000031007649    -0.000013820818     0.000001423441
       7       -0.000042561690    -0.000014635285    -0.000023335644
       8       -0.003424343410    -0.003456670136     0.001357371063
       9        0.000006657002     0.000003593255    -0.000006168419
      10        0.000007767708    -0.000016648551    -0.000002535904
      11       -0.000005737902     0.000002709211     0.000010683080
      12        0.002986421098     0.002645937074    -0.000189524559
      13       -0.000005624550     0.000006797007     0.000010665310
      14       -0.000008610469     0.000003841217    -0.000007012083
      15       -0.000010902232    -0.000001121221     0.000001655440
      16        0.000006586908    -0.000006012700    -0.000001496562
      17        0.000002494128    -0.000000758441     0.000006027835
      18        0.000002588005     0.000001459899    -0.000000784458
      19       -0.000002277786     0.000002548322    -0.000003521139
      20        0.000002361301     0.000002079894     0.000003092341
      21        0.000000209841     0.000001441971    -0.000003870167
      22        0.000002698456    -0.000002644596     0.000000072821
      23        0.000001503801    -0.000001051265    -0.000000828052
      24        0.000000930762    -0.000002721979    -0.000001859729
      25       -0.000000041956     0.000001770625     0.000001384998

  **** Optimization is complete! (in 8 steps) ****
    Final optimized geometry and variables:
    Molecular point group: c1

    Geometry (in Angstrom), charge = 0, multiplicity = 1:

    H           -2.536600627633     0.280824544859     2.157837896008
    C           -2.907354446855    -0.173601017728     1.230699614644
    C           -2.793550840426     0.696491166938     0.005030503090
    O           -3.357376014578    -1.273361893530     1.243621885110
    C           -1.353218541758     1.176480472441    -0.228841458697
    H           -3.174049390869     0.141723397196    -0.845098546805
    H           -3.440711424799     1.558760648943     0.159586553493
    C           -0.387519136754     0.053033553771    -0.645217820136
    H           -1.355436307129     1.959581787423    -0.979622563280
    H           -0.995549030784     1.643870676065     0.687286405682
    C            1.051435330982     0.306797250822    -0.185069303126
    H           -0.384979863140    -0.027936457113    -1.729503615772
    H           -0.725192691452    -0.904458716070    -0.257806656022
    C            2.027965913827    -0.766339840006    -0.672530421616
    H            1.366726749135     1.286290228932    -0.536732628808
    H            1.078216882292     0.349200970398     0.902913678197
    C            3.460531107666    -0.613817988986    -0.148613350090
    H            2.043569002014    -0.770919307450    -1.761311288022
    H            1.651916968464    -1.741734652396    -0.370931066394
    C            4.188552523193     0.637211773702    -0.643761923861
    H            4.030514634216    -1.489990883983    -0.447408513471
    H            3.447673661074    -0.617848058506     0.939409871131
    H            4.206314873704     0.674205683320    -1.729768550330
    H            3.718385264084     1.548541315275    -0.289260322473
    H            5.217331508649     0.646638923456    -0.297155520841

  Mulliken Charges: (a.u.)
   Center  Symbol    Alpha    Beta     Spin     Total
       1     H     0.43225  0.43225  0.00000  0.13549
       2     C     2.83057  2.83057  0.00000  0.33887
       3     C     3.20754  3.20754  0.00000 -0.41507
       4     O     4.23786  4.23786  0.00000 -0.47572
       5     C     3.16823  3.16823  0.00000 -0.33645
       6     H     0.39979  0.39979  0.00000  0.20041
       7     H     0.40812  0.40812  0.00000  0.18376
       8     C     3.15846  3.15846  0.00000 -0.31692
       9     H     0.41075  0.41075  0.00000  0.17851
      10     H     0.41925  0.41925  0.00000  0.16149
      11     C     3.15563  3.15563  0.00000 -0.31127
      12     H     0.41780  0.41780  0.00000  0.16441
      13     H     0.41289  0.41289  0.00000  0.17422
      14     C     3.15353  3.15353  0.00000 -0.30706
      15     H     0.42103  0.42103  0.00000  0.15794
      16     H     0.42415  0.42415  0.00000  0.15169
      17     C     3.15266  3.15266  0.00000 -0.30532
      18     H     0.42373  0.42373  0.00000  0.15253
      19     H     0.41988  0.41988  0.00000  0.16024
      20     C     3.24131  3.24131  0.00000 -0.48263
      21     H     0.42002  0.42002  0.00000  0.15996
      22     H     0.42298  0.42298  0.00000  0.15404
      23     H     0.42216  0.42216  0.00000  0.15569
      24     H     0.42071  0.42071  0.00000  0.15857
      25     H     0.41869  0.41869  0.00000  0.16263

   Total alpha = 36.00000, Total beta = 36.00000, Total charge = -0.00000
