  ==> Input File <==

--------------------------------------------------------------------------
set {
	reference rhf
	basis 6-31G*
}

set_num_threads( 1 )
memory 2 gb

molecule MOL {
0 1

H	 -2.153054	 -2.250733	 0.000000
O	 -2.462445	 -1.355403	 0.000000
C	 -1.434260	 -0.483044	 0.000000
C	 -1.747402	 0.872187	 0.000000
C	 -0.112826	 -0.887672	 0.000000
H	 -2.781042	 1.162947	 0.000000
C	 -0.737782	 1.812486	 0.000000
H	 0.142965	 -1.932242	 0.000000
C	 0.894804	 0.073633	 0.000000
H	 -0.988012	 2.857452	 0.000000
C	 0.595063	 1.425424	 0.000000
C	 2.274807	 -0.357748	 0.000000
H	 1.382498	 2.154482	 0.000000
N	 3.359371	 -0.696304	 0.002558

	symmetry c1
}
set optking {
	frozen_dihedral = ("
		5 3 2 1
	")
}

ee = energy('scf')
oeprop('DIPOLE', 'QUADRUPOLE', 'MULLIKEN_CHARGES')
f=open( 'psi4out.xyz', 'w' )
f.write( "14  " )
f.write( str(ee) + "\n" )
f.write( MOL.save_string_xyz() )
f.close()
--------------------------------------------------------------------------

    Molecular point group: c1

    Geometry (in Angstrom), charge = 0, multiplicity = 1:

       Center              X                  Y                   Z               Mass
    ------------   -----------------  -----------------  -----------------  -----------------
           H         -2.153160876785    -2.251075187618    -0.000300913406     1.007825032070
           O         -2.462551876785    -1.355745187618    -0.000300913406    15.994914619560
           C         -1.434366876785    -0.483386187618    -0.000300913406    12.000000000000
           C         -1.747508876785     0.871844812382    -0.000300913406    12.000000000000
           C         -0.112932876785    -0.888014187618    -0.000300913406    12.000000000000
           H         -2.781148876785     1.162604812382    -0.000300913406     1.007825032070
           C         -0.737888876785     1.812143812382    -0.000300913406    12.000000000000
           H          0.142858123215    -1.932584187618    -0.000300913406     1.007825032070
           C          0.894697123215     0.073290812382    -0.000300913406    12.000000000000
           H         -0.988118876785     2.857109812382    -0.000300913406     1.007825032070
           C          0.594956123215     1.425081812382    -0.000300913406    12.000000000000
           C          2.274700123215    -0.358090187618    -0.000300913406    12.000000000000
           H          1.382391123215     2.154139812382    -0.000300913406     1.007825032070
           N          3.359264123215    -0.696646187618     0.002257086594    14.003074004780

  Charge       = 0
  Multiplicity = 1
  Basis Set: 6-31G*
  Basis Set:

    Orbital Energies (a.u.)
    -----------------------

    Doubly Occupied:

       1A    -20.613357     2A    -15.576095     3A    -11.326475
       4A    -11.295199     5A    -11.277354     6A    -11.263922
       7A    -11.262493     8A    -11.259239     9A    -11.253928
      10A     -1.433723    11A     -1.233858    12A     -1.182278
      13A     -1.063260    14A     -1.039159    15A     -0.896236
      16A     -0.867780    17A     -0.778130    18A     -0.726549
      19A     -0.700217    20A     -0.664101    21A     -0.627031
      22A     -0.613997    23A     -0.592983    24A     -0.562274
      25A     -0.550733    26A     -0.538997    27A     -0.527030
      28A     -0.473335    29A     -0.473314    30A     -0.363600
      31A     -0.336670

  @DF-RHF Final Energy:  -397.29196280031277

   => Energetics <=

    Nuclear Repulsion Energy =            379.4041980866543895
    One-Electron Energy =               -1290.6456846524990851
    Two-Electron Energy =                 513.9495237655307847
    DFT Exchange-Correlation Energy =       0.0000000000000000
    Empirical Dispersion Energy =           0.0000000000000000
    PCM Polarization Energy =               0.0000000000000000
    EFP Energy =                            0.0000000000000000
    Total Energy =                       -397.2919628003139678

  Mulliken Charges: (a.u.)
   Center  Symbol    Alpha    Beta     Spin     Total
       1     H     0.26830  0.26830  0.00000  0.46340
       2     O     4.37595  4.37595  0.00000 -0.75191
       3     C     2.79153  2.79153  0.00000  0.41694
       4     C     3.11408  3.11408  0.00000 -0.22817
       5     C     3.13447  3.13447  0.00000 -0.26894
       6     H     0.38292  0.38292  0.00000  0.23416
       7     C     3.09575  3.09575  0.00000 -0.19149
       8     H     0.38535  0.38535  0.00000  0.22931
       9     C     2.99112  2.99112  0.00000  0.01775
      10     H     0.38856  0.38856  0.00000  0.22287
      11     C     3.09891  3.09891  0.00000 -0.19782
      12     C     2.86663  2.86663  0.00000  0.26674
      13     H     0.38125  0.38125  0.00000  0.23749
      14     N     3.72517  3.72517  0.00000 -0.45034

   Total alpha = 31.00000, Total beta = 31.00000, Total charge = -0.00000
