  ==> Input File <==

--------------------------------------------------------------------------
set {
	reference rhf
	basis 6-31G*
}

set_num_threads( 4 )
memory 2 gb

molecule MOL {
0 1

O	 1.846825	 1.296220	 0.000415
C	 1.705091	 0.115954	 0.001797
C	 0.381791	 -0.609817	 0.001258
O	 2.721346	 -0.737485	 -0.000216
C	 -0.823008	 0.326187	 0.001381
H	 0.371250	 -1.265087	 -0.865474
H	 0.370908	 -1.265746	 0.867490
C	 -2.149452	 -0.435131	 -0.000098
H	 -0.770201	 0.977095	 -0.865636
H	 -0.771220	 0.975655	 0.869608
C	 -3.368779	 0.488503	 -0.000883
H	 -2.193746	 -1.087250	 -0.871175
H	 -2.195311	 -1.087803	 0.870418
C	 -3.757199	 0.962532	 -1.400768
H	 -3.166192	 1.351400	 0.629600
H	 -4.211495	 -0.028814	 0.452273
H	 -2.945923	 1.514153	 -1.867417
H	 -4.624342	 1.614802	 -1.368248
H	 -3.999106	 0.122861	 -2.046325
C	 4.024888	 -0.184556	 -0.001949
H	 4.179030	 0.422472	 -0.882452
H	 4.701782	 -1.024608	 -0.003642
H	 4.181981	 0.421185	 0.878906

	symmetry c1
}
set optking {
	frozen_dihedral = ("
		15 11 8 12
	")
}

ee = optimize('scf')
oeprop('DIPOLE', 'QUADRUPOLE', 'MULLIKEN_CHARGES')
f=open( 'psi4out.xyz', 'w' )
f.write( "23  " )
f.write( str(ee) + "\n" )
f.write( MOL.save_string_xyz() )
f.close()
--------------------------------------------------------------------------

    Molecular point group: c1
  Charge       = 0
  Multiplicity = 1
  Basis Set: 6-31G*
  Basis Set:
  @DF-RHF Final Energy:  -422.97358359301984
    Total Energy =                       -422.9735835930207486
    Molecular point group: c1
  Basis Set: 6-31G*
  Basis Set:
  Basis Set: 6-31G*
  Basis Set:
  @DF-RHF Final Energy:  -422.97366856210135
    Total Energy =                       -422.9736685621011247
  Basis Set: 6-31G*
  Basis Set:
  Basis Set: 6-31G*
  Basis Set:
  @DF-RHF Final Energy:  -422.97297179285766
    Total Energy =                       -422.9729717928576065
  Basis Set: 6-31G*
  Basis Set:
  Basis Set: 6-31G*
  Basis Set:
  @DF-RHF Final Energy:  -422.97376453699115
    Total Energy =                       -422.9737645369908705
  Basis Set: 6-31G*
  Basis Set:
  Basis Set: 6-31G*
  Basis Set:
  @DF-RHF Final Energy:  -422.97377357744546
    Total Energy =                       -422.9737735774450584
  Basis Set: 6-31G*
  Basis Set:
  Basis Set: 6-31G*
  Basis Set:
  @DF-RHF Final Energy:  -422.97377507455934
    Total Energy =                       -422.9737750745596259
  Basis Set: 6-31G*
  Basis Set:
  Charge       = 0
  Multiplicity = 1
  Basis Set: 6-31G*
  Basis Set:

    Orbital Energies (a.u.)
    -----------------------

    Doubly Occupied:

       1A    -20.603661     2A    -20.545472     3A    -11.372301
       4A    -11.280872     5A    -11.235473     6A    -11.219140
       7A    -11.217943     8A    -11.216551     9A    -11.208739
      10A     -1.469355    11A     -1.362797    12A     -1.092870
      13A     -1.042166    14A     -0.985622    15A     -0.931164
      16A     -0.851183    17A     -0.788062    18A     -0.767537
      19A     -0.696606    20A     -0.683488    21A     -0.672151
      22A     -0.642979    23A     -0.616637    24A     -0.596874
      25A     -0.586595    26A     -0.563133    27A     -0.532630
      28A     -0.529834    29A     -0.521574    30A     -0.508175
      31A     -0.491888    32A     -0.467710    33A     -0.462057
      34A     -0.459652    35A     -0.454637    36A     -0.435579

  @DF-RHF Final Energy:  -422.97377550558582

   => Energetics <=

    Nuclear Repulsion Energy =            456.1947513606546067
    One-Electron Energy =               -1480.1108417213717985
    Two-Electron Energy =                 600.9423148551318263
    DFT Exchange-Correlation Energy =       0.0000000000000000
    Empirical Dispersion Energy =           0.0000000000000000
    PCM Polarization Energy =               0.0000000000000000
    EFP Energy =                            0.0000000000000000
    Total Energy =                       -422.9737755055853086
    Molecular point group: c1
  Basis Set: 6-31G*
  Basis Set:

  -Total Gradient:
     Atom            X                  Y                   Z
    ------   -----------------  -----------------  -----------------
       1        0.000005929329    -0.000001123839     0.000001433284
       2       -0.000003925394    -0.000001308616     0.000020333614
       3       -0.000004090216     0.000001284196    -0.000018074261
       4        0.000005988319     0.000004792354    -0.000010670910
       5       -0.000003515097    -0.000001277269    -0.000020343516
       6       -0.000003476120    -0.000000308499     0.000009061385
       7        0.000002465065    -0.000001179914     0.000007822138
       8       -0.001448907578    -0.001909028960     0.001255620311
       9       -0.000000656627     0.000001389279    -0.000002452352
      10       -0.000001766225     0.000000412294    -0.000001633066
      11       -0.000932619103    -0.001175683113     0.002269056411
      12        0.001369002325     0.001799242605    -0.001409986504
      13       -0.000004205646    -0.000002298569    -0.000000736758
      14        0.000006832219    -0.000003025156     0.000001804500
      15        0.001010483430     0.001289963354    -0.002102746201
      16        0.000001948808    -0.000002286682    -0.000002059194
      17        0.000001945130    -0.000002343821    -0.000001316957
      18       -0.000000288045     0.000003591973     0.000002775295
      19       -0.000003733524     0.000000212388     0.000000352697
      20        0.000001658627    -0.000001337904     0.000002075602
      21       -0.000000132211    -0.000000274063    -0.000000137393
      22        0.000000651459     0.000000432862    -0.000000224899
      23        0.000000411073     0.000000155099     0.000000046770

  **** Optimization is complete! (in 7 steps) ****
    Final optimized geometry and variables:
    Molecular point group: c1

    Geometry (in Angstrom), charge = 0, multiplicity = 1:

    O            1.739948003265     1.154286885107     0.168694777268
    C            1.597521881691    -0.025880878543     0.160449341205
    C            0.273671046454    -0.750720298116     0.157298251462
    O            2.613237608399    -0.879885959950     0.151702468054
    C           -0.930350895964     0.186095621904     0.176546908655
    H            0.258353015535    -1.393957479671    -0.718372930041
    H            0.266698827911    -1.418718431077     1.014352147784
    C           -2.257484921055    -0.578856379146     0.183783736374
    H           -0.879221343991     0.846358195760    -0.682749738553
    H           -0.871693306085     0.825067652802     1.052021577464
    C           -3.488168799194     0.340485017414     0.156241183575
    H           -2.284927136978    -1.239570215947    -0.681111919054
    H           -2.294162877515    -1.214052187000     1.065631457996
    C           -3.858579579639     0.819919316617    -1.249362493318
    H           -3.300477017175     1.210682191983     0.780840143569
    H           -4.340171231387    -0.178108564003     0.586433583184
    H           -3.042586528372     1.362764628267    -1.716416248500
    H           -4.717477966909     1.483358404354    -1.220455298144
    H           -4.109856389206    -0.018162051479    -1.893409474600
    C            3.917158368943    -0.327763310123     0.152281992016
    H            4.070887600017     0.284829107980    -0.724425152050
    H            4.593524939853    -1.168257693075     0.144443328528
    H            4.075476746741     0.272102820534     1.036932897280

  Mulliken Charges: (a.u.)
   Center  Symbol    Alpha    Beta     Spin     Total
       1     O     4.28614  4.28614  0.00000 -0.57228
       2     C     2.60519  2.60519  0.00000  0.78961
       3     C     3.20789  3.20789  0.00000 -0.41577
       4     O     4.30722  4.30722  0.00000 -0.61445
       5     C     3.15404  3.15404  0.00000 -0.30807
       6     H     0.40065  0.40065  0.00000  0.19871
       7     H     0.40078  0.40078  0.00000  0.19845
       8     C     3.15583  3.15583  0.00000 -0.31167
       9     H     0.41081  0.41081  0.00000  0.17837
      10     H     0.41171  0.41171  0.00000  0.17658
      11     C     3.15408  3.15408  0.00000 -0.30817
      12     H     0.42373  0.42373  0.00000  0.15255
      13     H     0.42132  0.42132  0.00000  0.15737
      14     C     3.24103  3.24103  0.00000 -0.48206
      15     H     0.42033  0.42033  0.00000  0.15935
      16     H     0.41969  0.41969  0.00000  0.16062
      17     H     0.41961  0.41961  0.00000  0.16078
      18     H     0.41879  0.41879  0.00000  0.16243
      19     H     0.42216  0.42216  0.00000  0.15568
      20     C     3.09244  3.09244  0.00000 -0.18487
      21     H     0.40909  0.40909  0.00000  0.18183
      22     H     0.40842  0.40842  0.00000  0.18316
      23     H     0.40907  0.40907  0.00000  0.18187

   Total alpha = 36.00000, Total beta = 36.00000, Total charge =  0.00000
