                              Psi4 1.0.54 Driver

  ==> Input File <==

--------------------------------------------------------------------------
set {
	reference rhf
	basis cc-pvtz
}

set_num_threads( 4 )
memory 2 gb

molecule MOL {
0 1

H	 -2.498963	 -0.741158	 -0.729149
O	 -2.346257	 -0.289210	 0.080372
C	 -1.183935	 0.486039	 -0.009831
C	 0.062853	 -0.375310	 0.027457
H	 -1.178881	 1.094526	 -0.908634
H	 -1.184406	 1.155156	 0.838676
O	 -0.035742	 -1.330319	 -0.977376
H	 0.154790	 -0.854935	 1.003368
H	 0.941498	 0.250781	 -0.112426
C	 1.060860	 -2.177643	 -1.080950
H	 1.213895	 -2.743412	 -0.164566
H	 0.870070	 -2.868808	 -1.888772
H	 1.971086	 -1.624427	 -1.299952

	symmetry c1
}
set optking {
	frozen_dihedral = ("
		8 4 3 5
	")
}

ee,wfn = optimize('scf', return_wfn=True)
oeprop( wfn, 'DIPOLE', 'QUADRUPOLE', 'MULLIKEN_CHARGES')
f=open( 'psi4out.xyz', 'w' )
f.write( "13  " )
f.write( str(ee) + "\n" )
f.write( MOL.save_string_xyz() )
f.close()
--------------------------------------------------------------------------

    Molecular point group: c1
  Charge       = 0
  Multiplicity = 1
  Basis Set: CC-PVTZ
  Basis Set:
  @DF-RHF Final Energy:  -268.06386525606877
    Total Energy =                       -268.0638652560689366
    Molecular point group: c1
  Basis Set: CC-PVTZ
  Basis Set:
  Basis Set: CC-PVTZ
  Basis Set:
  @DF-RHF Final Energy:  -268.06441070112953
    Total Energy =                       -268.0644107011297024
  Basis Set: CC-PVTZ
  Basis Set:
  Basis Set: CC-PVTZ
  Basis Set:
  @DF-RHF Final Energy:  -268.06513815188606
    Total Energy =                       -268.0651381518858329
  Basis Set: CC-PVTZ
  Basis Set:
  Basis Set: CC-PVTZ
  Basis Set:
  @DF-RHF Final Energy:  -268.06520842854314
    Total Energy =                       -268.0652084285430874
  Basis Set: CC-PVTZ
  Basis Set:
  Basis Set: CC-PVTZ
  Basis Set:
  @DF-RHF Final Energy:  -268.06521310304629
    Total Energy =                       -268.0652131030461760
  Basis Set: CC-PVTZ
  Basis Set:
  Charge       = 0
  Multiplicity = 1
  Basis Set: CC-PVTZ
  Basis Set:

    Orbital Energies (a.u.)
    -----------------------

    Doubly Occupied:

       1A    -20.561998     2A    -20.542266     3A    -11.272428
       4A    -11.271877     5A    -11.266864     6A     -1.398981
       7A     -1.359329     8A     -1.021681     9A     -0.923260
      10A     -0.836757    11A     -0.705313    12A     -0.683530
      13A     -0.668861    14A     -0.637198    15A     -0.585925
      16A     -0.584114    17A     -0.544464    18A     -0.495254
      19A     -0.484937    20A     -0.437215    21A     -0.429581

  @DF-RHF Final Energy:  -268.06521339903418

   => Energetics <=

    Nuclear Repulsion Energy =            194.8060992808551646
    One-Electron Energy =                -752.3189631607313004
    Two-Electron Energy =                 289.4476504808419577
    DFT Exchange-Correlation Energy =       0.0000000000000000
    Empirical Dispersion Energy =           0.0000000000000000
    PCM Polarization Energy =               0.0000000000000000
    EFP Energy =                            0.0000000000000000
    Total Energy =                       -268.0652133990341781
    Molecular point group: c1
  Basis Set: CC-PVTZ
  Basis Set:

  -Total Gradient:
     Atom            X                  Y                   Z
    ------   -----------------  -----------------  -----------------
       1        0.000008366745     0.000028531248     0.000024642784
       2        0.000011637079     0.000011125737    -0.000016402788
       3       -0.001155150100    -0.001748766737    -0.001331853165
       4       -0.001317702854    -0.002002536585    -0.000866251369
       5        0.001173313936     0.001766566332     0.001262013229
       6       -0.000015879858    -0.000003113451     0.000002482567
       7        0.000015214041     0.000003886625     0.000013373052
       8        0.001280729820     0.001934316175     0.000894744568
       9        0.000007659559     0.000005925016     0.000010918517
      10       -0.000004447645     0.000001176438     0.000004210006
      11        0.000003992742    -0.000003480038     0.000000994208
      12       -0.000004589182     0.000007040122     0.000001911554
      13       -0.000003144286    -0.000000670880    -0.000000783164

  **** Optimization is complete! (in 6 steps) ****
    Final optimized geometry and variables:
    Molecular point group: c1

    Geometry (in Angstrom), charge = 0, multiplicity = 1:

    H           -1.804117234267    -0.211652984498    -0.187294041510
    O           -1.848447054252     0.457605354275     0.473070757761
    C           -0.688430242832     1.227094187462     0.402316601725
    C            0.565106586811     0.380702129891     0.429853167457
    H           -0.680839538388     1.855949240584    -0.484487415272
    H           -0.688007924933     1.884294789135     1.262706610848
    O            0.492057899024    -0.546497293271    -0.607821455448
    H            0.658474707301    -0.120602726057     1.391212104017
    H            1.437226124259     1.022421229344     0.308257267818
    C            1.558075771257    -1.437557039041    -0.669596807159
    H            1.633637214746    -2.027913391419     0.240056120995
    H            1.386917511823    -2.101553890299    -1.504141541249
    H            2.500241700596    -0.917172609721    -0.823446154593

  Mulliken Charges: (a.u.)
   Center  Symbol    Alpha    Beta     Spin     Total
       1     H     0.38549  0.38549  0.00000  0.22903
       2     O     4.20804  4.20804  0.00000 -0.41608
       3     C     2.96018  2.96018  0.00000  0.07965
       4     C     2.97426  2.97426  0.00000  0.05147
       5     H     0.47130  0.47130  0.00000  0.05740
       6     H     0.46023  0.46023  0.00000  0.07955
       7     O     4.18414  4.18414  0.00000 -0.36829
       8     H     0.47018  0.47018  0.00000  0.05964
       9     H     0.47214  0.47214  0.00000  0.05571
      10     C     3.03007  3.03007  0.00000 -0.06015
      11     H     0.46846  0.46846  0.00000  0.06308
      12     H     0.44640  0.44640  0.00000  0.10721
      13     H     0.46911  0.46911  0.00000  0.06177

   Total alpha = 21.00000, Total beta = 21.00000, Total charge = -0.00000

*** Psi4 exiting successfully. Buy a developer a beer!
