  ==> Input File <==

--------------------------------------------------------------------------
set {
	reference rhf
	basis cc-pvtz
}

set_num_threads( 4 )
memory 2 gb

molecule MOL {
0 1

H	 -3.034039	 -0.667848	 0.004703
O	 -2.240597	 -1.171748	 0.000934
C	 -1.159675	 -0.364500	 0.000370
C	 -1.171483	 0.887930	 -0.579022
C	 -0.010672	 -0.841792	 0.611956
H	 -2.060503	 1.259101	 -1.055399
C	 -0.020887	 1.656628	 -0.540856
H	 -0.034100	 -1.820421	 1.050902
C	 1.135079	 -0.072964	 0.651171
H	 -0.025294	 2.630357	 -0.993188
C	 1.123395	 1.188629	 0.064458
C	 2.377528	 -0.582365	 1.337083
H	 2.007986	 1.796592	 0.082891
H	 3.261425	 -0.369436	 0.748686
H	 2.328348	 -1.650532	 1.499399
H	 2.504094	 -0.104317	 2.302533

	symmetry c1
}
set optking {
	frozen_dihedral = ("
		5 3 2 1
	")
}

ee = optimize('scf')
oeprop('DIPOLE', 'QUADRUPOLE', 'MULLIKEN_CHARGES')
f=open( 'psi4out.xyz', 'w' )
f.write( "16  " )
f.write( str(ee) + "\n" )
f.write( MOL.save_string_xyz() )
f.close()
--------------------------------------------------------------------------

    Molecular point group: c1
  Charge       = 0
  Multiplicity = 1
  Basis Set: CC-PVTZ
  Basis Set:
  @DF-RHF Final Energy:  -344.71947882540422
    Total Energy =                       -344.7194788254042805
    Molecular point group: c1
  Basis Set: CC-PVTZ
  Basis Set:
  Basis Set: CC-PVTZ
  Basis Set:
  @DF-RHF Final Energy:  -344.71952744915791
    Total Energy =                       -344.7195274491577379
  Basis Set: CC-PVTZ
  Basis Set:
  Basis Set: CC-PVTZ
  Basis Set:
  @DF-RHF Final Energy:  -344.71953637894887
    Total Energy =                       -344.7195363789489875
  Basis Set: CC-PVTZ
  Basis Set:
  Charge       = 0
  Multiplicity = 1
  Basis Set: CC-PVTZ
  Basis Set:

    Orbital Energies (a.u.)
    -----------------------

    Doubly Occupied:

       1A    -20.579256     2A    -11.292988     3A    -11.240473
       4A    -11.232517     5A    -11.219812     6A    -11.219236
       7A    -11.214760     8A    -11.214319     9A     -1.408983
      10A     -1.154316    11A     -1.046342    12A     -1.008380
      13A     -0.938671    14A     -0.827219    15A     -0.824733
      16A     -0.717837    17A     -0.683457    18A     -0.657727
      19A     -0.616605    20A     -0.594994    21A     -0.576298
      22A     -0.570887    23A     -0.560444    24A     -0.530233
      25A     -0.507103    26A     -0.484933    27A     -0.471773
      28A     -0.333341    29A     -0.313309

  @DF-RHF Final Energy:  -344.71953725623024

   => Energetics <=

    Nuclear Repulsion Energy =            346.2647343319700326
    One-Electron Energy =               -1153.8866471799613009
    Two-Electron Energy =                 462.9023755917609151
    DFT Exchange-Correlation Energy =       0.0000000000000000
    Empirical Dispersion Energy =           0.0000000000000000
    PCM Polarization Energy =               0.0000000000000000
    EFP Energy =                            0.0000000000000000
    Total Energy =                       -344.7195372562304101
    Molecular point group: c1
  Basis Set: CC-PVTZ
  Basis Set:

  -Total Gradient:
     Atom            X                  Y                   Z
    ------   -----------------  -----------------  -----------------
       1        0.000026913165     0.000003891487     0.002604432067
       2       -0.000285615133     0.000292303490    -0.002466436936
       3        0.000811436116    -0.000934870592    -0.001769419433
       4       -0.000042541652    -0.000114500740     0.000022706373
       5       -0.000457119077     0.000781024329     0.001610599260
       6        0.000007501259     0.000001161894    -0.000003725489
       7        0.000152862416     0.000028692604     0.000007236725
       8       -0.000016028254    -0.000017675639     0.000025774831
       9       -0.000043708847    -0.000183252579    -0.000017342413
      10       -0.000018931559     0.000007404971     0.000014233891
      11       -0.000113801761     0.000119792674    -0.000041963082
      12       -0.000017696931     0.000017051311     0.000019064453
      13        0.000006897977    -0.000004797682    -0.000004005717
      14       -0.000015940080     0.000005909759    -0.000005461940
      15       -0.000001766363    -0.000000527018    -0.000004935818
      16        0.000007538728    -0.000001608271     0.000009243230

  **** Optimization is complete! (in 4 steps) ****
    Final optimized geometry and variables:
    Molecular point group: c1

    Geometry (in Angstrom), charge = 0, multiplicity = 1:

    H           -3.003088188948    -0.711030495024    -0.213834302728
    O           -2.211277541490    -1.217696062853    -0.214429510874
    C           -1.125133029050    -0.408838985737    -0.202768983220
    C           -1.138619152788     0.843628242285    -0.781778471953
    C            0.021256098995    -0.883637691401     0.412332362649
    H           -2.025830999214     1.206746703600    -1.266540621558
    C            0.009990105571     1.614284511756    -0.741278677875
    H           -0.004810379756    -1.859093949823     0.858255409091
    C            1.170968805275    -0.118308490799     0.444080556918
    H            0.005479257915     2.588828042510    -1.191796562520
    C            1.156366355684     1.143238165900    -0.140359856478
    C            2.414298802704    -0.627441745708     1.128813030768
    H            2.041237668839     1.751097374221    -0.123897492346
    H            3.296599846770    -0.420088750540     0.535997001155
    H            2.362837815729    -1.694765327441     1.296010471190
    H            2.546397167268    -0.145441808357     2.091569623099

  Mulliken Charges: (a.u.)
   Center  Symbol    Alpha    Beta     Spin     Total
       1     H     0.38592  0.38592  0.00000  0.22816
       2     O     4.18054  4.18054  0.00000 -0.36108
       3     C     2.84511  2.84511  0.00000  0.30978
       4     C     3.14320  3.14320  0.00000 -0.28640
       5     C     3.13962  3.13962  0.00000 -0.27925
       6     H     0.43038  0.43038  0.00000  0.13924
       7     C     3.05811  3.05811  0.00000 -0.11623
       8     H     0.42108  0.42108  0.00000  0.15784
       9     C     2.93725  2.93725  0.00000  0.12551
      10     H     0.42288  0.42288  0.00000  0.15423
      11     C     3.11629  3.11629  0.00000 -0.23258
      12     C     3.14666  3.14666  0.00000 -0.29332
      13     H     0.42766  0.42766  0.00000  0.14467
      14     H     0.44806  0.44806  0.00000  0.10389
      15     H     0.45011  0.45011  0.00000  0.09979
      16     H     0.44712  0.44712  0.00000  0.10576

   Total alpha = 29.00000, Total beta = 29.00000, Total charge =  0.00000
