  ==> Input File <==

--------------------------------------------------------------------------
set {
	reference rhf
	basis 6-31G*
}

set_num_threads( 1 )
memory 2 gb

molecule MOL {
0 1

H	 2.312825	 -0.146307	 0.309333
O	 1.586534	 -0.678666	 -0.000226
C	 0.489431	 0.077273	 0.000046
C	 -0.764129	 -0.759190	 0.000191
O	 0.537743	 1.263962	 0.000257
C	 -2.038368	 0.075731	 -0.000248
H	 -0.717284	 -1.412404	 -0.866059
H	 -0.717458	 -1.411724	 0.866967
H	 -2.086483	 0.712501	 -0.875098
H	 -2.908485	 -0.571682	 -0.000042
H	 -2.086576	 0.713280	 0.874068

	symmetry c1
}
set optking {
	frozen_dihedral = ("
		2 3 4 7
	")
}

ee = energy('scf')
oeprop('DIPOLE', 'QUADRUPOLE', 'MULLIKEN_CHARGES')
f=open( 'psi4out.xyz', 'w' )
f.write( "11  " )
f.write( str(ee) + "\n" )
f.write( MOL.save_string_xyz() )
f.close()
--------------------------------------------------------------------------

    Molecular point group: c1

    Geometry (in Angstrom), charge = 0, multiplicity = 1:

       Center              X                  Y                   Z               Mass
    ------------   -----------------  -----------------  -----------------  -----------------
           H          2.313245953453    -0.145694212001     0.305119525264     1.007825032070
           O          1.586954953453    -0.678053212001    -0.004439474736    15.994914619560
           C          0.489851953453     0.077885787999    -0.004167474736    12.000000000000
           C         -0.763708046547    -0.758577212001    -0.004022474736    12.000000000000
           O          0.538163953453     1.264574787999    -0.003956474736    15.994914619560
           C         -2.037947046547     0.076343787999    -0.004461474736    12.000000000000
           H         -0.716863046547    -1.411791212001    -0.870272474736     1.007825032070
           H         -0.717037046547    -1.411111212001     0.862753525264     1.007825032070
           H         -2.086062046547     0.713113787999    -0.879311474736     1.007825032070
           H         -2.908064046547    -0.571069212001    -0.004255474736     1.007825032070
           H         -2.086155046547     0.713892787999     0.869854525264     1.007825032070

  Charge       = 0
  Multiplicity = 1
  Basis Set: 6-31G*
  Basis Set:

    Orbital Energies (a.u.)
    -----------------------

    Doubly Occupied:

       1A    -20.612139     2A    -20.553469     3A    -11.381972
       4A    -11.244037     5A    -11.220316     6A     -1.475223
       7A     -1.367129     8A     -1.065071     9A     -0.916457
      10A     -0.801647    11A     -0.702780    12A     -0.689971
      13A     -0.662399    14A     -0.602804    15A     -0.584807
      16A     -0.531352    17A     -0.525828    18A     -0.505003
      19A     -0.480422    20A     -0.445917

  @DF-RHF Final Energy:  -266.84363385207234

   => Energetics <=

    Nuclear Repulsion Energy =            179.7803345681826102
    One-Electron Energy =                -720.5104498936472055
    Two-Electron Energy =                 273.8864814733928483
    DFT Exchange-Correlation Energy =       0.0000000000000000
    Empirical Dispersion Energy =           0.0000000000000000
    PCM Polarization Energy =               0.0000000000000000
    EFP Energy =                            0.0000000000000000
    Total Energy =                       -266.8436338520717186

  Mulliken Charges: (a.u.)
   Center  Symbol    Alpha    Beta     Spin     Total
       1     H     0.26716  0.26716  0.00000  0.46568
       2     O     4.35098  4.35098  0.00000 -0.70195
       3     C     2.62651  2.62651  0.00000  0.74698
       4     C     3.20803  3.20803  0.00000 -0.41606
       5     O     4.27607  4.27607  0.00000 -0.55214
       6     C     3.23958  3.23958  0.00000 -0.47917
       7     H     0.39772  0.39772  0.00000  0.20456
       8     H     0.39904  0.39904  0.00000  0.20192
       9     H     0.40866  0.40866  0.00000  0.18268
      10     H     0.41676  0.41676  0.00000  0.16649
      11     H     0.40949  0.40949  0.00000  0.18102

   Total alpha = 20.00000, Total beta = 20.00000, Total charge =  0.00000
