  ==> Input File <==

--------------------------------------------------------------------------
set {
	reference rhf
	basis 6-31G*
}

set_num_threads( 4 )
memory 2 gb

molecule MOL {
0 1

O	 -1.342385	 -1.377796	 1.895062
C	 -0.558659	 -1.279025	 1.006376
C	 0.709149	 -2.087529	 0.867629
O	 -0.698257	 -0.426125	 0.001050
C	 0.910858	 -3.082146	 2.003858
H	 1.536234	 -1.386695	 0.804309
H	 0.671128	 -2.589131	 -0.094771
H	 0.964768	 -2.575954	 2.960010
H	 1.832407	 -3.635408	 1.857347
H	 0.091970	 -3.789514	 2.052630
C	 -1.853104	 0.406779	 0.000512
C	 -3.066105	 -0.499277	 -0.000959
H	 -1.828410	 1.043074	 -0.873618
H	 -1.829857	 1.042383	 0.875188
H	 -3.071820	 -1.133106	 -0.880383
H	 -3.972708	 0.097145	 -0.001528
H	 -3.073405	 -1.133813	 0.877999

	symmetry c1
}
set optking {
	frozen_dihedral = ("
		2 4 11 13
	")
}

ee = optimize('scf')
oeprop('DIPOLE', 'QUADRUPOLE', 'MULLIKEN_CHARGES')
f=open( 'psi4out.xyz', 'w' )
f.write( "17  " )
f.write( str(ee) + "\n" )
f.write( MOL.save_string_xyz() )
f.close()
--------------------------------------------------------------------------

    Molecular point group: c1
  Charge       = 0
  Multiplicity = 1
  Basis Set: 6-31G*
  Basis Set:
  @DF-RHF Final Energy:  -344.90100607466155
    Total Energy =                       -344.9010060746617228
    Molecular point group: c1
  Basis Set: 6-31G*
  Basis Set:
  Basis Set: 6-31G*
  Basis Set:
  @DF-RHF Final Energy:  -344.90826301157881
    Total Energy =                       -344.9082630115787538
  Basis Set: 6-31G*
  Basis Set:
  Basis Set: 6-31G*
  Basis Set:
  @DF-RHF Final Energy:  -344.90909274448228
    Total Energy =                       -344.9090927444818817
  Basis Set: 6-31G*
  Basis Set:
  Basis Set: 6-31G*
  Basis Set:
  @DF-RHF Final Energy:  -344.90845790700439
    Total Energy =                       -344.9084579070045038
  Basis Set: 6-31G*
  Basis Set:
  Basis Set: 6-31G*
  Basis Set:
  @DF-RHF Final Energy:  -344.90915480760799
    Total Energy =                       -344.9091548076079334
  Basis Set: 6-31G*
  Basis Set:
  Basis Set: 6-31G*
  Basis Set:
  @DF-RHF Final Energy:  -344.90916016935756
    Total Energy =                       -344.9091601693575058
  Basis Set: 6-31G*
  Basis Set:
  Basis Set: 6-31G*
  Basis Set:
  @DF-RHF Final Energy:  -344.90916153041223
    Total Energy =                       -344.9091615304120069
  Basis Set: 6-31G*
  Basis Set:
  Charge       = 0
  Multiplicity = 1
  Basis Set: 6-31G*
  Basis Set:

    Orbital Energies (a.u.)
    -----------------------

    Doubly Occupied:

       1A    -20.600276     2A    -20.544233     3A    -11.372278
       4A    -11.287185     5A    -11.237088     6A    -11.215832
       7A    -11.215564     8A     -1.465904     9A     -1.362191
      10A     -1.068515    11A     -1.027615    12A     -0.916970
      13A     -0.855415    14A     -0.752563    15A     -0.702208
      16A     -0.679535    17A     -0.661029    18A     -0.624580
      19A     -0.610341    20A     -0.567255    21A     -0.545860
      22A     -0.529670    23A     -0.520905    24A     -0.516793
      25A     -0.495615    26A     -0.491338    27A     -0.450605
      28A     -0.433072

  @DF-RHF Final Energy:  -344.90916201022981

   => Energetics <=

    Nuclear Repulsion Energy =            319.4956869361461713
    One-Electron Energy =               -1103.3088333886576038
    Two-Electron Energy =                 438.9039844422816259
    DFT Exchange-Correlation Energy =       0.0000000000000000
    Empirical Dispersion Energy =           0.0000000000000000
    PCM Polarization Energy =               0.0000000000000000
    EFP Energy =                            0.0000000000000000
    Total Energy =                       -344.9091620102298066
    Molecular point group: c1
  Basis Set: 6-31G*
  Basis Set:

  -Total Gradient:
     Atom            X                  Y                   Z
    ------   -----------------  -----------------  -----------------
       1        0.000025610865     0.000017906598     0.000020572545
       2       -0.002076739040    -0.003240561529    -0.002510511243
       3       -0.000010249056    -0.000031172431    -0.000016726920
       4        0.002566398120     0.004066785349     0.003171340765
       5        0.000014336197     0.000009322525    -0.000001628034
       6        0.000008664673     0.000005807861     0.000009604334
       7        0.000014994286     0.000010313024     0.000005999692
       8       -0.000002624254    -0.000000231339    -0.000003717253
       9       -0.000001999745    -0.000004048114     0.000001220912
      10       -0.000002000704    -0.000003744375    -0.000001060858
      11        0.001802234919     0.002713618490     0.002099572437
      12       -0.000025857568    -0.000029652262     0.000001224406
      13       -0.002294313727    -0.003555015860    -0.002740541586
      14       -0.000029142389     0.000019174190    -0.000004937896
      15        0.000003385770     0.000002595341    -0.000011819099
      16        0.000011804696     0.000010317654    -0.000001596588
      17       -0.000004503042     0.000008584878    -0.000016995611

  **** Optimization is complete! (in 8 steps) ****
    Final optimized geometry and variables:
    Molecular point group: c1

    Geometry (in Angstrom), charge = 0, multiplicity = 1:

    O           -0.402192790070    -0.189101075121     1.161868764898
    C            0.320015095383    -0.094532211708     0.221765072787
    C            1.563453173364    -0.922127191361    -0.003044384520
    O            0.144135773012     0.775719533860    -0.762276881617
    C            1.844684180906    -1.899663265332     1.131093747937
    H            2.390928585692    -0.234240962130    -0.147416017820
    H            1.440498592982    -1.440523028158    -0.949490220587
    H            1.984059285213    -1.377689497016     2.070026439980
    H            2.743709857350    -2.468825696251     0.919798216808
    H            1.023340353319    -2.593907256914     1.260201509977
    C           -1.042781321285     1.565291462644    -0.802481558812
    C           -2.314523500755     0.744617277574    -0.955393402724
    H           -0.915256100218     2.167401377738    -1.690126802151
    H           -1.079513460935     2.199463539121     0.072233989471
    H           -2.231171280993     0.079442000590    -1.809053378311
    H           -3.146932823867     1.418252064886    -1.136318073166
    H           -2.529730050220     0.161033573691    -0.072962060879

  Mulliken Charges: (a.u.)
   Center  Symbol    Alpha    Beta     Spin     Total
       1     O     4.28751  4.28751  0.00000 -0.57502
       2     C     2.60386  2.60386  0.00000  0.79227
       3     C     3.20499  3.20499  0.00000 -0.40997
       4     O     4.31606  4.31606  0.00000 -0.63212
       5     C     3.23878  3.23878  0.00000 -0.47755
       6     H     0.40017  0.40017  0.00000  0.19966
       7     H     0.40137  0.40137  0.00000  0.19727
       8     H     0.41023  0.41023  0.00000  0.17953
       9     H     0.41827  0.41827  0.00000  0.16346
      10     H     0.41009  0.41009  0.00000  0.17982
      11     C     2.99944  2.99944  0.00000  0.00111
      12     C     3.26331  3.26331  0.00000 -0.52663
      13     H     0.40951  0.40951  0.00000  0.18099
      14     H     0.40890  0.40890  0.00000  0.18219
      15     H     0.41621  0.41621  0.00000  0.16759
      16     H     0.41790  0.41790  0.00000  0.16420
      17     H     0.39340  0.39340  0.00000  0.21321

   Total alpha = 28.00000, Total beta = 28.00000, Total charge = -0.00000
