                              Psi4 1.0.54 Driver

  ==> Input File <==

--------------------------------------------------------------------------
set {
	reference rhf
	basis cc-pvtz
}

set_num_threads( 4 )
memory 2 gb

molecule MOL {
0 1

O	 3.219313	 0.959291	 -0.614106
C	 2.698710	 0.058177	 -0.050237
C	 1.246364	 -0.005813	 0.348416
O	 3.344101	 -1.038700	 0.312317
C	 0.453207	 1.232821	 -0.049003
H	 0.839270	 -0.907818	 -0.092281
H	 1.216683	 -0.160521	 1.422434
C	 -0.998367	 1.217982	 0.432195
H	 0.481498	 1.345443	 -1.127236
H	 0.951413	 2.105557	 0.354893
C	 -1.882951	 0.151251	 -0.211235
H	 -1.429490	 2.193659	 0.228843
H	 -1.019755	 1.099323	 1.513279
C	 -3.342450	 0.243269	 0.226009
H	 -1.826223	 0.246578	 -1.293162
H	 -1.508033	 -0.839650	 0.027695
C	 -4.234517	 -0.821434	 -0.405970
H	 -3.730149	 1.228245	 -0.022691
H	 -3.398860	 0.159952	 1.308941
C	 -4.092478	 -2.190224	 0.251310
H	 -5.271161	 -0.500781	 -0.348770
H	 -4.000100	 -0.904537	 -1.463798
H	 -4.738199	 -2.921868	 -0.220628
H	 -4.354258	 -2.148146	 1.303360
H	 -3.072952	 -2.554564	 0.180378
C	 4.720529	 -1.114346	 0.001449
H	 4.874321	 -1.055557	 -1.065852
H	 5.057824	 -2.067950	 0.373977
H	 5.264321	 -0.313596	 0.480350

	symmetry c1
}
set optking {
	frozen_dihedral = ("
		21 17 14 11
	")
}

ee,wfn = optimize('scf', return_wfn=True)
oeprop( wfn, 'DIPOLE', 'QUADRUPOLE', 'MULLIKEN_CHARGES')
f=open( 'psi4out.xyz', 'w' )
f.write( "29  " )
f.write( str(ee) + "\n" )
f.write( MOL.save_string_xyz() )
f.close()
--------------------------------------------------------------------------

    Molecular point group: c1
  Charge       = 0
  Multiplicity = 1
  Basis Set: CC-PVTZ
  Basis Set:
  @DF-RHF Final Energy:  -501.22258709967718
    Total Energy =                       -501.2225870996776393
    Molecular point group: c1
  Basis Set: CC-PVTZ
  Basis Set:
  Basis Set: CC-PVTZ
  Basis Set:
  @DF-RHF Final Energy:  -501.22279111277749
    Total Energy =                       -501.2227911127770312
  Basis Set: CC-PVTZ
  Basis Set:
  Basis Set: CC-PVTZ
  Basis Set:
  @DF-RHF Final Energy:  -501.22279811146961
    Total Energy =                       -501.2227981114699560
  Basis Set: CC-PVTZ
  Basis Set:
  Basis Set: CC-PVTZ
  Basis Set:
  @DF-RHF Final Energy:  -501.22273543026688
    Total Energy =                       -501.2227354302667663
  Basis Set: CC-PVTZ
  Basis Set:
  Basis Set: CC-PVTZ
  Basis Set:
  @DF-RHF Final Energy:  -501.22281616300324
    Total Energy =                       -501.2228161630030172
  Basis Set: CC-PVTZ
  Basis Set:
  Basis Set: CC-PVTZ
  Basis Set:
  @DF-RHF Final Energy:  -501.22281486063343
    Total Energy =                       -501.2228148606329796
  Basis Set: CC-PVTZ
  Basis Set:
  Charge       = 0
  Multiplicity = 1
  Basis Set: CC-PVTZ
  Basis Set:

    Orbital Energies (a.u.)
    -----------------------

    Doubly Occupied:

       1A    -20.596022     2A    -20.533872     3A    -11.364285
       4A    -11.278266     5A    -11.233004     6A    -11.217042
       7A    -11.215456     8A    -11.214151     9A    -11.213480
      10A    -11.212462    11A    -11.207565    12A     -1.471911
      13A     -1.365504    14A     -1.099242    15A     -1.067421
      16A     -1.019502    17A     -0.977091    18A     -0.929045
      19A     -0.869126    20A     -0.802650    21A     -0.783209
      22A     -0.765868    23A     -0.703015    24A     -0.685498
      25A     -0.676020    26A     -0.643635    27A     -0.630757
      28A     -0.608809    29A     -0.597313    30A     -0.589553
      31A     -0.560218    32A     -0.555544    33A     -0.535609
      34A     -0.526337    35A     -0.522605    36A     -0.510709
      37A     -0.496999    38A     -0.477368    39A     -0.473968
      40A     -0.463204    41A     -0.459844    42A     -0.451645
      43A     -0.444237    44A     -0.437772

  @DF-RHF Final Energy:  -501.22281655128643

   => Energetics <=

    Nuclear Repulsion Energy =            617.0865099801445695
    One-Electron Energy =               -1905.6449978400785312
    Two-Electron Energy =                 787.3356713086474201
    DFT Exchange-Correlation Energy =       0.0000000000000000
    Empirical Dispersion Energy =           0.0000000000000000
    PCM Polarization Energy =               0.0000000000000000
    EFP Energy =                            0.0000000000000000
    Total Energy =                       -501.2228165512864280
    Molecular point group: c1
  Basis Set: CC-PVTZ
  Basis Set:

  -Total Gradient:
     Atom            X                  Y                   Z
    ------   -----------------  -----------------  -----------------
       1       -0.000005033832     0.000000915629    -0.000001470010
       2        0.000003756824     0.000007376742     0.000004527674
       3       -0.000001810703    -0.000003179607    -0.000002343448
       4       -0.000003777538    -0.000008746832     0.000002623795
       5        0.000000217311     0.000000455563    -0.000000144312
       6        0.000000705863    -0.000000068341     0.000000205294
       7        0.000002347195     0.000000210499    -0.000000333015
       8       -0.000000765783    -0.000000697376    -0.000003281664
       9       -0.000001526415    -0.000000375168    -0.000000123592
      10       -0.000001299370     0.000001248599    -0.000000028170
      11       -0.000251357517     0.000828071743    -0.001047861762
      12        0.000000357239     0.000001380872     0.000000327960
      13        0.000000685454    -0.000001762155    -0.000001204617
      14        0.000394929548    -0.000978753630     0.001104575078
      15        0.000000469364    -0.000000751384    -0.000000720187
      16        0.000000307578    -0.000000768473     0.000000747666
      17       -0.000313821949    -0.000651987318     0.001590212427
      18       -0.000000446295     0.000003107960     0.000002124200
      19        0.000000458892    -0.000000381594    -0.000000666813
      20       -0.000000082855    -0.000006841913     0.000003027190
      21        0.000171416107     0.000810836579    -0.001646974654
      22        0.000000241832    -0.000001928331    -0.000000039302
      23       -0.000000293925    -0.000000507242    -0.000000074523
      24       -0.000000147818     0.000000911483    -0.000001940445
      25        0.000001027789     0.000000868378     0.000000423826
      26        0.000002349597     0.000003228079    -0.000002166150
      27        0.000001311972    -0.000000560681     0.000000651919
      28       -0.000001254703    -0.000000095934     0.000000410032
      29        0.000001036144    -0.000001206145    -0.000000484395

  **** Optimization is complete! (in 7 steps) ****
    Final optimized geometry and variables:
    Molecular point group: c1

    Geometry (in Angstrom), charge = 0, multiplicity = 1:

    O            3.069839635463     1.109834401329    -0.641726078663
    C            2.556103037834     0.207839849319    -0.072993537030
    C            1.104846389245     0.136017070442     0.328443715514
    O            3.209297215587    -0.883325736169     0.292836196813
    C            0.302880293319     1.367827584660    -0.072583763687
    H            0.703007926313    -0.770423882193    -0.108019404777
    H            1.077915779723    -0.014669670682     1.403097554050
    C           -1.147709385395     1.345726153577     0.411337133675
    H            0.328520843871     1.476264951978    -1.151319035630
    H            0.796136479498     2.245436718948     0.326842753143
    C           -2.027167002228     0.271728545298    -0.227421870748
    H           -1.584974301255     2.318341657546     0.206165536171
    H           -1.166337280816     1.229949433697     1.492762746508
    C           -3.489949472452     0.372789282659     0.202939361087
    H           -1.971156340170     0.362463594798    -1.309668255985
    H           -1.643539899183    -0.713195712546     0.017210403692
    C           -4.404396030450    -0.689238220350    -0.414270640688
    H           -3.858850229347     1.355934616592    -0.075283899459
    H           -3.556677573089     0.321149991481     1.287091789372
    C           -4.294846530567    -2.067840965452     0.231229766211
    H           -5.432683557640    -0.347313546399    -0.353196779962
    H           -4.186258934962    -0.770673216683    -1.476046181705
    H           -4.967511519004    -2.773043856804    -0.243475080765
    H           -4.551635961693    -2.024607608277     1.284560476621
    H           -3.291959901938    -2.471518361972     0.152743314096
    C            4.585624127794    -0.951303623504    -0.020325861575
    H            4.737038625940    -0.895870961489    -1.088148550999
    H            4.929869071808    -1.901155341014     0.355433485422
    H            5.125086553361    -0.145075173947     0.454266817844

  Mulliken Charges: (a.u.)
   Center  Symbol    Alpha    Beta     Spin     Total
       1     O     4.19698  4.19698  0.00000 -0.39395
       2     C     2.80479  2.80479  0.00000  0.39043
       3     C     3.10172  3.10172  0.00000 -0.20344
       4     O     4.14724  4.14724  0.00000 -0.29448
       5     C     3.09222  3.09222  0.00000 -0.18444
       6     H     0.43963  0.43963  0.00000  0.12075
       7     H     0.43980  0.43980  0.00000  0.12041
       8     C     3.10325  3.10325  0.00000 -0.20649
       9     H     0.44625  0.44625  0.00000  0.10751
      10     H     0.43957  0.43957  0.00000  0.12086
      11     C     3.09396  3.09396  0.00000 -0.18792
      12     H     0.44533  0.44533  0.00000  0.10933
      13     H     0.45349  0.45349  0.00000  0.09301
      14     C     3.09442  3.09442  0.00000 -0.18884
      15     H     0.45293  0.45293  0.00000  0.09414
      16     H     0.45230  0.45230  0.00000  0.09539
      17     C     3.09019  3.09019  0.00000 -0.18037
      18     H     0.44829  0.44829  0.00000  0.10342
      19     H     0.45487  0.45487  0.00000  0.09027
      20     C     3.14939  3.14939  0.00000 -0.29879
      21     H     0.44778  0.44778  0.00000  0.10445
      22     H     0.45571  0.45571  0.00000  0.08858
      23     H     0.44700  0.44700  0.00000  0.10600
      24     H     0.45508  0.45508  0.00000  0.08984
      25     H     0.45581  0.45581  0.00000  0.08838
      26     C     3.03821  3.03821  0.00000 -0.07641
      27     H     0.45436  0.45436  0.00000  0.09129
      28     H     0.44526  0.44526  0.00000  0.10948
      29     H     0.45420  0.45420  0.00000  0.09159

   Total alpha = 44.00000, Total beta = 44.00000, Total charge = -0.00000

*** Psi4 exiting successfully. Buy a developer a beer!
