  ==> Input File <==

--------------------------------------------------------------------------
set {
	reference rhf
	basis 6-31G*
}

set_num_threads( 1 )
memory 2 gb

molecule MOL {
0 1

O	 2.862325	 1.357334	 0.000267
C	 2.843464	 0.164689	 -0.000222
C	 1.546494	 -0.624492	 -0.000609
C	 4.124123	 -0.644674	 -0.000428
C	 0.291004	 0.242674	 0.000989
H	 1.557904	 -1.283758	 -0.867573
H	 1.558622	 -1.285963	 0.864672
C	 -0.248609	 0.495643	 -1.407765
H	 0.512035	 1.187725	 0.486945
H	 -0.471109	 -0.235846	 0.607908
C	 -1.506883	 1.365333	 -1.418557
H	 0.521856	 0.972485	 -2.011961
H	 -0.466640	 -0.456223	 -1.889929
C	 -2.052659	 1.623011	 -2.824169
H	 -1.289897	 2.317413	 -0.937432
H	 -2.278063	 0.889205	 -0.815582
C	 -3.309413	 2.492635	 -2.826737
H	 -1.283062	 2.100017	 -3.427500
H	 -2.271357	 0.672073	 -3.305569
H	 -3.114519	 3.464422	 -2.381994
H	 -3.671848	 2.657966	 -3.836691
H	 -4.110203	 2.025843	 -2.260182
H	 4.165367	 -1.288615	 -0.874074
H	 4.976217	 0.020734	 -0.001915
H	 4.166763	 -1.286207	 0.874930

	symmetry c1
}
set optking {
	frozen_dihedral = ("
		9 5 8 12,
		15 11 8 12,
		15 11 14 18,
		1 2 3 6
	")
}

ee = energy('scf')
oeprop('DIPOLE', 'QUADRUPOLE', 'MULLIKEN_CHARGES')
f=open( 'psi4out.xyz', 'w' )
f.write( "25  " )
f.write( str(ee) + "\n" )
f.write( MOL.save_string_xyz() )
f.close()
--------------------------------------------------------------------------

    Molecular point group: c1

    Geometry (in Angstrom), charge = 0, multiplicity = 1:

       Center              X                  Y                   Z               Mass
    ------------   -----------------  -----------------  -----------------  -----------------
           O          2.358709775021     0.626445814529     0.949816566446    15.994914619560
           C          2.339848775021    -0.566199185471     0.949327566446    12.000000000000
           C          1.042878775021    -1.355380185471     0.948940566446    12.000000000000
           C          3.620507775021    -1.375562185471     0.949121566446    12.000000000000
           C         -0.212611224979    -0.488214185471     0.950538566446    12.000000000000
           H          1.054288775021    -2.014646185471     0.081976566446     1.007825032070
           H          1.055006775021    -2.016851185471     1.814221566446     1.007825032070
           C         -0.752224224979    -0.235245185471    -0.458215433554    12.000000000000
           H          0.008419775021     0.456836814529     1.436494566446     1.007825032070
           H         -0.974724224979    -0.966734185471     1.557457566446     1.007825032070
           C         -2.010498224979     0.634444814529    -0.469007433554    12.000000000000
           H          0.018240775021     0.241596814529    -1.062411433554     1.007825032070
           H         -0.970255224979    -1.187111185471    -0.940379433554     1.007825032070
           C         -2.556274224979     0.892122814529    -1.874619433554    12.000000000000
           H         -1.793512224979     1.586524814529     0.012117566446     1.007825032070
           H         -2.781678224979     0.158316814529     0.133967566446     1.007825032070
           C         -3.813028224979     1.761746814529    -1.877187433554    12.000000000000
           H         -1.786677224979     1.369128814529    -2.477950433554     1.007825032070
           H         -2.774972224979    -0.058815185471    -2.356019433554     1.007825032070
           H         -3.618134224979     2.733533814529    -1.432444433554     1.007825032070
           H         -4.175463224979     1.927077814529    -2.887141433554     1.007825032070
           H         -4.613818224979     1.294954814529    -1.310632433554     1.007825032070
           H          3.661751775021    -2.019503185471     0.075475566446     1.007825032070
           H          4.472601775021    -0.710154185471     0.947634566446     1.007825032070
           H          3.663147775021    -2.017095185471     1.824479566446     1.007825032070

  Charge       = 0
  Multiplicity = 1
  Basis Set: 6-31G*
  Basis Set:

    Orbital Energies (a.u.)
    -----------------------

    Doubly Occupied:

       1A    -20.551440     2A    -11.327176     3A    -11.230996
       4A    -11.228992     5A    -11.214398     6A    -11.212724
       7A    -11.212417     8A    -11.210085     9A    -11.206012
      10A     -1.397060    11A     -1.091182    12A     -1.054762
      13A     -1.013763    14A     -0.967456    15A     -0.888473
      16A     -0.814687    17A     -0.788331    18A     -0.729146
      19A     -0.668729    20A     -0.638075    21A     -0.633309
      22A     -0.622171    23A     -0.590764    24A     -0.583604
      25A     -0.575310    26A     -0.556688    27A     -0.532629
      28A     -0.525052    29A     -0.514488    30A     -0.496814
      31A     -0.483236    32A     -0.471917    33A     -0.461777
      34A     -0.458162    35A     -0.440073    36A     -0.402355

  @DF-RHF Final Energy:  -387.13395204598396

   => Energetics <=

    Nuclear Repulsion Energy =            445.3564736336325041
    One-Electron Energy =               -1407.3923771692516311
    Two-Electron Energy =                 574.9019514896338023
    DFT Exchange-Correlation Energy =       0.0000000000000000
    Empirical Dispersion Energy =           0.0000000000000000
    PCM Polarization Energy =               0.0000000000000000
    EFP Energy =                            0.0000000000000000
    Total Energy =                       -387.1339520459853247

  Mulliken Charges: (a.u.)
   Center  Symbol    Alpha    Beta     Spin     Total
       1     O     4.26124  4.26124  0.00000 -0.52248
       2     C     2.73699  2.73699  0.00000  0.52603
       3     C     3.21387  3.21387  0.00000 -0.42775
       4     C     3.28688  3.28688  0.00000 -0.57375
       5     C     3.15457  3.15457  0.00000 -0.30915
       6     H     0.40833  0.40833  0.00000  0.18335
       7     H     0.40692  0.40692  0.00000  0.18615
       8     C     3.15533  3.15533  0.00000 -0.31066
       9     H     0.39983  0.39983  0.00000  0.20033
      10     H     0.42122  0.42122  0.00000  0.15755
      11     C     3.15165  3.15165  0.00000 -0.30330
      12     H     0.41682  0.41682  0.00000  0.16636
      13     H     0.42670  0.42670  0.00000  0.14661
      14     C     3.15163  3.15163  0.00000 -0.30326
      15     H     0.42027  0.42027  0.00000  0.15947
      16     H     0.42531  0.42531  0.00000  0.14937
      17     C     3.23928  3.23928  0.00000 -0.47856
      18     H     0.42204  0.42204  0.00000  0.15592
      19     H     0.42449  0.42449  0.00000  0.15103
      20     H     0.42102  0.42102  0.00000  0.15796
      21     H     0.41985  0.41985  0.00000  0.16030
      22     H     0.42244  0.42244  0.00000  0.15511
      23     H     0.40839  0.40839  0.00000  0.18323
      24     H     0.39642  0.39642  0.00000  0.20715
      25     H     0.40850  0.40850  0.00000  0.18299

   Total alpha = 36.00000, Total beta = 36.00000, Total charge =  0.00000
