  ==> Input File <==

--------------------------------------------------------------------------
set {
	reference rhf
	basis 6-31G*
}

set_num_threads( 4 )
memory 2 gb

molecule MOL {
0 1

H	 3.040126	 0.979951	 1.264359
C	 2.349819	 0.273335	 0.812245
C	 0.978518	 0.915261	 0.626283
H	 2.270787	 -0.593675	 1.458628
H	 2.782976	 -0.050714	 -0.127915
N	 -0.000257	 -0.000071	 0.054619
H	 0.622264	 1.232800	 1.598204
H	 1.067753	 1.824068	 0.023959
C	 -1.363055	 0.315058	 0.462241
C	 0.134082	 -0.128645	 -1.390399
C	 -2.412078	 -0.285320	 -0.468531
H	 -1.482241	 1.391144	 0.451970
H	 -1.549931	 -0.001174	 1.492681
C	 -0.331162	 -1.485838	 -1.908874
H	 1.179218	 -0.011902	 -1.647723
H	 -0.397789	 0.674259	 -1.909290
H	 -2.262839	 0.075384	 -1.480151
H	 -2.369300	 -1.368867	 -0.491760
H	 -3.410332	 -0.003975	 -0.144961
H	 0.237731	 -2.279662	 -1.437876
H	 -1.381882	 -1.664792	 -1.707593
H	 -0.188450	 -1.549303	 -2.984017

	symmetry c1
}
set optking {
	frozen_dihedral = ("
		3 6 9 11
	")
}

ee = optimize('scf')
oeprop('DIPOLE', 'QUADRUPOLE', 'MULLIKEN_CHARGES')
f=open( 'psi4out.xyz', 'w' )
f.write( "22  " )
f.write( str(ee) + "\n" )
f.write( MOL.save_string_xyz() )
f.close()
--------------------------------------------------------------------------

    Molecular point group: c1
  Charge       = 0
  Multiplicity = 1
  Basis Set: 6-31G*
  Basis Set:
  @DF-RHF Final Energy:  -290.34688788132939
    Total Energy =                       -290.3468878813297351
    Molecular point group: c1
  Basis Set: 6-31G*
  Basis Set:
  Basis Set: 6-31G*
  Basis Set:
  @DF-RHF Final Energy:  -290.36094624761017
    Total Energy =                       -290.3609462476102863
  Basis Set: 6-31G*
  Basis Set:
  Basis Set: 6-31G*
  Basis Set:
  @DF-RHF Final Energy:  -290.36349655007962
    Total Energy =                       -290.3634965500798444
  Basis Set: 6-31G*
  Basis Set:
  Basis Set: 6-31G*
  Basis Set:
  @DF-RHF Final Energy:  -290.36398495637826
    Total Energy =                       -290.3639849563779762
  Basis Set: 6-31G*
  Basis Set:
  @DF-RHF Final Energy:  -290.36422068014105
    Total Energy =                       -290.3642206801403631
  Basis Set: 6-31G*
  Basis Set:
  @DF-RHF Final Energy:  -290.36432780754114
    Total Energy =                       -290.3643278075412582
  Basis Set: 6-31G*
  Basis Set:
  Basis Set: 6-31G*
  Basis Set:
  @DF-RHF Final Energy:  -290.36436604653750
    Total Energy =                       -290.3643660465373841
  Basis Set: 6-31G*
  Basis Set:
  Basis Set: 6-31G*
  Basis Set:
  @DF-RHF Final Energy:  -290.36437160297453
    Total Energy =                       -290.3643716029744155
  Basis Set: 6-31G*
  Basis Set:
  Charge       = 0
  Multiplicity = 1
  Basis Set: 6-31G*
  Basis Set:

    Orbital Energies (a.u.)
    -----------------------

    Doubly Occupied:

       1A    -15.537454     2A    -11.241949     3A    -11.240004
       4A    -11.238441     5A    -11.211046     6A    -11.205095
       7A    -11.201697     8A     -1.219957     9A     -1.026577
      10A     -1.018024    11A     -0.960353    12A     -0.857949
      13A     -0.830261    14A     -0.771916    15A     -0.660161
      16A     -0.636191    17A     -0.619181    18A     -0.594465
      19A     -0.570659    20A     -0.554771    21A     -0.539493
      22A     -0.532457    23A     -0.512841    24A     -0.499802
      25A     -0.485914    26A     -0.478420    27A     -0.464979
      28A     -0.461388    29A     -0.340056

  @DF-RHF Final Energy:  -290.36437256052261

   => Energetics <=

    Nuclear Repulsion Energy =            338.4868451481988814
    One-Electron Energy =               -1062.6794351001749419
    Two-Electron Energy =                 433.8282173914537907
    DFT Exchange-Correlation Energy =       0.0000000000000000
    Empirical Dispersion Energy =           0.0000000000000000
    PCM Polarization Energy =               0.0000000000000000
    EFP Energy =                            0.0000000000000000
    Total Energy =                       -290.3643725605222699
    Molecular point group: c1
  Basis Set: 6-31G*
  Basis Set:

  -Total Gradient:
     Atom            X                  Y                   Z
    ------   -----------------  -----------------  -----------------
       1        0.000007783839    -0.000002281764     0.000005348444
       2       -0.000000666508    -0.000007364041     0.000000509444
       3       -0.000494384386     0.003923973024    -0.005050244024
       4       -0.000002521356     0.000001233899    -0.000004836625
       5       -0.000000306956     0.000007355983    -0.000005342483
       6        0.000925042624    -0.002469992506     0.004982546494
       7        0.000017821459     0.000019815609     0.000008400123
       8       -0.000012497291    -0.000018695017    -0.000006586868
       9       -0.000841657617    -0.006858913100     0.003933578946
      10       -0.000053676402    -0.000049434447    -0.000086219452
      11        0.000446309774     0.005436596346    -0.003798268294
      12       -0.000019733765    -0.000005703683    -0.000026512061
      13        0.000031821632    -0.000002569502    -0.000001274157
      14       -0.000114025008     0.000022059141     0.000012761879
      15        0.000023447788    -0.000012500453     0.000013962539
      16        0.000021610561     0.000001549505     0.000012530220
      17       -0.000001200243    -0.000018534690     0.000002567322
      18        0.000001530589     0.000027334662     0.000027933237
      19       -0.000001646572     0.000014955017    -0.000005192650
      20       -0.000004786569     0.000007275845    -0.000006008302
      21        0.000072088240    -0.000006346736    -0.000012318854
      22       -0.000000353835    -0.000009813091     0.000002665123

  **** Optimization is complete! (in 9 steps) ****
    Final optimized geometry and variables:
    Molecular point group: c1

    Geometry (in Angstrom), charge = 0, multiplicity = 1:

    H            3.094736477846     1.000694153159     1.520882236066
    C            2.419861118432     0.305503670417     1.029536781048
    C            1.032860598852     0.926285003276     0.893316565793
    H            2.364694614061    -0.599048479435     1.624951080586
    H            2.858973467394     0.048135777664     0.071936223959
    N            0.050919955723     0.020308978863     0.305798039448
    H            0.690054697266     1.184009980735     1.889780880769
    H            1.088234206461     1.865553469095     0.335756375362
    C           -1.291152003026     0.422157759903     0.741182094299
    C            0.243325299558    -0.092406147591    -1.140738877011
    C           -2.476823429290    -0.061485614478    -0.089106932534
    H           -1.357379365052     1.514179127837     0.766681109050
    H           -1.416772837342     0.084854821630     1.765100410006
    C            0.030232303847    -1.505653704311    -1.675911901503
    H            1.265279904753     0.184813469925    -1.363398837013
    H           -0.372778630788     0.620814778491    -1.688120298545
    H           -2.442911175137     0.287963910791    -1.112854872458
    H           -2.555738228091    -1.142542211393    -0.096774821350
    H           -3.386442673127     0.329031877695     0.356798579113
    H            0.685852392431    -2.197791789939    -1.158837235811
    H           -0.986467345688    -1.852020340937    -1.544848293943
    H            0.259633252477    -1.544161887085    -2.737771950416

  Mulliken Charges: (a.u.)
   Center  Symbol    Alpha    Beta     Spin     Total
       1     H     0.42296  0.42296  0.00000  0.15408
       2     C     3.23700  3.23700  0.00000 -0.47401
       3     C     3.06120  3.06120  0.00000 -0.12239
       4     H     0.41448  0.41448  0.00000  0.17104
       5     H     0.42112  0.42112  0.00000  0.15777
       6     N     3.78500  3.78500  0.00000 -0.57001
       7     H     0.41880  0.41880  0.00000  0.16241
       8     H     0.43247  0.43247  0.00000  0.13506
       9     C     3.04790  3.04790  0.00000 -0.09579
      10     C     3.06387  3.06387  0.00000 -0.12774
      11     C     3.25259  3.25259  0.00000 -0.50518
      12     H     0.43476  0.43476  0.00000  0.13048
      13     H     0.41756  0.41756  0.00000  0.16488
      14     C     3.23315  3.23315  0.00000 -0.46630
      15     H     0.41816  0.41816  0.00000  0.16368
      16     H     0.42855  0.42855  0.00000  0.14290
      17     H     0.41694  0.41694  0.00000  0.16611
      18     H     0.41484  0.41484  0.00000  0.17032
      19     H     0.41721  0.41721  0.00000  0.16559
      20     H     0.41634  0.41634  0.00000  0.16733
      21     H     0.41886  0.41886  0.00000  0.16228
      22     H     0.42625  0.42625  0.00000  0.14750

   Total alpha = 29.00000, Total beta = 29.00000, Total charge = -0.00000
