  ==> Input File <==

--------------------------------------------------------------------------
set {
	reference rhf
	basis 6-31G*
}

set_num_threads( 4 )
memory 2 gb

molecule MOL {
0 1

H	 1.400401	 2.106838	 -3.276845
O	 2.305242	 1.830552	 -3.275758
C	 2.873769	 2.075855	 -2.014546
C	 2.383585	 1.114924	 -0.937022
H	 3.942205	 1.962962	 -2.146357
H	 2.692952	 3.105724	 -1.708840
C	 0.886680	 1.226745	 -0.637626
H	 2.618960	 0.100100	 -1.247018
H	 2.949757	 1.308181	 -0.027369
C	 0.436521	 0.288097	 0.485369
H	 0.324476	 1.007409	 -1.541055
H	 0.648405	 2.254028	 -0.361483
C	 -1.037909	 0.421283	 0.883687
H	 0.639128	 -0.741073	 0.194497
H	 1.049089	 0.480552	 1.363675
C	 -2.037799	 -0.007733	 -0.193645
H	 -1.207258	 -0.181464	 1.773537
H	 -1.240149	 1.451166	 1.173990
C	 -3.489788	 0.042957	 0.286558
H	 -1.803045	 -1.020389	 -0.518498
H	 -1.936234	 0.625221	 -1.071914
C	 -4.216917	 1.317354	 -0.141063
H	 -4.025645	 -0.823308	 -0.095450
H	 -3.513059	 -0.038752	 1.371301
H	 -4.239342	 1.411634	 -1.223113
H	 -5.243387	 1.322503	 0.212445
H	 -3.726170	 2.201406	 0.256408

	symmetry c1
}
set optking {
	frozen_dihedral = ("
		20 16 19 22
	")
}

ee = optimize('scf')
oeprop('DIPOLE', 'QUADRUPOLE', 'MULLIKEN_CHARGES')
f=open( 'psi4out.xyz', 'w' )
f.write( "27  " )
f.write( str(ee) + "\n" )
f.write( MOL.save_string_xyz() )
f.close()
--------------------------------------------------------------------------

    Molecular point group: c1
  Charge       = 0
  Multiplicity = 1
  Basis Set: 6-31G*
  Basis Set:
  @DF-RHF Final Energy:  -388.27723788322140
    Total Energy =                       -388.2772378832212326
    Molecular point group: c1
  Basis Set: 6-31G*
  Basis Set:
  Basis Set: 6-31G*
  Basis Set:
  @DF-RHF Final Energy:  -388.27749493621803
    Total Energy =                       -388.2774949362184316
  Basis Set: 6-31G*
  Basis Set:
  Basis Set: 6-31G*
  Basis Set:
  @DF-RHF Final Energy:  -388.27750682345061
    Total Energy =                       -388.2775068234509490
  Basis Set: 6-31G*
  Basis Set:
  Basis Set: 6-31G*
  Basis Set:
  @DF-RHF Final Energy:  -388.27759465027231
    Total Energy =                       -388.2775946502721354
  Basis Set: 6-31G*
  Basis Set:
  Basis Set: 6-31G*
  Basis Set:
  @DF-RHF Final Energy:  -388.27760616122993
    Total Energy =                       -388.2776061612291869
  Basis Set: 6-31G*
  Basis Set:
  Basis Set: 6-31G*
  Basis Set:
  @DF-RHF Final Energy:  -388.27760797906797
    Total Energy =                       -388.2776079790679660
  Basis Set: 6-31G*
  Basis Set:
  Charge       = 0
  Multiplicity = 1
  Basis Set: 6-31G*
  Basis Set:

    Orbital Energies (a.u.)
    -----------------------

    Doubly Occupied:

       1A    -20.552336     2A    -11.267082     3A    -11.219851
       4A    -11.217309     5A    -11.216149     6A    -11.215976
       7A    -11.215251     8A    -11.214057     9A    -11.210170
      10A     -1.359085    11A     -1.094684    12A     -1.060453
      13A     -1.010647    14A     -0.947774    15A     -0.889575
      16A     -0.824067    17A     -0.800937    18A     -0.775922
      19A     -0.693824    20A     -0.648899    21A     -0.623084
      22A     -0.617789    23A     -0.613413    24A     -0.588478
      25A     -0.579619    26A     -0.553278    27A     -0.533558
      28A     -0.530539    29A     -0.510674    30A     -0.490697
      31A     -0.488546    32A     -0.476196    33A     -0.470447
      34A     -0.453754    35A     -0.451898    36A     -0.441538
      37A     -0.422819

  @DF-RHF Final Energy:  -388.27760813159500

   => Energetics <=

    Nuclear Repulsion Energy =            462.5781569248026699
    One-Electron Energy =               -1443.1507800657477674
    Two-Electron Energy =                 592.2950150093497541
    DFT Exchange-Correlation Energy =       0.0000000000000000
    Empirical Dispersion Energy =           0.0000000000000000
    PCM Polarization Energy =               0.0000000000000000
    EFP Energy =                            0.0000000000000000
    Total Energy =                       -388.2776081315953434
    Molecular point group: c1
  Basis Set: 6-31G*
  Basis Set:

  -Total Gradient:
     Atom            X                  Y                   Z
    ------   -----------------  -----------------  -----------------
       1        0.000007034971     0.000001527228     0.000001628018
       2        0.000017448597    -0.000001410714    -0.000011790138
       3       -0.000026667980     0.000019391858     0.000005570464
       4        0.000006329953    -0.000016755234     0.000000396121
       5       -0.000006144939    -0.000001669462    -0.000008521251
       6        0.000006302173     0.000006100462    -0.000001445019
       7        0.000002101292    -0.000003616116    -0.000006398457
       8       -0.000003307785    -0.000007130711     0.000006638246
       9       -0.000002008972    -0.000001815229    -0.000001113931
      10       -0.000003693340     0.000001189996    -0.000009724799
      11        0.000002286516    -0.000006073048     0.000008994542
      12       -0.000001981663     0.000001194551     0.000006459678
      13       -0.000005201239    -0.000000520700     0.000000518253
      14        0.000001943539     0.000003296478    -0.000000339743
      15       -0.000004269729     0.000004337041     0.000002725739
      16        0.000862028209    -0.001329995062     0.003206110181
      17        0.000002321947    -0.000005999358     0.000000715242
      18       -0.000002832745    -0.000002801545    -0.000000008192
      19        0.000820243997     0.001823534170     0.002137588654
      20       -0.000934351079     0.000703526946    -0.003245469074
      21        0.000005335901     0.000001507767    -0.000001283078
      22       -0.000743758595    -0.001184968939    -0.002093078225
      23        0.000004917288     0.000000688627    -0.000001767156
      24       -0.000003983147    -0.000001294462     0.000005013375
      25       -0.000002659793     0.000002488164    -0.000002972252
      26        0.000002870720    -0.000004430510     0.000001300841
      27       -0.000000304102    -0.000000302200     0.000000251972

  **** Optimization is complete! (in 7 steps) ****
    Final optimized geometry and variables:
    Molecular point group: c1

    Geometry (in Angstrom), charge = 0, multiplicity = 1:

    H            1.547263323113     1.201268471781    -2.593996778192
    O            2.451676534654     0.923986121595    -2.609155063202
    C            3.036946823359     1.149367241498    -1.351905888324
    C            2.562686291787     0.170029044916    -0.283838693652
    H            4.103562984203     1.039989284578    -1.500237070443
    H            2.859303364008     2.173850918791    -1.026884153651
    C            1.069565465094     0.273856403019     0.036516447917
    H            2.795925367629    -0.839196162342    -0.613105286118
    H            3.140250842651     0.349818461089     0.621394973782
    C            0.636154921130    -0.683077212184     1.150798972494
    H            0.496698340851     0.068187462890    -0.863291508713
    H            0.832940300336     1.296057000554     0.332155409313
    C           -0.834835584409    -0.565940097041     1.566226557335
    H            0.842873519613    -1.707081397245     0.844689320026
    H            1.256350151895    -0.497722161719     2.025266333992
    C           -1.842017777266    -1.025225512246     0.508233252976
    H           -0.985671698636    -1.160304080833     2.464688473456
    H           -1.047861263557     0.464509274491     1.847388462898
    C           -3.310066757600    -0.891488158724     0.959064924500
    H           -1.632653611532    -2.054187619145     0.225355957532
    H           -1.706551736088    -0.448495023932    -0.403350086695
    C           -3.980900577725     0.393633977850     0.471084586176
    H           -3.881706730899    -1.736612065560     0.585152889001
    H           -3.369310680533    -0.947127980769     2.043188941873
    H           -4.014025582485     0.423861979064    -0.614044724366
    H           -5.000724190595     0.468544412460     0.836138246553
    H           -3.445007668436     1.276606234520     0.809261285200

  Mulliken Charges: (a.u.)
   Center  Symbol    Alpha    Beta     Spin     Total
       1     H     0.27988  0.27988  0.00000  0.44023
       2     O     4.37093  4.37093  0.00000 -0.74185
       3     C     2.99743  2.99743  0.00000  0.00514
       4     C     3.16086  3.16086  0.00000 -0.32171
       5     H     0.41443  0.41443  0.00000  0.17113
       6     H     0.43201  0.43201  0.00000  0.13598
       7     C     3.16313  3.16313  0.00000 -0.32625
       8     H     0.41496  0.41496  0.00000  0.17009
       9     H     0.42434  0.42434  0.00000  0.15131
      10     C     3.15264  3.15264  0.00000 -0.30527
      11     H     0.42300  0.42300  0.00000  0.15401
      12     H     0.42545  0.42545  0.00000  0.14911
      13     C     3.15439  3.15439  0.00000 -0.30878
      14     H     0.42152  0.42152  0.00000  0.15697
      15     H     0.42141  0.42141  0.00000  0.15719
      16     C     3.15675  3.15675  0.00000 -0.31351
      17     H     0.42066  0.42066  0.00000  0.15868
      18     H     0.42402  0.42402  0.00000  0.15197
      19     C     3.15434  3.15434  0.00000 -0.30869
      20     H     0.42059  0.42059  0.00000  0.15882
      21     H     0.42236  0.42236  0.00000  0.15529
      22     C     3.23971  3.23971  0.00000 -0.47942
      23     H     0.42009  0.42009  0.00000  0.15983
      24     H     0.42114  0.42114  0.00000  0.15773
      25     H     0.42170  0.42170  0.00000  0.15659
      26     H     0.41965  0.41965  0.00000  0.16070
      27     H     0.42263  0.42263  0.00000  0.15474

   Total alpha = 37.00000, Total beta = 37.00000, Total charge = -0.00000
