  ==> Input File <==

--------------------------------------------------------------------------
set {
	reference rhf
	basis 6-31G*
}

set_num_threads( 4 )
memory 2 gb

molecule MOL {
0 1

H	 -3.898779	 -1.594780	 -0.953725
C	 -2.830285	 -1.476016	 -0.985361
C	 -2.153741	 -1.622654	 -2.186998
C	 -2.134227	 -1.176888	 0.175225
H	 -2.694770	 -1.854644	 -3.086351
C	 -0.779868	 -1.469798	 -2.226883
H	 -2.660369	 -1.063590	 1.105785
C	 -0.758940	 -1.023427	 0.137687
H	 -0.239859	 -1.579657	 -3.147748
C	 -0.077958	 -1.169756	 -1.065065
H	 -0.216275	 -0.791937	 1.033371
C	 1.401047	 -1.015282	 -1.161704
O	 1.970282	 -0.730723	 0.000018
O	 2.017825	 -1.133336	 -2.173884
C	 3.377318	 -0.566646	 -0.000065
H	 3.695437	 -0.028981	 -0.881264
H	 3.789299	 -1.563704	 0.000236
H	 3.695516	 -0.028316	 0.880770

	symmetry c1
}
set optking {
	frozen_dihedral = ("
		12 13 15 16
	")
}

ee = optimize('scf')
oeprop('DIPOLE', 'QUADRUPOLE', 'MULLIKEN_CHARGES')
f=open( 'psi4out.xyz', 'w' )
f.write( "18  " )
f.write( str(ee) + "\n" )
f.write( MOL.save_string_xyz() )
f.close()
--------------------------------------------------------------------------

    Molecular point group: c1
  Charge       = 0
  Multiplicity = 1
  Basis Set: 6-31G*
  Basis Set:
  @DF-RHF Final Energy:  -457.34862562407284
    Total Energy =                       -457.3486256240729517
    Molecular point group: c1
  Basis Set: 6-31G*
  Basis Set:
  Basis Set: 6-31G*
  Basis Set:
  @DF-RHF Final Energy:  -457.34970489836593
    Total Energy =                       -457.3497048983656441
  Basis Set: 6-31G*
  Basis Set:
  Basis Set: 6-31G*
  Basis Set:
  @DF-RHF Final Energy:  -457.34976240006529
    Total Energy =                       -457.3497624000652877
  Basis Set: 6-31G*
  Basis Set:
  Basis Set: 6-31G*
  Basis Set:
  @DF-RHF Final Energy:  -457.34993721912912
    Total Energy =                       -457.3499372191290604
  Basis Set: 6-31G*
  Basis Set:
  Basis Set: 6-31G*
  Basis Set:
  @DF-RHF Final Energy:  -457.35002817258544
    Total Energy =                       -457.3500281725853256
  Basis Set: 6-31G*
  Basis Set:
  Charge       = 0
  Multiplicity = 1
  Basis Set: 6-31G*
  Basis Set:

    Orbital Energies (a.u.)
    -----------------------

    Doubly Occupied:

       1A    -20.607407     2A    -20.544212     3A    -11.378322
       4A    -11.282596     5A    -11.245439     6A    -11.245158
       7A    -11.243993     8A    -11.241557     9A    -11.237339
      10A    -11.236575    11A     -1.472108    12A     -1.364068
      13A     -1.165131    14A     -1.048015    15A     -1.024668
      16A     -0.978526    17A     -0.860049    18A     -0.834175
      19A     -0.777668    20A     -0.739983    21A     -0.683546
      22A     -0.676470    23A     -0.671825    24A     -0.631156
      25A     -0.623858    26A     -0.597673    27A     -0.585208
      28A     -0.562505    29A     -0.528180    30A     -0.516536
      31A     -0.503436    32A     -0.498735    33A     -0.458237
      34A     -0.444304    35A     -0.344762    36A     -0.340845

  @DF-RHF Final Energy:  -457.35004357436463

   => Energetics <=

    Nuclear Repulsion Energy =            492.8869657835691100
    One-Electron Energy =               -1600.0854864399886992
    Two-Electron Energy =                 649.8484770820547283
    DFT Exchange-Correlation Energy =       0.0000000000000000
    Empirical Dispersion Energy =           0.0000000000000000
    PCM Polarization Energy =               0.0000000000000000
    EFP Energy =                            0.0000000000000000
    Total Energy =                       -457.3500435743648040
    Molecular point group: c1
  Basis Set: 6-31G*
  Basis Set:

  -Total Gradient:
     Atom            X                  Y                   Z
    ------   -----------------  -----------------  -----------------
       1        0.000001021766     0.000003044849    -0.000000169781
       2        0.000002971706     0.000000695793     0.000001514633
       3       -0.000001056011    -0.000004545518     0.000001920903
       4       -0.000003084670    -0.000013327634     0.000001098962
       5       -0.000001033025    -0.000001310921     0.000001157033
       6       -0.000009377347     0.000022083807    -0.000006533743
       7       -0.000002081258    -0.000002770681    -0.000000278812
       8       -0.000013268373     0.000021292786     0.000004879861
       9       -0.000000854348    -0.000004479842     0.000004790213
      10        0.000010230268    -0.000017187926     0.000008156596
      11       -0.000007900875    -0.000003319344    -0.000007866415
      12       -0.000184581594     0.001338039713    -0.000256316303
      13        0.000354678730    -0.002285727236     0.000066464505
      14        0.000013875214     0.000013111092     0.000084558130
      15       -0.000350842332     0.002319096226     0.000883380481
      16        0.000192665727    -0.001384480476    -0.000813594101
      17        0.000010062260     0.000011995991     0.000003790122
      18       -0.000011425844    -0.000012210680     0.000023047712

  **** Optimization is complete! (in 6 steps) ****
    Final optimized geometry and variables:
    Molecular point group: c1

    Geometry (in Angstrom), charge = 0, multiplicity = 1:

    H           -4.031742539992    -0.448453365974    -0.004460758009
    C           -2.962602553956    -0.337055577211    -0.039595536673
    C           -2.290913828435    -0.488651445398    -1.243365255882
    C           -2.260790358531    -0.042555206670     1.118654185640
    H           -2.836356180466    -0.717238979339    -2.140965124747
    C           -0.916200288540    -0.345444037043    -1.287680327005
    H           -2.783160078438     0.074461732119     2.050865000466
    C           -0.884605026176     0.101529925631     1.076576253831
    H           -0.380066528609    -0.459521149452    -2.210240337502
    C           -0.208367095736    -0.049799621537    -0.128273116965
    H           -0.337754912395     0.329142957244     1.970624340240
    C            1.271676766112     0.094657385601    -0.230536428098
    O            1.845162223574     0.368772341841     0.931576629439
    O            1.881570788082    -0.024652601094    -1.246728616351
    C            3.249201320214     0.559046919290     0.941310366872
    H            3.565870503675     1.117637957551     0.075033739080
    H            3.749701924813    -0.399965542230     0.944189468208
    H            3.472664347333     1.094409931565     1.850857565161

  Mulliken Charges: (a.u.)
   Center  Symbol    Alpha    Beta     Spin     Total
       1     H     0.39542  0.39542  0.00000  0.20916
       2     C     3.09000  3.09000  0.00000 -0.17999
       3     C     3.10710  3.10710  0.00000 -0.21419
       4     C     3.10715  3.10715  0.00000 -0.21430
       5     H     0.39540  0.39540  0.00000  0.20920
       6     C     3.08645  3.08645  0.00000 -0.17290
       7     H     0.39630  0.39630  0.00000  0.20740
       8     C     3.08709  3.08709  0.00000 -0.17418
       9     H     0.37596  0.37596  0.00000  0.24809
      10     C     3.07731  3.07731  0.00000 -0.15462
      11     H     0.38051  0.38051  0.00000  0.23899
      12     C     2.57951  2.57951  0.00000  0.84097
      13     O     4.31527  4.31527  0.00000 -0.63054
      14     O     4.29179  4.29179  0.00000 -0.58357
      15     C     3.09405  3.09405  0.00000 -0.18810
      16     H     0.40130  0.40130  0.00000  0.19739
      17     H     0.41103  0.41103  0.00000  0.17794
      18     H     0.40838  0.40838  0.00000  0.18325

   Total alpha = 36.00000, Total beta = 36.00000, Total charge =  0.00000
