  ==> Input File <==

--------------------------------------------------------------------------
set {
	reference rhf
	basis 6-31G*
}

set_num_threads( 4 )
memory 2 gb

molecule MOL {
0 1

O	 -3.594017	 -0.260454	 -0.637448
C	 -2.668563	 0.129746	 -0.000350
C	 -2.716153	 1.341753	 0.894101
O	 -1.481751	 -0.454642	 0.000584
H	 -3.490992	 1.195590	 1.637150
H	 -1.769006	 1.520407	 1.381373
H	 -2.992090	 2.203406	 0.298037
C	 -0.334255	 0.388708	 0.000906
C	 0.891947	 -0.504646	 0.000751
H	 -0.365390	 1.025305	 -0.873475
H	 -0.365484	 1.024911	 0.875569
C	 2.191998	 0.301789	 0.000897
H	 0.855148	 -1.151283	 -0.871571
H	 0.855132	 -1.151660	 0.872805
C	 3.441114	 -0.581407	 0.000108
H	 2.215074	 0.954890	 -0.869742
H	 2.215465	 0.953923	 0.872248
C	 4.739576	 0.224112	 -0.001102
H	 3.419457	 -1.233487	 -0.870178
H	 3.420834	 -1.233096	 0.870717
H	 4.804918	 0.861552	 -0.878265
H	 5.606527	 -0.429058	 -0.001824
H	 4.806469	 0.861674	 0.875853

	symmetry c1
}
set optking {
	frozen_dihedral = ("
		1 2 4 8
	")
}

ee = optimize('scf')
oeprop('DIPOLE', 'QUADRUPOLE', 'MULLIKEN_CHARGES')
f=open( 'psi4out.xyz', 'w' )
f.write( "23  " )
f.write( str(ee) + "\n" )
f.write( MOL.save_string_xyz() )
f.close()
--------------------------------------------------------------------------

    Molecular point group: c1
  Charge       = 0
  Multiplicity = 1
  Basis Set: 6-31G*
  Basis Set:
  @DF-RHF Final Energy:  -422.95020252926764
    Total Energy =                       -422.9502025292680401
    Molecular point group: c1
  Basis Set: 6-31G*
  Basis Set:
  Basis Set: 6-31G*
  Basis Set:
  @DF-RHF Final Energy:  -422.95015438143469
    Total Energy =                       -422.9501543814344586
  Basis Set: 6-31G*
  Basis Set:
  Basis Set: 6-31G*
  Basis Set:
  @DF-RHF Final Energy:  -422.95860970077524
    Total Energy =                       -422.9586097007749004
  Basis Set: 6-31G*
  Basis Set:
  Basis Set: 6-31G*
  Basis Set:
  @DF-RHF Final Energy:  -422.96049289853863
    Total Energy =                       -422.9604928985393144
  Basis Set: 6-31G*
  Basis Set:
  @DF-RHF Final Energy:  -422.96047428741650
    Total Energy =                       -422.9604742874164458
  @DF-RHF Final Energy:  -422.96158787600314
    Total Energy =                       -422.9615878760031364
  @DF-RHF Final Energy:  -422.96194962890650
    Total Energy =                       -422.9619496289064955
  @DF-RHF Final Energy:  -422.96290375876504
    Total Energy =                       -422.9629037587641278
  @DF-RHF Final Energy:  -422.96312293936853
    Total Energy =                       -422.9631229393685317
  Basis Set: 6-31G*
  Basis Set:
  @DF-RHF Final Energy:  -422.96323396350732
    Total Energy =                       -422.9632339635074914
  Basis Set: 6-31G*
  Basis Set:
  Basis Set: 6-31G*
  Basis Set:
  @DF-RHF Final Energy:  -422.96326850447025
    Total Energy =                       -422.9632685044704203
  Basis Set: 6-31G*
  Basis Set:
  Basis Set: 6-31G*
  Basis Set:
  @DF-RHF Final Energy:  -422.96328222800167
    Total Energy =                       -422.9632822280019582
  Basis Set: 6-31G*
  Basis Set:
  Charge       = 0
  Multiplicity = 1
  Basis Set: 6-31G*
  Basis Set:

    Orbital Energies (a.u.)
    -----------------------

    Doubly Occupied:

       1A    -20.592894     2A    -20.544722     3A    -11.375573
       4A    -11.296444     5A    -11.240388     6A    -11.229269
       7A    -11.228563     8A    -11.224929     9A    -11.215994
      10A     -1.459481    11A     -1.365533    12A     -1.097295
      13A     -1.036254    14A     -1.013748    15A     -0.941574
      16A     -0.847065    17A     -0.807328    18A     -0.777948
      19A     -0.698967    20A     -0.692300    21A     -0.658983
      22A     -0.649860    23A     -0.615244    24A     -0.594417
      25A     -0.580808    26A     -0.575696    27A     -0.569029
      28A     -0.543547    29A     -0.525063    30A     -0.503089
      31A     -0.494263    32A     -0.482064    33A     -0.475393
      34A     -0.473954    35A     -0.448281    36A     -0.431326

  @DF-RHF Final Energy:  -422.96328264618182

   => Energetics <=

    Nuclear Repulsion Energy =            449.4432953497630479
    One-Electron Energy =               -1466.1985808851509319
    Two-Electron Energy =                 593.7920028892074242
    DFT Exchange-Correlation Energy =       0.0000000000000000
    Empirical Dispersion Energy =           0.0000000000000000
    PCM Polarization Energy =               0.0000000000000000
    EFP Energy =                            0.0000000000000000
    Total Energy =                       -422.9632826461804598
    Molecular point group: c1
  Basis Set: 6-31G*
  Basis Set:

  -Total Gradient:
     Atom            X                  Y                   Z
    ------   -----------------  -----------------  -----------------
       1        0.000990098655     0.001834741873    -0.003043687895
       2       -0.001468949969    -0.002829341083     0.002720969530
       3       -0.000011620193     0.000008688624    -0.000012427763
       4        0.000390852498     0.001357916902     0.003345451009
       5        0.000013790974    -0.000006945500    -0.000006715740
       6        0.000005452473     0.000007137464     0.000024837941
       7        0.000003746660    -0.000000916129    -0.000004790587
       8        0.000062506656    -0.000366293251    -0.003014704052
       9        0.000011857325     0.000001006779    -0.000002434051
      10       -0.000026400649    -0.000017845725     0.000000782639
      11        0.000018676163     0.000023759473    -0.000005243259
      12       -0.000000820868    -0.000007389315     0.000002457761
      13        0.000010236015    -0.000005148456    -0.000000388526
      14       -0.000002363462     0.000002108811    -0.000001903569
      15        0.000003850418     0.000000910335     0.000004164210
      16        0.000000643214     0.000002304200     0.000003946026
      17       -0.000003573850    -0.000003367101     0.000003939720
      18        0.000000769600    -0.000002301128    -0.000013053020
      19        0.000001411177    -0.000003883944     0.000000726046
      20       -0.000000874447     0.000004034703     0.000000200155
      21        0.000002669998     0.000003242200    -0.000000367563
      22        0.000000627179     0.000000552959    -0.000002363857
      23       -0.000002585574    -0.000002972690     0.000000604847

  **** Optimization is complete! (in 13 steps) ****
    Final optimized geometry and variables:
    Molecular point group: c1

    Geometry (in Angstrom), charge = 0, multiplicity = 1:

    O           -3.553756919045    -0.537901758271    -0.569977144105
    C           -2.718752710476     0.033257880990     0.042430046141
    C           -2.974925129743     1.332675498426     0.770257390920
    O           -1.483460765533    -0.477355907637     0.134478330734
    H           -4.037780097593     1.521519289521     0.772725532420
    H           -2.605467296458     1.282127760005     1.788153943920
    H           -2.474222895246     2.157249786028     0.273834111430
    C           -0.341256502748     0.357927290897     0.059637862005
    C            0.880492842714    -0.540770366864     0.004808997503
    H           -0.401523199760     0.975287297011    -0.831027703942
    H           -0.294170159126     1.011822602859     0.924080464442
    C            2.184658362116     0.253907788342    -0.080653677741
    H            0.783884988707    -1.200122954846    -0.851978506640
    H            0.882551366974    -1.171867269766     0.888683411394
    C            3.423369956825    -0.642127108327    -0.138755906115
    H            2.165375197742     0.893331800851    -0.961764205144
    H            2.264966307074     0.918702661461     0.778059715563
    C            4.727002597277     0.150033535777    -0.226637291100
    H            3.345267293972    -1.306718968695    -0.995940434133
    H            3.446256654979    -1.280225249426     0.741620956967
    H            4.748428548828     0.773230402881    -1.116148308179
    H            5.585938937892    -0.512223525936    -0.266574929218
    H            4.850403768611     0.799946047290     0.635074076191

  Mulliken Charges: (a.u.)
   Center  Symbol    Alpha    Beta     Spin     Total
       1     O     4.25721  4.25721  0.00000 -0.51441
       2     C     2.61947  2.61947  0.00000  0.76107
       3     C     3.30454  3.30454  0.00000 -0.60907
       4     O     4.31049  4.31049  0.00000 -0.62098
       5     H     0.38980  0.38980  0.00000  0.22039
       6     H     0.40225  0.40225  0.00000  0.19549
       7     H     0.40332  0.40332  0.00000  0.19336
       8     C     2.99574  2.99574  0.00000  0.00852
       9     C     3.16224  3.16224  0.00000 -0.32448
      10     H     0.41846  0.41846  0.00000  0.16307
      11     H     0.42122  0.42122  0.00000  0.15755
      12     C     3.16119  3.16119  0.00000 -0.32237
      13     H     0.40780  0.40780  0.00000  0.18439
      14     H     0.41100  0.41100  0.00000  0.17801
      15     C     3.15181  3.15181  0.00000 -0.30361
      16     H     0.42164  0.42164  0.00000  0.15672
      17     H     0.42259  0.42259  0.00000  0.15483
      18     C     3.24006  3.24006  0.00000 -0.48012
      19     H     0.41959  0.41959  0.00000  0.16083
      20     H     0.42037  0.42037  0.00000  0.15926
      21     H     0.42093  0.42093  0.00000  0.15815
      22     H     0.41695  0.41695  0.00000  0.16611
      23     H     0.42135  0.42135  0.00000  0.15730

   Total alpha = 36.00000, Total beta = 36.00000, Total charge =  0.00000
