  ==> Input File <==

--------------------------------------------------------------------------
set {
	reference rhf
	basis 6-31G*
}

set_num_threads( 4 )
memory 2 gb

molecule MOL {
0 1

H	 2.652209	 0.763231	 0.000000
O	 2.263154	 -0.100023	 0.000000
C	 0.912879	 -0.015685	 0.000000
C	 0.208030	 -1.041295	 -0.616353
C	 0.234208	 1.041111	 0.584528
H	 0.753495	 -1.851421	 -1.063538
C	 -1.172412	 -0.999747	 -0.642096
H	 0.781682	 1.836331	 1.062460
C	 -1.152361	 1.070059	 0.551305
H	 -1.713687	 -1.796427	 -1.120645
C	 -1.864200	 0.054320	 -0.059611
H	 -1.671582	 1.894093	 1.007449
H	 -2.938230	 0.079768	 -0.083603

	symmetry c1
}
set optking {
	frozen_dihedral = ("
		4 3 2 1
	")
}

ee = optimize('scf')
oeprop('DIPOLE', 'QUADRUPOLE', 'MULLIKEN_CHARGES')
f=open( 'psi4out.xyz', 'w' )
f.write( "13  " )
f.write( str(ee) + "\n" )
f.write( MOL.save_string_xyz() )
f.close()
--------------------------------------------------------------------------

    Molecular point group: c1
  Charge       = 0
  Multiplicity = 1
  Basis Set: 6-31G*
  Basis Set:
  @DF-RHF Final Energy:  -305.55636199961259
    Total Energy =                       -305.5563619996125340
    Molecular point group: c1
  Basis Set: 6-31G*
  Basis Set:
  Basis Set: 6-31G*
  Basis Set:
  @DF-RHF Final Energy:  -305.55641231769431
    Total Energy =                       -305.5564123176943099
  Basis Set: 6-31G*
  Basis Set:
  Basis Set: 6-31G*
  Basis Set:
  @DF-RHF Final Energy:  -305.55642141901080
    Total Energy =                       -305.5564214190108032
  Basis Set: 6-31G*
  Basis Set:
  Charge       = 0
  Multiplicity = 1
  Basis Set: 6-31G*
  Basis Set:

    Orbital Energies (a.u.)
    -----------------------

    Doubly Occupied:

       1A    -20.586846     2A    -11.295763     3A    -11.236545
       4A    -11.234669     5A    -11.228030     6A    -11.223244
       7A    -11.222698     8A     -1.404524     9A     -1.147399
      10A     -1.018488    11A     -1.003933    12A     -0.843680
      13A     -0.822239    14A     -0.735098    15A     -0.683003
      16A     -0.648707    17A     -0.614248    18A     -0.592775
      19A     -0.588383    20A     -0.547277    21A     -0.513819
      22A     -0.490559    23A     -0.476474    24A     -0.337773
      25A     -0.312702

  @DF-RHF Final Energy:  -305.55642223980766

   => Energetics <=

    Nuclear Repulsion Energy =            273.0209903110753089
    One-Electron Energy =                -955.5370754809429172
    Two-Electron Energy =                 376.9596629300599488
    DFT Exchange-Correlation Energy =       0.0000000000000000
    Empirical Dispersion Energy =           0.0000000000000000
    PCM Polarization Energy =               0.0000000000000000
    EFP Energy =                            0.0000000000000000
    Total Energy =                       -305.5564222398077163
    Molecular point group: c1
  Basis Set: 6-31G*
  Basis Set:

  -Total Gradient:
     Atom            X                  Y                   Z
    ------   -----------------  -----------------  -----------------
       1       -0.000024661352    -0.000000622000    -0.002393126774
       2        0.000103390989     0.000363467251     0.002254105901
       3       -0.000194074106    -0.001133785646     0.001652317200
       4       -0.000046744558     0.000838090563    -0.001506090807
       5        0.000122540525    -0.000093095938     0.000003348238
       6        0.000020943943    -0.000006382451    -0.000012699488
       7        0.000142908954    -0.000104319587    -0.000026159805
       8       -0.000006912879     0.000002820520     0.000001343899
       9       -0.000166149264    -0.000053224198    -0.000045367579
      10        0.000006070094     0.000011313317     0.000007570866
      11        0.000037995097     0.000179518442     0.000064113089
      12        0.000011348456     0.000008303285    -0.000006423348
      13       -0.000006655901    -0.000012083558     0.000007068607

  **** Optimization is complete! (in 4 steps) ****
    Final optimized geometry and variables:
    Molecular point group: c1

    Geometry (in Angstrom), charge = 0, multiplicity = 1:

    H            2.650343312969     0.760448495720     0.034566750738
    O            2.266254696247    -0.104995076284     0.032909265527
    C            0.910792073187    -0.023789582971     0.021788250312
    C            0.206461291408    -1.046741726595    -0.595661563742
    C            0.233902546788     1.034638453680     0.606071030933
    H            0.751729391156    -1.853426562094    -1.049230719140
    C           -1.175772859967    -1.010433169733    -0.612340535017
    H            0.784983874795     1.822912502590     1.090195692792
    C           -1.151846113150     1.066182752374     0.572229364227
    H           -1.718355681062    -1.807250244220    -1.089181193264
    C           -1.864419999256     0.045761805690    -0.032510833067
    H           -1.671216727523     1.891213857735     1.026387604043
    H           -2.938682862657     0.071141379632    -0.053707008467

  Mulliken Charges: (a.u.)
   Center  Symbol    Alpha    Beta     Spin     Total
       1     H     0.27215  0.27215  0.00000  0.45570
       2     O     4.38126  4.38126  0.00000 -0.76252
       3     C     2.79953  2.79953  0.00000  0.40093
       4     C     3.12184  3.12184  0.00000 -0.24369
       5     C     3.13894  3.13894  0.00000 -0.27788
       6     H     0.39178  0.39178  0.00000  0.21644
       7     C     3.09241  3.09241  0.00000 -0.18483
       8     H     0.40241  0.40241  0.00000  0.19519
       9     C     3.09183  3.09183  0.00000 -0.18365
      10     H     0.39799  0.39799  0.00000  0.20402
      11     C     3.11126  3.11126  0.00000 -0.22252
      12     H     0.39830  0.39830  0.00000  0.20340
      13     H     0.40030  0.40030  0.00000  0.19940

   Total alpha = 25.00000, Total beta = 25.00000, Total charge =  0.00000
