                              Psi4 1.0.54 Driver

  ==> Input File <==

--------------------------------------------------------------------------
set {
	reference rhf
	basis cc-pvtz
}

set_num_threads( 4 )
memory 2 gb

molecule MOL {
0 1

H	 -1.835082	 1.385983	 0.000069
C	 -1.300516	 0.441153	 -0.000028
O	 -0.006604	 0.654344	 -0.000106
O	 -1.828920	 -0.612308	 0.000113
C	 0.824594	 -0.315852	 -0.630702
C	 2.255746	 0.148352	 -0.500235
H	 0.528265	 -0.409833	 -1.665745
H	 0.670022	 -1.272339	 -0.151950
H	 2.394887	 1.108529	 -0.980516
H	 2.916035	 -0.569947	 -0.971317
H	 2.537352	 0.241714	 0.540895

	symmetry c1
}
set optking {
	frozen_dihedral = ("
		5 3 2 4
	")
}

ee,wfn = optimize('scf', return_wfn=True)
oeprop( wfn, 'DIPOLE', 'QUADRUPOLE', 'MULLIKEN_CHARGES')
f=open( 'psi4out.xyz', 'w' )
f.write( "11  " )
f.write( str(ee) + "\n" )
f.write( MOL.save_string_xyz() )
f.close()
--------------------------------------------------------------------------

    Molecular point group: c1
  Charge       = 0
  Multiplicity = 1
  Basis Set: CC-PVTZ
  Basis Set:
  @DF-RHF Final Energy:  -266.92663399377102
    Total Energy =                       -266.9266339937710768
    Molecular point group: c1
  Basis Set: CC-PVTZ
  Basis Set:
  Basis Set: CC-PVTZ
  Basis Set:
  @DF-RHF Final Energy:  -266.91742130141910
    Total Energy =                       -266.9174213014193811
  Basis Set: CC-PVTZ
  Basis Set:
  Basis Set: CC-PVTZ
  Basis Set:
  @DF-RHF Final Energy:  -266.92648051845379
    Total Energy =                       -266.9264805184538432
  Basis Set: CC-PVTZ
  Basis Set:
  Basis Set: CC-PVTZ
  Basis Set:
  @DF-RHF Final Energy:  -266.92695629315983
    Total Energy =                       -266.9269562931599467
  Basis Set: CC-PVTZ
  Basis Set:
  Basis Set: CC-PVTZ
  Basis Set:
  @DF-RHF Final Energy:  -266.92708753858778
    Total Energy =                       -266.9270875385877844
  Basis Set: CC-PVTZ
  Basis Set:
  Basis Set: CC-PVTZ
  Basis Set:
  @DF-RHF Final Energy:  -266.92713830959400
    Total Energy =                       -266.9271383095939427
  Basis Set: CC-PVTZ
  Basis Set:
  Charge       = 0
  Multiplicity = 1
  Basis Set: CC-PVTZ
  Basis Set:

    Orbital Energies (a.u.)
    -----------------------

    Doubly Occupied:

       1A    -20.600793     2A    -20.548533     3A    -11.370862
       4A    -11.291978     5A    -11.225600     6A     -1.476392
       7A     -1.378105     8A     -1.053163     9A     -0.901624
      10A     -0.808720    11A     -0.740974    12A     -0.691252
      13A     -0.680097    14A     -0.603321    15A     -0.569504
      16A     -0.559036    17A     -0.521460    18A     -0.515664
      19A     -0.465151    20A     -0.455375

  @DF-RHF Final Energy:  -266.92713920894369

   => Energetics <=

    Nuclear Repulsion Energy =            179.1073163111077804
    One-Electron Energy =                -719.1537025987347533
    Two-Electron Energy =                 273.1192470786834292
    DFT Exchange-Correlation Energy =       0.0000000000000000
    Empirical Dispersion Energy =           0.0000000000000000
    PCM Polarization Energy =               0.0000000000000000
    EFP Energy =                            0.0000000000000000
    Total Energy =                       -266.9271392089435722
    Molecular point group: c1
  Basis Set: CC-PVTZ
  Basis Set:

  -Total Gradient:
     Atom            X                  Y                   Z
    ------   -----------------  -----------------  -----------------
       1       -0.000027802317     0.000016070702    -0.000013848021
       2        0.000781279548     0.002669271204    -0.016822270964
       3       -0.000154978336    -0.005915738020     0.013455472103
       4       -0.000518645280    -0.000494608145     0.009111259495
       5       -0.000064494209     0.003654407141    -0.005623865485
       6       -0.000000466604     0.000023822094    -0.000067128545
       7       -0.000022489373     0.000076267026     0.000017541240
       8        0.000007677095    -0.000033279327    -0.000034435776
       9        0.000023597562     0.000014744167    -0.000000544848
      10        0.000012490013     0.000003667279    -0.000009641896
      11       -0.000036168101    -0.000014624125    -0.000012537303

  **** Optimization is complete! (in 7 steps) ****
    Final optimized geometry and variables:
    Molecular point group: c1

    Geometry (in Angstrom), charge = 0, multiplicity = 1:

    H           -1.803902337311     1.345447054227     0.312113354396
    C           -1.291066081988     0.393769357566     0.207156725561
    O            0.012218495198     0.560924568504     0.290397462000
    O           -1.849456796893    -0.638749081956     0.117603665220
    C            0.849890546358    -0.400016922436    -0.348125851363
    C            2.272689098067     0.098482132798    -0.263864213912
    H            0.527566456786    -0.507470788215    -1.375207688993
    H            0.735494444679    -1.356428692199     0.141027459576
    H            2.376244543982     1.056957248761    -0.756261100864
    H            2.936444368627    -0.609837095492    -0.745244119109
    H            2.578939402320     0.208242578216     0.768579348320

  Mulliken Charges: (a.u.)
   Center  Symbol    Alpha    Beta     Spin     Total
       1     H     0.45178  0.45178  0.00000  0.09643
       2     C     2.84371  2.84371  0.00000  0.31258
       3     O     4.14852  4.14852  0.00000 -0.29705
       4     O     4.18886  4.18886  0.00000 -0.37773
       5     C     2.97193  2.97193  0.00000  0.05613
       6     C     3.13313  3.13313  0.00000 -0.26626
       7     H     0.45846  0.45846  0.00000  0.08309
       8     H     0.44901  0.44901  0.00000  0.10198
       9     H     0.45101  0.45101  0.00000  0.09797
      10     H     0.45453  0.45453  0.00000  0.09094
      11     H     0.44905  0.44905  0.00000  0.10190

   Total alpha = 20.00000, Total beta = 20.00000, Total charge = -0.00000

*** Psi4 exiting successfully. Buy a developer a beer!
