  ==> Input File <==

--------------------------------------------------------------------------
set {
	reference rhf
	basis 6-31G*
}

set_num_threads( 4 )
memory 2 gb

molecule MOL {
0 1

H	 -1.056119	 -0.899165	 -0.905453
N	 -1.172117	 -0.314371	 -0.100254
C	 -0.024542	 0.565565	 0.069209
H	 -2.006168	 0.221684	 -0.248857
C	 1.271298	 -0.229563	 -0.014192
H	 -0.049409	 1.297310	 -0.731596
H	 -0.046881	 1.125219	 1.006750
H	 1.332152	 -0.753033	 -0.961461
H	 2.134169	 0.422483	 0.080702
H	 1.326077	 -0.968298	 0.781395

	symmetry c1
}
set optking {
	frozen_dihedral = ("
		1 2 3 6
	")
}

ee = optimize('scf')
oeprop('DIPOLE', 'QUADRUPOLE', 'MULLIKEN_CHARGES')
f=open( 'psi4out.xyz', 'w' )
f.write( "10  " )
f.write( str(ee) + "\n" )
f.write( MOL.save_string_xyz() )
f.close()
--------------------------------------------------------------------------

    Molecular point group: c1
  Charge       = 0
  Multiplicity = 1
  Basis Set: 6-31G*
  Basis Set:
  @DF-RHF Final Energy:  -134.24492906120662
    Total Energy =                       -134.2449290612065624
    Molecular point group: c1
  Basis Set: 6-31G*
  Basis Set:
  Basis Set: 6-31G*
  Basis Set:
  @DF-RHF Final Energy:  -134.24704323074462
    Total Energy =                       -134.2470432307445378
  Basis Set: 6-31G*
  Basis Set:
  Basis Set: 6-31G*
  Basis Set:
  @DF-RHF Final Energy:  -134.24732180904599
    Total Energy =                       -134.2473218090460136
  Basis Set: 6-31G*
  Basis Set:
  Basis Set: 6-31G*
  Basis Set:
  @DF-RHF Final Energy:  -134.24732538791352
    Total Energy =                       -134.2473253879134916
  Basis Set: 6-31G*
  Basis Set:
  Charge       = 0
  Multiplicity = 1
  Basis Set: 6-31G*
  Basis Set:

    Orbital Energies (a.u.)
    -----------------------

    Doubly Occupied:

       1A    -15.532051     2A    -11.242314     3A    -11.208850
       4A     -1.175848     5A     -0.987958     6A     -0.825419
       7A     -0.660007     8A     -0.631137     9A     -0.584859
      10A     -0.517603    11A     -0.505281    12A     -0.491172
      13A     -0.380201

  @DF-RHF Final Energy:  -134.24732575002741

   => Energetics <=

    Nuclear Repulsion Energy =             83.4017104446346593
    One-Electron Energy =                -345.8126677967232467
    Two-Electron Energy =                 128.1636316020611730
    DFT Exchange-Correlation Energy =       0.0000000000000000
    Empirical Dispersion Energy =           0.0000000000000000
    PCM Polarization Energy =               0.0000000000000000
    EFP Energy =                            0.0000000000000000
    Total Energy =                       -134.2473257500274144
    Molecular point group: c1
  Basis Set: 6-31G*
  Basis Set:

  -Total Gradient:
     Atom            X                  Y                   Z
    ------   -----------------  -----------------  -----------------
       1        0.000921983124    -0.001293700427     0.001051717862
       2       -0.001461976425     0.001928041016    -0.000985255410
       3        0.001499438742    -0.001745036524    -0.001134488949
       4       -0.000012531876    -0.000002102275    -0.000007890551
       5       -0.000009968471     0.000029466219     0.000008520837
       6       -0.000935281380     0.001067037893     0.001062455501
       7        0.000004756794    -0.000005970078     0.000010579887
       8       -0.000010437749     0.000009560209     0.000005965484
       9        0.000018504303    -0.000002759910    -0.000003722485
      10       -0.000014487065     0.000015463878    -0.000007882176

  **** Optimization is complete! (in 5 steps) ****
    Final optimized geometry and variables:
    Molecular point group: c1

    Geometry (in Angstrom), charge = 0, multiplicity = 1:

    H           -1.097877822262    -0.907292082325    -0.845850191396
    N           -1.176309320433    -0.318060770863    -0.039166438247
    C           -0.026376952638     0.567594224215     0.066555573486
    H           -2.028293708411     0.200442904664    -0.126826306678
    C            1.268395637268    -0.231447427304     0.029964833203
    H           -0.006319760765     1.340025371580    -0.705257766916
    H           -0.097870878938     1.088565215385     1.016374460034
    H            1.382212446500    -0.747427065576    -0.920229357379
    H            2.128730345007     0.417764348444     0.157875637384
    H            1.274969401028    -0.975273258592     0.818853789780

  Mulliken Charges: (a.u.)
   Center  Symbol    Alpha    Beta     Spin     Total
       1     H     0.33535  0.33535  0.00000  0.32929
       2     N     3.92086  3.92086  0.00000 -0.84172
       3     C     3.05911  3.05911  0.00000 -0.11822
       4     H     0.33236  0.33236  0.00000  0.33529
       5     C     3.24256  3.24256  0.00000 -0.48512
       6     H     0.43429  0.43429  0.00000  0.13142
       7     H     0.41946  0.41946  0.00000  0.16109
       8     H     0.42508  0.42508  0.00000  0.14984
       9     H     0.41987  0.41987  0.00000  0.16025
      10     H     0.41106  0.41106  0.00000  0.17788

   Total alpha = 13.00000, Total beta = 13.00000, Total charge =  0.00000
