  ==> Input File <==

--------------------------------------------------------------------------
set {
	reference rhf
	basis 6-31G*
}

set_num_threads( 4 )
memory 2 gb

molecule MOL {
0 1

H	 -2.762990	 -1.074414	 -0.183207
N	 -1.835156	 -0.934642	 0.166881
C	 -1.380421	 0.417435	 -0.105529
H	 -1.237865	 -1.588655	 -0.300687
C	 0.036805	 0.597301	 0.396717
H	 -1.407056	 0.684858	 -1.162779
H	 -2.025001	 1.113309	 0.422730
O	 0.874168	 -0.245412	 -0.342030
H	 0.349851	 1.634327	 0.277475
H	 0.085004	 0.344939	 1.453705
C	 2.202317	 -0.244239	 0.074611
H	 2.711377	 -1.041390	 -0.449894
H	 2.692099	 0.699270	 -0.159667
H	 2.283185	 -0.418429	 1.145558

	symmetry c1
}
set optking {
	frozen_dihedral = ("
		5 8 11 13
	")
}

ee = optimize('scf')
oeprop('DIPOLE', 'QUADRUPOLE', 'MULLIKEN_CHARGES')
f=open( 'psi4out.xyz', 'w' )
f.write( "14  " )
f.write( str(ee) + "\n" )
f.write( MOL.save_string_xyz() )
f.close()
--------------------------------------------------------------------------

    Molecular point group: c1
  Charge       = 0
  Multiplicity = 1
  Basis Set: 6-31G*
  Basis Set:
  @DF-RHF Final Energy:  -248.12503656772461
    Total Energy =                       -248.1250365677246918
    Molecular point group: c1
  Basis Set: 6-31G*
  Basis Set:
  Basis Set: 6-31G*
  Basis Set:
  @DF-RHF Final Energy:  -248.12504714196976
    Total Energy =                       -248.1250471419698442
  Basis Set: 6-31G*
  Basis Set:
  Basis Set: 6-31G*
  Basis Set:
  @DF-RHF Final Energy:  -248.12504832341148
    Total Energy =                       -248.1250483234114199
  Basis Set: 6-31G*
  Basis Set:
  Charge       = 0
  Multiplicity = 1
  Basis Set: 6-31G*
  Basis Set:

    Orbital Energies (a.u.)
    -----------------------

    Doubly Occupied:

       1A    -20.557362     2A    -15.528393     3A    -11.266188
       4A    -11.265679     5A    -11.240771     6A     -1.381223
       7A     -1.173555     8A     -0.999114     9A     -0.907227
      10A     -0.815123    11A     -0.683536    12A     -0.674071
      13A     -0.645303    14A     -0.609970    15A     -0.605445
      16A     -0.540465    17A     -0.530536    18A     -0.496773
      19A     -0.472540    20A     -0.417507    21A     -0.380046

  @DF-RHF Final Energy:  -248.12504839370283

   => Energetics <=

    Nuclear Repulsion Energy =            194.6578071236413905
    One-Electron Energy =                -723.1840612962460000
    Two-Electron Energy =                 280.4012057789017263
    DFT Exchange-Correlation Energy =       0.0000000000000000
    Empirical Dispersion Energy =           0.0000000000000000
    PCM Polarization Energy =               0.0000000000000000
    EFP Energy =                            0.0000000000000000
    Total Energy =                       -248.1250483937028548
    Molecular point group: c1
  Basis Set: 6-31G*
  Basis Set:

  -Total Gradient:
     Atom            X                  Y                   Z
    ------   -----------------  -----------------  -----------------
       1        0.000002510207    -0.000005802718    -0.000001524558
       2       -0.000003491050    -0.000004741303    -0.000007537865
       3        0.000001198734     0.000001195139     0.000026913932
       4       -0.000002070185    -0.000004628566    -0.000005123193
       5       -0.000215549251    -0.000807622842     0.000687849583
       6        0.000011394919    -0.000003241160     0.000008703824
       7       -0.000003351391     0.000004440888     0.000001277141
       8        0.000433408276     0.001018151180    -0.001336448198
       9        0.000003201566     0.000002812399     0.000000879781
      10       -0.000007233531    -0.000000324612    -0.000008395927
      11       -0.000599793169     0.000327427611     0.001892245030
      12        0.000009949828    -0.000005905650    -0.000004114628
      13        0.000385782024    -0.000518223223    -0.001245732788
      14       -0.000015956979    -0.000003537141    -0.000008992132

  **** Optimization is complete! (in 4 steps) ****
    Final optimized geometry and variables:
    Molecular point group: c1

    Geometry (in Angstrom), charge = 0, multiplicity = 1:

    H           -2.751971212857    -0.977293285521    -0.217139257476
    N           -1.824962352922    -0.836141949646     0.134486849664
    C           -1.371124851787     0.516327228218    -0.137886707332
    H           -1.226165307350    -1.489857137823    -0.331513985090
    C            0.045421374293     0.698111418569     0.365740357154
    H           -1.397096892283     0.783374740627    -1.195211781669
    H           -2.016771085760     1.211850059528     0.389470033740
    O            0.883288752461    -0.147241004633    -0.369450599011
    H            0.357333159495     1.735450920186     0.244996800769
    H            0.092775251360     0.447676076816     1.422989481467
    C            2.212498429861    -0.146555760877     0.044850924866
    H            2.720558111471    -0.940811535569    -0.485571949665
    H            2.701957950107     0.795845443191    -0.194083344638
    H            2.298697120019    -0.326863142083     1.113859064764

  Mulliken Charges: (a.u.)
   Center  Symbol    Alpha    Beta     Spin     Total
       1     H     0.33283  0.33283  0.00000  0.33433
       2     N     3.92529  3.92529  0.00000 -0.85058
       3     C     3.06896  3.06896  0.00000 -0.13791
       4     H     0.32370  0.32370  0.00000  0.35259
       5     C     2.99007  2.99007  0.00000  0.01987
       6     H     0.42662  0.42662  0.00000  0.14676
       7     H     0.42045  0.42045  0.00000  0.15910
       8     O     4.30999  4.30999  0.00000 -0.61997
       9     H     0.43121  0.43121  0.00000  0.13757
      10     H     0.42230  0.42230  0.00000  0.15540
      11     C     3.07873  3.07873  0.00000 -0.15747
      12     H     0.41284  0.41284  0.00000  0.17431
      13     H     0.42903  0.42903  0.00000  0.14195
      14     H     0.42797  0.42797  0.00000  0.14405

   Total alpha = 21.00000, Total beta = 21.00000, Total charge =  0.00000
