  ==> Input File <==

--------------------------------------------------------------------------
set {
	reference rhf
	basis 6-31G*
}

set_num_threads( 1 )
memory 2 gb

molecule MOL {
0 1

H	 2.853277	 -0.410476	 0.069132
O	 2.015176	 -0.862539	 0.072670
C	 1.050492	 0.053836	 0.000068
C	 -0.318135	 -0.576402	 0.000164
O	 1.285966	 1.216754	 -0.056227
C	 -1.454360	 0.441875	 -0.000474
H	 -0.374042	 -1.230163	 -0.866135
H	 -0.374274	 -1.229227	 0.867154
C	 -2.826123	 -0.230780	 0.000056
H	 -1.357605	 1.085198	 -0.868380
H	 -1.357504	 1.086451	 0.866496
H	 -2.959731	 -0.858053	 -0.876869
H	 -3.619374	 0.509403	 -0.000080
H	 -2.959371	 -0.857318	 0.877556

	symmetry c1
}
set optking {
	frozen_dihedral = ("
		7 4 6 10,
		1 2 3 5
	")
}

ee = energy('scf')
oeprop('DIPOLE', 'QUADRUPOLE', 'MULLIKEN_CHARGES')
f=open( 'psi4out.xyz', 'w' )
f.write( "14  " )
f.write( str(ee) + "\n" )
f.write( MOL.save_string_xyz() )
f.close()
--------------------------------------------------------------------------

    Molecular point group: c1

    Geometry (in Angstrom), charge = 0, multiplicity = 1:

       Center              X                  Y                   Z               Mass
    ------------   -----------------  -----------------  -----------------  -----------------
           H          2.853323164214    -0.410577091740     0.065382128199     1.007825032070
           O          2.015222164214    -0.862640091740     0.068920128199    15.994914619560
           C          1.050538164214     0.053734908260    -0.003681871801    12.000000000000
           C         -0.318088835786    -0.576503091740    -0.003585871801    12.000000000000
           O          1.286012164214     1.216652908260    -0.059976871801    15.994914619560
           C         -1.454313835786     0.441773908260    -0.004223871801    12.000000000000
           H         -0.373995835786    -1.230264091740    -0.869884871801     1.007825032070
           H         -0.374227835786    -1.229328091740     0.863404128199     1.007825032070
           C         -2.826076835786    -0.230881091740    -0.003693871801    12.000000000000
           H         -1.357558835786     1.085096908260    -0.872129871801     1.007825032070
           H         -1.357457835786     1.086349908260     0.862746128199     1.007825032070
           H         -2.959684835786    -0.858154091740    -0.880618871801     1.007825032070
           H         -3.619327835786     0.509301908260    -0.003829871801     1.007825032070
           H         -2.959324835786    -0.857419091740     0.873806128199     1.007825032070

  Charge       = 0
  Multiplicity = 1
  Basis Set: 6-31G*
  Basis Set:

    Orbital Energies (a.u.)
    -----------------------

    Doubly Occupied:

       1A    -20.613151     2A    -20.552234     3A    -11.381788
       4A    -11.241359     5A    -11.225676     6A    -11.217146
       7A     -1.475216     8A     -1.366312     9A     -1.083207
      10A     -0.979735    11A     -0.857332    12A     -0.791279
      13A     -0.700063    14A     -0.688904    15A     -0.667455
      16A     -0.615487    17A     -0.594089    18A     -0.572975
      19A     -0.545412    20A     -0.505282    21A     -0.491647
      22A     -0.482498    23A     -0.479012    24A     -0.444763

  @DF-RHF Final Energy:  -305.88086385240979

   => Energetics <=

    Nuclear Repulsion Energy =            239.9649644445219963
    One-Electron Energy =                -892.5476052194283056
    Two-Electron Energy =                 346.7017769224971744
    DFT Exchange-Correlation Energy =       0.0000000000000000
    Empirical Dispersion Energy =           0.0000000000000000
    PCM Polarization Energy =               0.0000000000000000
    EFP Energy =                            0.0000000000000000
    Total Energy =                       -305.8808638524091066

  Mulliken Charges: (a.u.)
   Center  Symbol    Alpha    Beta     Spin     Total
       1     H     0.26776  0.26776  0.00000  0.46449
       2     O     4.35112  4.35112  0.00000 -0.70224
       3     C     2.62333  2.62333  0.00000  0.75334
       4     C     3.20937  3.20937  0.00000 -0.41874
       5     O     4.27914  4.27914  0.00000 -0.55827
       6     C     3.15246  3.15246  0.00000 -0.30491
       7     H     0.39858  0.39858  0.00000  0.20284
       8     H     0.39902  0.39902  0.00000  0.20196
       9     C     3.24292  3.24292  0.00000 -0.48584
      10     H     0.40947  0.40947  0.00000  0.18106
      11     H     0.41074  0.41074  0.00000  0.17853
      12     H     0.42081  0.42081  0.00000  0.15837
      13     H     0.41445  0.41445  0.00000  0.17110
      14     H     0.42085  0.42085  0.00000  0.15831

   Total alpha = 24.00000, Total beta = 24.00000, Total charge =  0.00000
