  ==> Input File <==

--------------------------------------------------------------------------
set {
	reference rhf
	basis 6-31G*
}

set_num_threads( 4 )
memory 2 gb

molecule MOL {
0 1

H	 2.591676	 2.013956	 0.335017
O	 3.341076	 1.666752	 -0.126416
C	 3.569581	 0.339145	 0.272707
C	 2.539767	 -0.640285	 -0.279495
H	 4.553106	 0.084646	 -0.100901
H	 3.608576	 0.269204	 1.359154
C	 1.115811	 -0.397273	 0.226630
H	 2.556196	 -0.582511	 -1.364741
H	 2.852081	 -1.648031	 -0.010655
C	 0.115918	 -1.429151	 -0.302766
H	 0.797950	 0.599468	 -0.066350
H	 1.109961	 -0.420744	 1.316472
C	 -0.358530	 -2.455912	 0.732126
H	 -0.746969	 -0.911370	 -0.717706
H	 0.575850	 -1.963147	 -1.131628
C	 -1.201011	 -1.878893	 1.873070
H	 -0.945041	 -3.214033	 0.217272
H	 0.505137	 -2.973149	 1.147315
C	 -1.738293	 -2.954045	 2.820073
H	 -2.036795	 -1.319689	 1.454899
H	 -0.614643	 -1.166069	 2.447837
C	 -2.574277	 -2.380194	 3.963528
H	 -2.338991	 -3.663645	 2.255168
H	 -0.905108	 -3.520171	 3.231399
H	 -3.434452	 -1.835116	 3.585094
H	 -2.942029	 -3.166493	 4.615547
H	 -1.990453	 -1.693801	 4.570469

	symmetry c1
}
set optking {
	frozen_dihedral = ("
		14 10 7 4
	")
}

ee = optimize('scf')
oeprop('DIPOLE', 'QUADRUPOLE', 'MULLIKEN_CHARGES')
f=open( 'psi4out.xyz', 'w' )
f.write( "27  " )
f.write( str(ee) + "\n" )
f.write( MOL.save_string_xyz() )
f.close()
--------------------------------------------------------------------------

    Molecular point group: c1
  Charge       = 0
  Multiplicity = 1
  Basis Set: 6-31G*
  Basis Set:
  @DF-RHF Final Energy:  -388.27641755039997
    Total Energy =                       -388.2764175503999695
    Molecular point group: c1
  Basis Set: 6-31G*
  Basis Set:
  Basis Set: 6-31G*
  Basis Set:
  @DF-RHF Final Energy:  -388.27668609915628
    Total Energy =                       -388.2766860991559952
  Basis Set: 6-31G*
  Basis Set:
  Basis Set: 6-31G*
  Basis Set:
  @DF-RHF Final Energy:  -388.27694725953830
    Total Energy =                       -388.2769472595387015
  Basis Set: 6-31G*
  Basis Set:
  Basis Set: 6-31G*
  Basis Set:
  @DF-RHF Final Energy:  -388.27695311205042
    Total Energy =                       -388.2769531120500233
  Basis Set: 6-31G*
  Basis Set:
  @DF-RHF Final Energy:  -388.27698325511898
    Total Energy =                       -388.2769832551184663
  Basis Set: 6-31G*
  Basis Set:
  @DF-RHF Final Energy:  -388.27699223487042
    Total Energy =                       -388.2769922348701357
  Basis Set: 6-31G*
  Basis Set:
  Basis Set: 6-31G*
  Basis Set:
  @DF-RHF Final Energy:  -388.27699185955714
    Total Energy =                       -388.2769918595575973
  Basis Set: 6-31G*
  Basis Set:
  Basis Set: 6-31G*
  Basis Set:
  @DF-RHF Final Energy:  -388.27699309653917
    Total Energy =                       -388.2769930965389449
  Basis Set: 6-31G*
  Basis Set:
  Charge       = 0
  Multiplicity = 1
  Basis Set: 6-31G*
  Basis Set:

    Orbital Energies (a.u.)
    -----------------------

    Doubly Occupied:

       1A    -20.552234     2A    -11.266892     3A    -11.219929
       4A    -11.217069     5A    -11.216579     6A    -11.216297
       7A    -11.215604     8A    -11.214751     9A    -11.209968
      10A     -1.358972    11A     -1.094588    12A     -1.060937
      13A     -1.011018    14A     -0.948276    15A     -0.887925
      16A     -0.823620    17A     -0.802316    18A     -0.775861
      19A     -0.693274    20A     -0.656010    21A     -0.630571
      22A     -0.615494    23A     -0.600410    24A     -0.585367
      25A     -0.579763    26A     -0.551596    27A     -0.544635
      28A     -0.527851    29A     -0.504672    30A     -0.503500
      31A     -0.482684    32A     -0.475354    33A     -0.464867
      34A     -0.457192    35A     -0.452435    36A     -0.442279
      37A     -0.423649

  @DF-RHF Final Energy:  -388.27699316825220

   => Energetics <=

    Nuclear Repulsion Energy =            459.8476061909189525
    One-Electron Energy =               -1437.6803176015801000
    Two-Electron Energy =                 589.5557182424090570
    DFT Exchange-Correlation Energy =       0.0000000000000000
    Empirical Dispersion Energy =           0.0000000000000000
    PCM Polarization Energy =               0.0000000000000000
    EFP Energy =                            0.0000000000000000
    Total Energy =                       -388.2769931682521474
    Molecular point group: c1
  Basis Set: 6-31G*
  Basis Set:

  -Total Gradient:
     Atom            X                  Y                   Z
    ------   -----------------  -----------------  -----------------
       1       -0.000008297557    -0.000001032736     0.000001125509
       2       -0.000004659429    -0.000000328198     0.000000701317
       3        0.000000573618    -0.000001486800    -0.000014515024
       4       -0.000264922291     0.000869278814    -0.001098930216
       5       -0.000000008910    -0.000001753266    -0.000001215489
       6       -0.000002533607    -0.000001517204    -0.000000563717
       7        0.000591776909    -0.001180199274     0.001118346502
       8       -0.000000095354    -0.000008970640    -0.000001996178
       9        0.000005524647    -0.000001574045     0.000006265787
      10       -0.001153008066     0.000245968505     0.001781782631
      11        0.000005534488     0.000003587783     0.000007136294
      12       -0.000008329590     0.000001806388     0.000014369131
      13        0.000000192210    -0.000004993319     0.000003855930
      14        0.000829194928     0.000074788466    -0.001800414477
      15       -0.000017674728     0.000004436364    -0.000005111680
      16        0.000027041421     0.000003497006    -0.000005642001
      17        0.000002703957    -0.000000068484    -0.000001895634
      18       -0.000000152492    -0.000002013855     0.000014973031
      19       -0.000013612759    -0.000014184883    -0.000012706169
      20        0.000006517235    -0.000010397634    -0.000005191008
      21        0.000005649847     0.000025682168    -0.000005821122
      22        0.000006984043     0.000002345048     0.000007595495
      23       -0.000006417787    -0.000004889914     0.000002231255
      24       -0.000002495201     0.000001209029    -0.000007310196
      25        0.000000531181    -0.000003781831    -0.000000126507
      26        0.000002154362     0.000001307598     0.000003291702
      27       -0.000002171073     0.000003284905    -0.000000235169

  **** Optimization is complete! (in 9 steps) ****
    Final optimized geometry and variables:
    Molecular point group: c1

    Geometry (in Angstrom), charge = 0, multiplicity = 1:

    H            2.096078957185     3.060251864924    -0.610664399239
    O            2.827274606494     2.720832455044    -1.105963248425
    C            3.035485403946     1.370677856575    -0.777527944957
    C            1.965164746905     0.443767744299    -1.342073791745
    H            4.000461722110     1.112221837827    -1.194339430393
    H            3.106727478607     1.247651348479     0.302643739184
    C            0.561460742651     0.699626732926    -0.784896302880
    H            1.949614989794     0.549832123138    -2.423435645473
    H            2.258090763019    -0.583342671070    -1.128363147460
    C           -0.489133679941    -0.305413257942    -1.308210188640
    H            0.259387868480     1.708963801120    -1.050530368982
    H            0.598039628960     0.669607837232     0.302022034836
    C           -0.935752492056    -1.354401856919    -0.282776239047
    H           -1.359845907544     0.225603463669    -1.683896862540
    H           -0.075613691877    -0.821736582811    -2.170893421580
    C           -1.847052732680    -0.806784048954     0.818631900848
    H           -1.462095537764    -2.151812934139    -0.802907578088
    H           -0.056909448413    -1.815101130080     0.166582242808
    C           -2.265676075597    -1.870091866894     1.836060255893
    H           -2.737337914885    -0.378378243876     0.360817568359
    H           -1.353650415557     0.009255291455     1.342318051907
    C           -3.188754005483    -1.324986575918     2.925334006090
    H           -2.762634876083    -2.687842623792     1.318435999298
    H           -1.377154764686    -2.296814818533     2.296711163193
    H           -4.103419313159    -0.922736200820     2.498970257824
    H           -3.466848559000    -2.101760377858     3.630944073481
    H           -2.707511671409    -0.527450758422     3.484572883730

  Mulliken Charges: (a.u.)
   Center  Symbol    Alpha    Beta     Spin     Total
       1     H     0.27992  0.27992  0.00000  0.44017
       2     O     4.37099  4.37099  0.00000 -0.74198
       3     C     2.99761  2.99761  0.00000  0.00478
       4     C     3.16300  3.16300  0.00000 -0.32599
       5     H     0.41444  0.41444  0.00000  0.17111
       6     H     0.43217  0.43217  0.00000  0.13567
       7     C     3.16499  3.16499  0.00000 -0.32997
       8     H     0.41444  0.41444  0.00000  0.17112
       9     H     0.42418  0.42418  0.00000  0.15164
      10     C     3.15714  3.15714  0.00000 -0.31427
      11     H     0.42217  0.42217  0.00000  0.15565
      12     H     0.42243  0.42243  0.00000  0.15514
      13     C     3.15488  3.15488  0.00000 -0.30977
      14     H     0.41959  0.41959  0.00000  0.16082
      15     H     0.41770  0.41770  0.00000  0.16461
      16     C     3.15168  3.15168  0.00000 -0.30336
      17     H     0.42124  0.42124  0.00000  0.15753
      18     H     0.42439  0.42439  0.00000  0.15122
      19     C     3.15127  3.15127  0.00000 -0.30254
      20     H     0.42385  0.42385  0.00000  0.15231
      21     H     0.42369  0.42369  0.00000  0.15263
      22     C     3.23921  3.23921  0.00000 -0.47842
      23     H     0.42274  0.42274  0.00000  0.15453
      24     H     0.42333  0.42333  0.00000  0.15334
      25     H     0.42160  0.42160  0.00000  0.15681
      26     H     0.41913  0.41913  0.00000  0.16174
      27     H     0.42225  0.42225  0.00000  0.15549

   Total alpha = 37.00000, Total beta = 37.00000, Total charge =  0.00000
