  ==> Input File <==

--------------------------------------------------------------------------
set {
	reference rhf
	basis 6-31G*
}

set_num_threads( 1 )
memory 2 gb

molecule MOL {
0 1

O	 -2.042549	 -1.228399	 -0.269030
C	 -1.653912	 -0.146171	 0.050137
C	 -0.332303	 0.024011	 0.778412
C	 -2.438579	 1.106236	 -0.272369
C	 0.544965	 1.078355	 0.085136
H	 -0.501332	 0.306447	 1.813807
H	 0.175194	 -0.934240	 0.767308
C	 1.900424	 1.259223	 0.770007
H	 0.024003	 2.033977	 0.063492
H	 0.692048	 0.780695	 -0.948744
C	 2.778418	 2.300674	 0.077394
H	 1.745771	 1.548223	 1.807305
H	 2.420352	 0.304361	 0.791929
H	 2.299471	 3.275662	 0.069676
H	 2.977373	 2.022041	 -0.953248
H	 3.733428	 2.405552	 0.582352
H	 -3.277823	 0.863061	 -0.908988
H	 -1.806773	 1.843019	 -0.759671
H	 -2.802853	 1.554979	 0.648059

	symmetry c1
}
set optking {
	frozen_dihedral = ("
		11 8 5 9,
		9 5 3 2
	")
}

ee = energy('scf')
oeprop('DIPOLE', 'QUADRUPOLE', 'MULLIKEN_CHARGES')
f=open( 'psi4out.xyz', 'w' )
f.write( "19  " )
f.write( str(ee) + "\n" )
f.write( MOL.save_string_xyz() )
f.close()
--------------------------------------------------------------------------

    Molecular point group: c1

    Geometry (in Angstrom), charge = 0, multiplicity = 1:

       Center              X                  Y                   Z               Mass
    ------------   -----------------  -----------------  -----------------  -----------------
           O         -1.869113590592    -1.867319602084    -0.434463421377    15.994914619560
           C         -1.480476590592    -0.785091602084    -0.115296421377    12.000000000000
           C         -0.158867590592    -0.614909602084     0.612978578623    12.000000000000
           C         -2.265143590592     0.467315397916    -0.437802421377    12.000000000000
           C          0.718400409408     0.439434397916    -0.080297421377    12.000000000000
           H         -0.327896590592    -0.332473602084     1.648373578623     1.007825032070
           H          0.348629409408    -1.573160602084     0.601874578623     1.007825032070
           C          2.073859409408     0.620302397916     0.604573578623    12.000000000000
           H          0.197438409408     1.395056397916    -0.101941421377     1.007825032070
           H          0.865483409408     0.141774397916    -1.114177421377     1.007825032070
           C          2.951853409408     1.661753397916    -0.088039421377    12.000000000000
           H          1.919206409408     0.909302397916     1.641871578623     1.007825032070
           H          2.593787409408    -0.334559602084     0.626495578623     1.007825032070
           H          2.472906409408     2.636741397916    -0.095757421377     1.007825032070
           H          3.150808409408     1.383120397916    -1.118681421377     1.007825032070
           H          3.906863409408     1.766631397916     0.416918578623     1.007825032070
           H         -3.104387590592     0.224140397916    -1.074421421377     1.007825032070
           H         -1.633337590592     1.204098397916    -0.925104421377     1.007825032070
           H         -2.629417590592     0.916058397916     0.482625578623     1.007825032070

  Charge       = 0
  Multiplicity = 1
  Basis Set: 6-31G*
  Basis Set:

    Orbital Energies (a.u.)
    -----------------------

    Doubly Occupied:

       1A    -20.547869     2A    -11.324325     3A    -11.232147
       4A    -11.229840     5A    -11.227147     6A    -11.226678
       7A    -11.216954     8A     -1.393015     9A     -1.095837
      10A     -1.030222    11A     -0.981400    12A     -0.893301
      13A     -0.810225    14A     -0.733498    15A     -0.663878
      16A     -0.648976    17A     -0.626517    18A     -0.613777
      19A     -0.581055    20A     -0.578555    21A     -0.551735
      22A     -0.535358    23A     -0.512815    24A     -0.497935
      25A     -0.486260    26A     -0.477421    27A     -0.471568
      28A     -0.397019

  @DF-RHF Final Energy:  -309.06178544996538

   => Energetics <=

    Nuclear Repulsion Energy =            302.4294264222979223
    One-Electron Energy =               -1017.8117730221779311
    Two-Electron Energy =                 406.3205611499143401
    DFT Exchange-Correlation Energy =       0.0000000000000000
    Empirical Dispersion Energy =           0.0000000000000000
    PCM Polarization Energy =               0.0000000000000000
    EFP Energy =                            0.0000000000000000
    Total Energy =                       -309.0617854499657255

  Mulliken Charges: (a.u.)
   Center  Symbol    Alpha    Beta     Spin     Total
       1     O     4.26155  4.26155  0.00000 -0.52310
       2     C     2.73195  2.73195  0.00000  0.53609
       3     C     3.20377  3.20377  0.00000 -0.40755
       4     C     3.29277  3.29277  0.00000 -0.58555
       5     C     3.16861  3.16861  0.00000 -0.33722
       6     H     0.40930  0.40930  0.00000  0.18141
       7     H     0.39893  0.39893  0.00000  0.20214
       8     C     3.15078  3.15078  0.00000 -0.30155
       9     H     0.41950  0.41950  0.00000  0.16099
      10     H     0.41459  0.41459  0.00000  0.17082
      11     C     3.24017  3.24017  0.00000 -0.48034
      12     H     0.42139  0.42139  0.00000  0.15722
      13     H     0.41889  0.41889  0.00000  0.16223
      14     H     0.42137  0.42137  0.00000  0.15726
      15     H     0.41979  0.41979  0.00000  0.16042
      16     H     0.41684  0.41684  0.00000  0.16632
      17     H     0.39601  0.39601  0.00000  0.20798
      18     H     0.40604  0.40604  0.00000  0.18792
      19     H     0.40775  0.40775  0.00000  0.18451

   Total alpha = 28.00000, Total beta = 28.00000, Total charge =  0.00000
