  ==> Input File <==

--------------------------------------------------------------------------
set {
	reference rhf
	basis 6-31G*
}

set_num_threads( 4 )
memory 2 gb

molecule MOL {
0 1

H	 3.857292	 0.375192	 0.425434
N	 3.042312	 -0.206657	 0.453794
C	 1.865559	 0.531981	 0.018834
H	 2.935681	 -0.509245	 1.403479
C	 0.645745	 -0.382037	 -0.029944
H	 2.066451	 0.915212	 -0.976975
H	 1.645045	 1.397450	 0.648704
C	 -0.679275	 0.379305	 0.025956
H	 0.698998	 -0.976915	 -0.937203
H	 0.693479	 -1.083846	 0.802235
C	 -1.903357	 -0.536963	 -0.023547
H	 -0.726309	 1.082987	 -0.803784
H	 -0.717680	 0.977832	 0.934877
C	 -3.225172	 0.228290	 0.028445
H	 -1.867824	 -1.134999	 -0.931459
H	 -1.860449	 -1.239604	 0.805977
H	 -3.313397	 0.915643	 -0.808262
H	 -4.073500	 -0.448134	 -0.008893
H	 -3.306061	 0.809945	 0.942516

	symmetry c1
}
set optking {
	frozen_dihedral = ("
		6 3 5 9
	")
}

ee = optimize('scf')
oeprop('DIPOLE', 'QUADRUPOLE', 'MULLIKEN_CHARGES')
f=open( 'psi4out.xyz', 'w' )
f.write( "19  " )
f.write( str(ee) + "\n" )
f.write( MOL.save_string_xyz() )
f.close()
--------------------------------------------------------------------------

    Molecular point group: c1
  Charge       = 0
  Multiplicity = 1
  Basis Set: 6-31G*
  Basis Set:
  @DF-RHF Final Energy:  -251.34982420258680
    Total Energy =                       -251.3498242025866602
    Molecular point group: c1
  Basis Set: 6-31G*
  Basis Set:
  Basis Set: 6-31G*
  Basis Set:
  @DF-RHF Final Energy:  -251.35001382336139
    Total Energy =                       -251.3500138233615644
  Basis Set: 6-31G*
  Basis Set:
  Basis Set: 6-31G*
  Basis Set:
  @DF-RHF Final Energy:  -251.35008048722554
    Total Energy =                       -251.3500804872255685
  Basis Set: 6-31G*
  Basis Set:
  Basis Set: 6-31G*
  Basis Set:
  @DF-RHF Final Energy:  -251.35007914594169
    Total Energy =                       -251.3500791459414359
  Basis Set: 6-31G*
  Basis Set:
  Basis Set: 6-31G*
  Basis Set:
  @DF-RHF Final Energy:  -251.35008231663028
    Total Energy =                       -251.3500823166302780
  Basis Set: 6-31G*
  Basis Set:
  Charge       = 0
  Multiplicity = 1
  Basis Set: 6-31G*
  Basis Set:

    Orbital Energies (a.u.)
    -----------------------

    Doubly Occupied:

       1A    -15.532122     2A    -11.239976     3A    -11.213855
       4A    -11.212485     5A    -11.209681     6A    -11.207566
       7A     -1.175879     8A     -1.072738     9A     -0.997814
      10A     -0.899812    11A     -0.813377    12A     -0.788732
      13A     -0.667893    14A     -0.637602    15A     -0.618435
      16A     -0.584839    17A     -0.568382    18A     -0.548030
      19A     -0.527302    20A     -0.502041    21A     -0.481635
      22A     -0.464863    23A     -0.461115    24A     -0.447388
      25A     -0.380657

  @DF-RHF Final Energy:  -251.35008238974095

   => Energetics <=

    Nuclear Repulsion Energy =            245.6588662343086469
    One-Electron Energy =                -825.5094601519879234
    Two-Electron Energy =                 328.5005115279380448
    DFT Exchange-Correlation Energy =       0.0000000000000000
    Empirical Dispersion Energy =           0.0000000000000000
    PCM Polarization Energy =               0.0000000000000000
    EFP Energy =                            0.0000000000000000
    Total Energy =                       -251.3500823897412033
    Molecular point group: c1
  Basis Set: 6-31G*
  Basis Set:

  -Total Gradient:
     Atom            X                  Y                   Z
    ------   -----------------  -----------------  -----------------
       1       -0.000005648511     0.000000021387    -0.000001601016
       2       -0.000003722642     0.000004615132    -0.000000142222
       3       -0.003460452170     0.004563760211     0.000472131791
       4       -0.000004092324     0.000002731683    -0.000004659440
       5        0.003165150971    -0.004211702381     0.002267255492
       6        0.002424027373    -0.003178047011    -0.000739483707
       7        0.000000561084    -0.000000674944    -0.000005993904
       8       -0.000000197558     0.000005117262    -0.000016047456
       9       -0.002125074436     0.002825710477    -0.001982057896
      10        0.000001014635    -0.000004267406    -0.000000246910
      11       -0.000000103716    -0.000005280976     0.000018154642
      12        0.000000996122     0.000006500608    -0.000003287459
      13        0.000004879436    -0.000009677731    -0.000000645300
      14        0.000002208306     0.000002318061    -0.000009345758
      15       -0.000001083435    -0.000001118004     0.000002679762
      16        0.000001529726    -0.000000539329     0.000002944788
      17        0.000000124835     0.000004948399     0.000002573876
      18        0.000001350742     0.000000028345    -0.000004766139
      19       -0.000001468438    -0.000004443782     0.000002536858

  **** Optimization is complete! (in 6 steps) ****
    Final optimized geometry and variables:
    Molecular point group: c1

    Geometry (in Angstrom), charge = 0, multiplicity = 1:

    H            3.883833252262     0.361137048917     0.241849722090
    N            3.067357061041    -0.213831614891     0.321998159112
    C            1.872233842824     0.527446225143    -0.061052429293
    H            3.009772919927    -0.504745927282     1.279441638110
    C            0.654285329789    -0.397668990221    -0.073789264383
    H            2.049757197830     0.898792431566    -1.065119752381
    H            1.679494463757     1.389962075866     0.580190121485
    C           -0.672060904702     0.365906193223    -0.043587046909
    H            0.687367675665    -1.006585941710    -0.972464883082
    H            0.702987490153    -1.074982610527     0.776013391865
    C           -1.896582022132    -0.546753639588    -0.128892460074
    H           -0.698762231368     1.077185539886    -0.868341594832
    H           -0.729475920145     0.957809417171     0.868602864145
    C           -3.217947643404     0.220047376293    -0.089324759090
    H           -1.846201680734    -1.131714397169    -1.044612693115
    H           -1.869625102267    -1.261850129565     0.690722865580
    H           -3.289313137884     0.920986485277    -0.916321745084
    H           -4.066602100763    -0.454015202719    -0.153430061369
    H           -3.315054602453     0.787090412689     0.832310408938

  Mulliken Charges: (a.u.)
   Center  Symbol    Alpha    Beta     Spin     Total
       1     H     0.33295  0.33295  0.00000  0.33411
       2     N     3.92243  3.92243  0.00000 -0.84486
       3     C     3.06158  3.06158  0.00000 -0.12316
       4     H     0.33566  0.33566  0.00000  0.32868
       5     C     3.14951  3.14951  0.00000 -0.29901
       6     H     0.41969  0.41969  0.00000  0.16062
       7     H     0.43330  0.43330  0.00000  0.13341
       8     C     3.15621  3.15621  0.00000 -0.31242
       9     H     0.41576  0.41576  0.00000  0.16847
      10     H     0.42441  0.42441  0.00000  0.15117
      11     C     3.15091  3.15091  0.00000 -0.30182
      12     H     0.42442  0.42442  0.00000  0.15116
      13     H     0.42499  0.42499  0.00000  0.15003
      14     C     3.23916  3.23916  0.00000 -0.47832
      15     H     0.42227  0.42227  0.00000  0.15545
      16     H     0.42314  0.42314  0.00000  0.15372
      17     H     0.42194  0.42194  0.00000  0.15611
      18     H     0.41938  0.41938  0.00000  0.16124
      19     H     0.42229  0.42229  0.00000  0.15543

   Total alpha = 25.00000, Total beta = 25.00000, Total charge = -0.00000
