  ==> Input File <==

--------------------------------------------------------------------------
set {
	reference rhf
	basis 6-31G*
}

set_num_threads( 1 )
memory 2 gb

molecule MOL {
0 1

O	 2.862325	 1.357334	 0.000267
C	 2.843464	 0.164689	 -0.000222
C	 1.546494	 -0.624492	 -0.000609
C	 4.124123	 -0.644674	 -0.000428
C	 0.291004	 0.242674	 0.000989
H	 1.557904	 -1.283758	 -0.867573
H	 1.558622	 -1.285963	 0.864672
C	 -0.994322	 -0.586602	 0.000262
H	 0.309117	 0.896430	 -0.865270
H	 0.309661	 0.894078	 0.869017
C	 -2.259874	 0.272531	 0.000494
H	 -1.004862	 -1.240012	 -0.870939
H	 -1.005220	 -1.241071	 0.870675
C	 -3.104032	 0.106534	 1.265348
H	 -2.864076	 0.022685	 -0.869872
H	 -1.983601	 1.319434	 -0.112044
C	 -4.366571	 0.967710	 1.258050
H	 -3.381807	 -0.939369	 1.378273
H	 -2.501590	 0.357455	 2.135958
H	 -5.007169	 0.717003	 0.417259
H	 -4.943928	 0.827852	 2.166785
H	 -4.120702	 2.023092	 1.181485
H	 4.165367	 -1.288615	 -0.874074
H	 4.976217	 0.020734	 -0.001915
H	 4.166763	 -1.286207	 0.874930

	symmetry c1
}
set optking {
	frozen_dihedral = ("
		9 5 8 12,
		15 11 14 18,
		1 2 3 6,
		9 5 3 6
	")
}

ee = energy('scf')
oeprop('DIPOLE', 'QUADRUPOLE', 'MULLIKEN_CHARGES')
f=open( 'psi4out.xyz', 'w' )
f.write( "25  " )
f.write( str(ee) + "\n" )
f.write( MOL.save_string_xyz() )
f.close()
--------------------------------------------------------------------------

    Molecular point group: c1

    Geometry (in Angstrom), charge = 0, multiplicity = 1:

       Center              X                  Y                   Z               Mass
    ------------   -----------------  -----------------  -----------------  -----------------
           O          2.761635683120     1.209090146117    -0.285695299542    15.994914619560
           C          2.742774683120     0.016445146117    -0.286184299542    12.000000000000
           C          1.445804683120    -0.772735853883    -0.286571299542    12.000000000000
           C          4.023433683120    -0.792917853883    -0.286390299542    12.000000000000
           C          0.190314683120     0.094430146117    -0.284973299542    12.000000000000
           H          1.457214683120    -1.432001853883    -1.153535299542     1.007825032070
           H          1.457932683120    -1.434206853883     0.578709700458     1.007825032070
           C         -1.095011316880    -0.734845853883    -0.285700299542    12.000000000000
           H          0.208427683120     0.748186146117    -1.151232299542     1.007825032070
           H          0.208971683120     0.745834146117     0.583054700458     1.007825032070
           C         -2.360563316880     0.124287146117    -0.285468299542    12.000000000000
           H         -1.105551316880    -1.388255853883    -1.156901299542     1.007825032070
           H         -1.105909316880    -1.389314853883     0.584712700458     1.007825032070
           C         -3.204721316880    -0.041709853883     0.979385700458    12.000000000000
           H         -2.964765316880    -0.125558853883    -1.155834299542     1.007825032070
           H         -2.084290316880     1.171190146117    -0.398006299542     1.007825032070
           C         -4.467260316880     0.819466146117     0.972087700458    12.000000000000
           H         -3.482496316880    -1.087612853883     1.092310700458     1.007825032070
           H         -2.602279316880     0.209211146117     1.849995700458     1.007825032070
           H         -5.107858316880     0.568759146117     0.131296700458     1.007825032070
           H         -5.044617316880     0.679608146117     1.880822700458     1.007825032070
           H         -4.221391316880     1.874848146117     0.895522700458     1.007825032070
           H          4.064677683120    -1.436858853883    -1.160036299542     1.007825032070
           H          4.875527683120    -0.127509853883    -0.287877299542     1.007825032070
           H          4.066073683120    -1.434450853883     0.588967700458     1.007825032070

  Charge       = 0
  Multiplicity = 1
  Basis Set: 6-31G*
  Basis Set:

    Orbital Energies (a.u.)
    -----------------------

    Doubly Occupied:

       1A    -20.550407     2A    -11.326232     3A    -11.231421
       4A    -11.228261     5A    -11.217188     6A    -11.215365
       7A    -11.215145     8A    -11.211831     9A    -11.207474
      10A     -1.395729    11A     -1.093843    12A     -1.055667
      13A     -1.014000    14A     -0.969006    15A     -0.889820
      16A     -0.818471    17A     -0.788216    18A     -0.730285
      19A     -0.653951    20A     -0.652036    21A     -0.635116
      22A     -0.619883    23A     -0.602267    24A     -0.581580
      25A     -0.565411    26A     -0.564554    27A     -0.540749
      28A     -0.528027    29A     -0.507553    30A     -0.489852
      31A     -0.485761    32A     -0.480589    33A     -0.465326
      34A     -0.453605    35A     -0.447915    36A     -0.399355

  @DF-RHF Final Energy:  -387.13096412288201

   => Energetics <=

    Nuclear Repulsion Energy =            440.9973255796467129
    One-Electron Energy =               -1398.5929469274155963
    Two-Electron Energy =                 570.4646572248880148
    DFT Exchange-Correlation Energy =       0.0000000000000000
    Empirical Dispersion Energy =           0.0000000000000000
    PCM Polarization Energy =               0.0000000000000000
    EFP Energy =                            0.0000000000000000
    Total Energy =                       -387.1309641228808687

  Mulliken Charges: (a.u.)
   Center  Symbol    Alpha    Beta     Spin     Total
       1     O     4.26131  4.26131  0.00000 -0.52262
       2     C     2.73570  2.73570  0.00000  0.52859
       3     C     3.21126  3.21126  0.00000 -0.42253
       4     C     3.28667  3.28667  0.00000 -0.57334
       5     C     3.15070  3.15070  0.00000 -0.30140
       6     H     0.40998  0.40998  0.00000  0.18003
       7     H     0.40995  0.40995  0.00000  0.18009
       8     C     3.15658  3.15658  0.00000 -0.31317
       9     H     0.41145  0.41145  0.00000  0.17710
      10     H     0.41212  0.41212  0.00000  0.17577
      11     C     3.15406  3.15406  0.00000 -0.30811
      12     H     0.42246  0.42246  0.00000  0.15509
      13     H     0.42212  0.42212  0.00000  0.15576
      14     C     3.15378  3.15378  0.00000 -0.30755
      15     H     0.42142  0.42142  0.00000  0.15716
      16     H     0.41819  0.41819  0.00000  0.16362
      17     C     3.24003  3.24003  0.00000 -0.48007
      18     H     0.42313  0.42313  0.00000  0.15374
      19     H     0.42281  0.42281  0.00000  0.15438
      20     H     0.42189  0.42189  0.00000  0.15622
      21     H     0.41964  0.41964  0.00000  0.16071
      22     H     0.42076  0.42076  0.00000  0.15847
      23     H     0.40875  0.40875  0.00000  0.18251
      24     H     0.39651  0.39651  0.00000  0.20698
      25     H     0.40871  0.40871  0.00000  0.18257

   Total alpha = 36.00000, Total beta = 36.00000, Total charge = -0.00000
