  ==> Input File <==

--------------------------------------------------------------------------
set {
	reference rhf
	basis 6-31G*
}

set_num_threads( 4 )
memory 2 gb

molecule MOL {
0 1

O	 -0.815279	 -1.244440	 0.500078
C	 0.369183	 -1.217115	 0.596843
C	 1.245376	 -0.013843	 0.345420
O	 1.093150	 -2.272508	 0.948477
C	 0.455112	 1.231400	 -0.050772
H	 1.832444	 0.145661	 1.243807
H	 1.956844	 -0.288514	 -0.429220
C	 -0.998893	 1.219485	 0.433193
H	 0.482531	 1.345121	 -1.130325
H	 0.957290	 2.103070	 0.354729
C	 -1.883438	 0.145884	 -0.207175
H	 -1.431207	 2.195402	 0.224832
H	 -1.019646	 1.105716	 1.516076
C	 -3.347647	 0.245583	 0.225435
H	 -1.822183	 0.231698	 -1.291012
H	 -1.510341	 -0.844814	 0.042401
C	 -4.239992	 -0.825570	 -0.404234
H	 -3.732888	 1.230466	 -0.033079
H	 -3.408585	 0.170602	 1.310038
C	 -5.701275	 -0.716658	 0.029921
H	 -4.179496	 -0.752714	 -1.488058
H	 -3.859041	 -1.810759	 -0.143352
H	 -6.308102	 -1.488908	 -0.432678
H	 -6.122175	 0.245478	 -0.248167
H	 -5.799072	 -0.820114	 1.106957
C	 0.391617	 -3.473697	 1.212832
H	 -0.301853	 -3.336867	 2.030072
H	 1.142429	 -4.201872	 1.477502
H	 -0.151539	 -3.797424	 0.336637

	symmetry c1
}
set optking {
	frozen_dihedral = ("
		6 3 5 9
	")
}

ee = optimize('scf')
oeprop('DIPOLE', 'QUADRUPOLE', 'MULLIKEN_CHARGES')
f=open( 'psi4out.xyz', 'w' )
f.write( "29  " )
f.write( str(ee) + "\n" )
f.write( MOL.save_string_xyz() )
f.close()
--------------------------------------------------------------------------

    Molecular point group: c1
  Charge       = 0
  Multiplicity = 1
  Basis Set: 6-31G*
  Basis Set:
  @DF-RHF Final Energy:  -500.74075355535365
    Total Energy =                       -500.7407535553544449
    Molecular point group: c1
  Basis Set: 6-31G*
  Basis Set:
  Basis Set: 6-31G*
  Basis Set:
  @DF-RHF Final Energy:  -500.90427259942680
    Total Energy =                       -500.9042725994271450
  Basis Set: 6-31G*
  Basis Set:
  Basis Set: 6-31G*
  Basis Set:
  @DF-RHF Final Energy:  -500.95519463010965
    Total Energy =                       -500.9551946301099861
  Basis Set: 6-31G*
  Basis Set:
  Basis Set: 6-31G*
  Basis Set:
  @DF-RHF Final Energy:  -500.99805432677874
    Total Energy =                       -500.9980543267784014
  Basis Set: 6-31G*
  Basis Set:
  @DF-RHF Final Energy:  -501.01544082799887
    Total Energy =                       -501.0154408279992140
  @DF-RHF Final Energy:  -501.02321390904922
    Total Energy =                       -501.0232139090487635
  @DF-RHF Final Energy:  -501.02781326648562
    Total Energy =                       -501.0278132664851682
  @DF-RHF Final Energy:  -501.03018124825962
    Total Energy =                       -501.0301812482600781
  @DF-RHF Final Energy:  -501.03154504620375
    Total Energy =                       -501.0315450462046556
  @DF-RHF Final Energy:  -501.03230175476529
    Total Energy =                       -501.0323017547648305
  @DF-RHF Final Energy:  -501.03297630849863
    Total Energy =                       -501.0329763085003378
  @DF-RHF Final Energy:  -501.03319321667925
    Total Energy =                       -501.0331932166795923
  @DF-RHF Final Energy:  -501.03329883975869
    Total Energy =                       -501.0332988397592544
  @DF-RHF Final Energy:  -501.03337925484266
    Total Energy =                       -501.0333792548428846
  @DF-RHF Final Energy:  -501.03342936018373
    Total Energy =                       -501.0334293601827085
  @DF-RHF Final Energy:  -501.03347250848196
    Total Energy =                       -501.0334725084827596
  @DF-RHF Final Energy:  -501.03358273369486
    Total Energy =                       -501.0335827336948569
  @DF-RHF Final Energy:  -501.03362401268566
    Total Energy =                       -501.0336240126853227
  @DF-RHF Final Energy:  -501.03365608867625
    Total Energy =                       -501.0336560886767074
  @DF-RHF Final Energy:  -501.03368334158608
    Total Energy =                       -501.0336833415856290
  @DF-RHF Final Energy:  -501.03384435764644
    Total Energy =                       -501.0338443576465579
  @DF-RHF Final Energy:  -501.03384761343909
    Total Energy =                       -501.0338476134394341
  @DF-RHF Final Energy:  -501.03384770855484
    Total Energy =                       -501.0338477085554132
  @DF-RHF Final Energy:  -501.03384758522236
    Total Energy =                       -501.0338475852222473
  @DF-RHF Final Energy:  -501.03384770434150
    Total Energy =                       -501.0338477043411558
  @DF-RHF Final Energy:  -501.03382458965382
    Total Energy =                       -501.0338245896547278
  @DF-RHF Final Energy:  -501.03384763491738
    Total Energy =                       -501.0338476349177199
  @DF-RHF Final Energy:  -501.03384738526302
    Total Energy =                       -501.0338473852625611
  @DF-RHF Final Energy:  -501.03384681166983
    Total Energy =                       -501.0338468116692638
  @DF-RHF Final Energy:  -501.03384759928952
    Total Energy =                       -501.0338475992904250
  @DF-RHF Final Energy:  -501.03384722201270
    Total Energy =                       -501.0338472220128097
  @DF-RHF Final Energy:  -501.03383196507411
    Total Energy =                       -501.0338319650743415
  @DF-RHF Final Energy:  -501.03384767621560
    Total Energy =                       -501.0338476762158280
  @DF-RHF Final Energy:  -501.03384763755730
    Total Energy =                       -501.0338476375573009
  @DF-RHF Final Energy:  -501.03384747412997
    Total Energy =                       -501.0338474741299706
  @DF-RHF Final Energy:  -501.03384727161188
    Total Energy =                       -501.0338472716118758
  Basis Set: 6-31G*
  Basis Set:
  @DF-RHF Final Energy:  -501.03384309998432
    Total Energy =                       -501.0338430999847787
  Basis Set: 6-31G*
  Basis Set:
  Basis Set: 6-31G*
  Basis Set:
  @DF-RHF Final Energy:  -501.03384728779417
    Total Energy =                       -501.0338472877933782
  Basis Set: 6-31G*
  Basis Set:
  Basis Set: 6-31G*
  Basis Set:
  @DF-RHF Final Energy:  -501.03384693390080
    Total Energy =                       -501.0338469339010317
  Basis Set: 6-31G*
  Basis Set:
  Charge       = 0
  Multiplicity = 1
  Basis Set: 6-31G*
  Basis Set:

    Orbital Energies (a.u.)
    -----------------------

    Doubly Occupied:

       1A    -20.606189     2A    -20.545693     3A    -11.374819
       4A    -11.282076     5A    -11.236770     6A    -11.224160
       7A    -11.211868     8A    -11.206599     9A    -11.203558
      10A    -11.202024    11A    -11.199720    12A     -1.471555
      13A     -1.363881    14A     -1.088513    15A     -1.060767
      16A     -1.015337    17A     -0.975171    18A     -0.924372
      19A     -0.856371    20A     -0.801302    21A     -0.781018
      22A     -0.765147    23A     -0.695939    24A     -0.682590
      25A     -0.671779    26A     -0.643915    27A     -0.618189
      28A     -0.611053    29A     -0.584557    30A     -0.575928
      31A     -0.560505    32A     -0.545368    33A     -0.535295
      34A     -0.525553    35A     -0.514770    36A     -0.500638
      37A     -0.497832    38A     -0.470271    39A     -0.461991
      40A     -0.457499    41A     -0.452534    42A     -0.450222
      43A     -0.440657    44A     -0.423676

  @DF-RHF Final Energy:  -501.03384729583252

   => Energetics <=

    Nuclear Repulsion Energy =            632.7763569526149467
    One-Electron Energy =               -1936.9850668044177837
    Two-Electron Energy =                 803.1748625559700940
    DFT Exchange-Correlation Energy =       0.0000000000000000
    Empirical Dispersion Energy =           0.0000000000000000
    PCM Polarization Energy =               0.0000000000000000
    EFP Energy =                            0.0000000000000000
    Total Energy =                       -501.0338472958326292
    Molecular point group: c1
  Basis Set: 6-31G*
  Basis Set:

  -Total Gradient:
     Atom            X                  Y                   Z
    ------   -----------------  -----------------  -----------------
       1       -0.000080215806     0.000280727631     0.000063222075
       2        0.000503152093    -0.000350636918    -0.000141194531
       3       -0.005461004968    -0.001778623592     0.006245711068
       4       -0.000038995299     0.000007384646     0.000070373486
       5       -0.005440805922    -0.006401433659    -0.000391419129
       6        0.004853145253     0.002227474504    -0.004845608595
       7        0.000227096749     0.000476637899     0.000107249771
       8        0.000101170920     0.000220645770     0.000215660349
       9        0.005074266671     0.005431683863    -0.000595555721
      10        0.000370831549    -0.000038470845    -0.000605382883
      11       -0.000181517987     0.000017778790    -0.000021809842
      12       -0.000000268188     0.000002852215    -0.000033368610
      13       -0.000034412044    -0.000000956984     0.000010185604
      14        0.000020248383     0.000028309082     0.000042842392
      15        0.000023354488    -0.000022535336    -0.000022624932
      16        0.000098211452    -0.000088346193    -0.000046863191
      17        0.000012716370     0.000012687146    -0.000041897403
      18       -0.000017457367     0.000005346974    -0.000026758455
      19        0.000020967124    -0.000027160078    -0.000003679177
      20       -0.000044928330     0.000034501954     0.000018246007
      21        0.000002102204     0.000017189631     0.000003321162
      22        0.000013643122    -0.000015947464     0.000019981024
      23        0.000002373132    -0.000013862910     0.000001434245
      24        0.000027469853    -0.000004619035     0.000002072996
      25       -0.000017206053    -0.000009590908    -0.000002331907
      26       -0.000095530240    -0.000059706617     0.000007516324
      27        0.000026985302     0.000004565496    -0.000029729515
      28        0.000040433041     0.000036794544     0.000007615387
      29       -0.000005825514     0.000007310399    -0.000007207997

    Molecular point group: c1

    Geometry (in Angstrom), charge = 0, multiplicity = 1:

    O            1.009754248285    -1.368570214242    -0.214016605370
    C            1.958368040346    -0.825274444691     0.255229151332
    C            2.446383998521     0.553758110183    -0.106185042236
    O            2.758195468554    -1.405871444195     1.138941282942
    C            1.400988916923     1.581514576714    -0.583121169880
    H            3.056044829165     0.952236266504     0.694925881298
    H            3.158538195064     0.390426403017    -0.914421001352
    C            0.011930296576     1.563994475359     0.089219827893
    H            1.316783674794     1.541586280209    -1.664121618572
    H            1.860936701077     2.549461347651    -0.402460259483
    C           -1.110067866889     1.043711480873    -0.813316099478
    H           -0.237759436400     2.575019990702     0.400781010600
    H            0.043438446304     0.973545602889     1.000719664598
    C           -2.469379405556     1.011402945283    -0.113671137253
    H           -1.175481425726     1.682300736898    -1.693657606004
    H           -0.855423190837     0.050244809851    -1.163552810045
    C           -3.601689832957     0.521629440095    -1.018292595041
    H           -2.713155665246     2.006110712747     0.258094580820
    H           -2.406715394142     0.365684683243     0.760753137391
    C           -4.957265905079     0.483757453361    -0.313391711407
    H           -3.668463881315     1.166141885782    -1.892458236172
    H           -3.359640654871    -0.471746613014    -1.389185653005
    H           -5.739311451209     0.134002401489    -0.980587965427
    H           -5.242477448390     1.470233679510     0.041817537203
    H           -4.933718671868    -0.181343407670     0.545367780395
    C            2.451907356155    -2.739669688977     1.504034150105
    H            1.471099029229    -2.794164062988     1.953764152988
    H            3.207389914423    -3.030575416098     2.217025133592
    H            2.483249451403    -3.386989007140     0.639464586805

  Mulliken Charges: (a.u.)
   Center  Symbol    Alpha    Beta     Spin     Total
       1     O     4.28808  4.28808  0.00000 -0.57615
       2     C     2.60468  2.60468  0.00000  0.79064
       3     C     3.21386  3.21386  0.00000 -0.42772
       4     O     4.30512  4.30512  0.00000 -0.61024
       5     C     3.15444  3.15444  0.00000 -0.30888
       6     H     0.39826  0.39826  0.00000  0.20349
       7     H     0.39844  0.39844  0.00000  0.20312
       8     C     3.15688  3.15688  0.00000 -0.31377
       9     H     0.41244  0.41244  0.00000  0.17513
      10     H     0.41685  0.41685  0.00000  0.16631
      11     C     3.15580  3.15580  0.00000 -0.31159
      12     H     0.42167  0.42167  0.00000  0.15667
      13     H     0.42108  0.42108  0.00000  0.15784
      14     C     3.15190  3.15190  0.00000 -0.30381
      15     H     0.42888  0.42888  0.00000  0.14224
      16     H     0.40021  0.40021  0.00000  0.19958
      17     C     3.15121  3.15121  0.00000 -0.30242
      18     H     0.42766  0.42766  0.00000  0.14468
      19     H     0.42349  0.42349  0.00000  0.15303
      20     C     3.23892  3.23892  0.00000 -0.47785
      21     H     0.42473  0.42473  0.00000  0.15055
      22     H     0.42090  0.42090  0.00000  0.15820
      23     H     0.42063  0.42063  0.00000  0.15875
      24     H     0.42321  0.42321  0.00000  0.15359
      25     H     0.42228  0.42228  0.00000  0.15544
      26     C     3.09276  3.09276  0.00000 -0.18552
      27     H     0.40856  0.40856  0.00000  0.18289
      28     H     0.40807  0.40807  0.00000  0.18385
      29     H     0.40901  0.40901  0.00000  0.18198

   Total alpha = 44.00000, Total beta = 44.00000, Total charge = -0.00000
