                              Psi4 1.0.54 Driver

  ==> Input File <==

--------------------------------------------------------------------------
set {
	reference rhf
	basis cc-pvtz
}

set_num_threads( 4 )
memory 2 gb

molecule MOL {
0 1

O	 1.216069	 1.304886	 0.000821
C	 1.121787	 0.124983	 0.000110
C	 -0.170912	 -0.649867	 -0.000147
O	 2.167739	 -0.685178	 -0.000678
C	 -1.413045	 0.229353	 0.001137
H	 -0.152877	 -1.303435	 -0.866175
H	 -0.152278	 -1.305116	 0.864586
C	 -1.206712	 1.528015	 -0.772952
H	 -1.692896	 0.452372	 1.024605
H	 -2.243544	 -0.323360	 -0.423509
C	 -2.444846	 2.417905	 -0.776170
H	 -0.371250	 2.075786	 -0.344946
H	 -0.926358	 1.298161	 -1.797552
H	 -2.730262	 2.693636	 0.233332
H	 -2.269556	 3.331584	 -1.332175
H	 -3.289355	 1.910455	 -1.229910
C	 3.449556	 -0.089977	 -0.000570
H	 3.585694	 0.522473	 -0.879546
H	 4.155805	 -0.904274	 -0.001389
H	 3.586173	 0.521118	 0.879272

	symmetry c1
}
set optking {
	frozen_dihedral = ("
		9 5 3 6
	")
}

ee,wfn = optimize('scf', return_wfn=True)
oeprop( wfn, 'DIPOLE', 'QUADRUPOLE', 'MULLIKEN_CHARGES')
f=open( 'psi4out.xyz', 'w' )
f.write( "20  " )
f.write( str(ee) + "\n" )
f.write( MOL.save_string_xyz() )
f.close()
--------------------------------------------------------------------------

    Molecular point group: c1
  Charge       = 0
  Multiplicity = 1
  Basis Set: CC-PVTZ
  Basis Set:
  @DF-RHF Final Energy:  -384.06011512620876
    Total Energy =                       -384.0601151262083022
    Molecular point group: c1
  Basis Set: CC-PVTZ
  Basis Set:
  Basis Set: CC-PVTZ
  Basis Set:
  @DF-RHF Final Energy:  -384.07298114575633
    Total Energy =                       -384.0729811457562164
  Basis Set: CC-PVTZ
  Basis Set:
  Basis Set: CC-PVTZ
  Basis Set:
  @DF-RHF Final Energy:  -384.07566965303351
    Total Energy =                       -384.0756696530334011
  Basis Set: CC-PVTZ
  Basis Set:
  Basis Set: CC-PVTZ
  Basis Set:
  @DF-RHF Final Energy:  -384.07130539073751
    Total Energy =                       -384.0713053907377343
  Basis Set: CC-PVTZ
  Basis Set:
  @DF-RHF Final Energy:  -384.07695220611356
    Total Energy =                       -384.0769522061136740
  @DF-RHF Final Energy:  -384.07762270354254
    Total Energy =                       -384.0776227035427155
  @DF-RHF Final Energy:  -384.07799931048828
    Total Energy =                       -384.0779993104886216
  @DF-RHF Final Energy:  -384.07827241585858
    Total Energy =                       -384.0782724158585779
  Basis Set: CC-PVTZ
  Basis Set:
  @DF-RHF Final Energy:  -384.07836457527742
    Total Energy =                       -384.0783645752771918
  Basis Set: CC-PVTZ
  Basis Set:
  Basis Set: CC-PVTZ
  Basis Set:
  @DF-RHF Final Energy:  -384.07838018629786
    Total Energy =                       -384.0783801862978635
  Basis Set: CC-PVTZ
  Basis Set:
  Basis Set: CC-PVTZ
  Basis Set:
  @DF-RHF Final Energy:  -384.07838384474491
    Total Energy =                       -384.0783838447447351
  Basis Set: CC-PVTZ
  Basis Set:
  Charge       = 0
  Multiplicity = 1
  Basis Set: CC-PVTZ
  Basis Set:

    Orbital Energies (a.u.)
    -----------------------

    Doubly Occupied:

       1A    -20.598457     2A    -20.532231     3A    -11.365556
       4A    -11.278949     5A    -11.233963     6A    -11.222060
       7A    -11.212194     8A    -11.206257     9A     -1.473188
      10A     -1.365588    11A     -1.086957    12A     -1.023200
      13A     -0.970266    14A     -0.886787    15A     -0.809449
      16A     -0.768801    17A     -0.698832    18A     -0.683270
      19A     -0.674872    20A     -0.638601    21A     -0.600677
      22A     -0.590910    23A     -0.583640    24A     -0.541205
      25A     -0.537444    26A     -0.519916    27A     -0.507981
      28A     -0.480903    29A     -0.472106    30A     -0.464281
      31A     -0.458568    32A     -0.435648

  @DF-RHF Final Energy:  -384.07838451679902

   => Energetics <=

    Nuclear Repulsion Energy =            390.5503057354097791
    One-Electron Energy =               -1297.4118713716177353
    Two-Electron Energy =                 522.7831811194092779
    DFT Exchange-Correlation Energy =       0.0000000000000000
    Empirical Dispersion Energy =           0.0000000000000000
    PCM Polarization Energy =               0.0000000000000000
    EFP Energy =                            0.0000000000000000
    Total Energy =                       -384.0783845167986783
    Molecular point group: c1
  Basis Set: CC-PVTZ
  Basis Set:

  -Total Gradient:
     Atom            X                  Y                   Z
    ------   -----------------  -----------------  -----------------
       1       -0.000070679199    -0.000012742317     0.000010312590
       2       -0.000039985929     0.000047625337    -0.000013701861
       3        0.002225992016     0.004509094185    -0.004855690922
       4        0.000010754998    -0.000034987424     0.000009281011
       5        0.003539740195     0.005612556971    -0.000083339716
       6       -0.002370518907    -0.004621909493     0.004006645913
       7       -0.000001133557     0.000000229734     0.000002280622
       8       -0.000006040337    -0.000025531602     0.000030073111
       9       -0.003325039855    -0.005458609181     0.000892237117
      10        0.000008409807    -0.000017519902     0.000001313828
      11        0.000010085464     0.000010381613    -0.000003938646
      12        0.000032382805    -0.000007515266     0.000009128727
      13       -0.000002772863    -0.000005965969     0.000001831758
      14        0.000005397137    -0.000004474597    -0.000010503569
      15       -0.000003094853    -0.000004887094     0.000003684953
      16        0.000018249492     0.000002629845     0.000002492492
      17       -0.000113569662    -0.000019693505    -0.000011145784
      18        0.000048127527     0.000018029893    -0.000000114690
      19        0.000003101368    -0.000002560581     0.000000036496
      20        0.000030594357     0.000015849357     0.000009116571

  **** Optimization is complete! (in 12 steps) ****
    Final optimized geometry and variables:
    Molecular point group: c1

    Geometry (in Angstrom), charge = 0, multiplicity = 1:

    O            1.109263418553     0.616015167909     0.861011506680
    C            0.887812843658    -0.368783213723     0.240912920700
    C           -0.391119492521    -1.160051643707     0.317564627116
    O            1.771933492263    -0.929486900863    -0.565342846746
    C           -1.677025660185    -0.344216436053     0.499602891974
    H           -0.470347646001    -1.843806314790    -0.515737943467
    H           -0.263937633878    -1.800183600437     1.187544751902
    C           -1.819341620531     0.887439120448    -0.389391633366
    H           -1.807845370722    -0.092139467332     1.545555295189
    H           -2.497000307257    -1.022557439770     0.277692948468
    C           -3.188052533989     1.545922850486    -0.251900742958
    H           -1.048038283547     1.605559144341    -0.145722268050
    H           -1.663240134522     0.598055255876    -1.426338965162
    H           -3.364718771456     1.865705113962     0.769565287675
    H           -3.266210260569     2.419349322047    -0.888682488333
    H           -3.985127664798     0.863009736555    -0.527011035215
    C            3.042368865329    -0.316629590972    -0.659745864058
    H            2.951461359438     0.693880263888    -1.029261534500
    H            3.610982000660    -0.916533855758    -1.351559856044
    H            3.528570976099    -0.296783225931     0.304336521939

  Mulliken Charges: (a.u.)
   Center  Symbol    Alpha    Beta     Spin     Total
       1     O     4.20472  4.20472  0.00000 -0.40945
       2     C     2.79748  2.79748  0.00000  0.40504
       3     C     3.10843  3.10843  0.00000 -0.21686
       4     O     4.14621  4.14621  0.00000 -0.29241
       5     C     3.08305  3.08305  0.00000 -0.16609
       6     H     0.43507  0.43507  0.00000  0.12985
       7     H     0.43988  0.43988  0.00000  0.12024
       8     C     3.09436  3.09436  0.00000 -0.18873
       9     H     0.44753  0.44753  0.00000  0.10494
      10     H     0.45164  0.45164  0.00000  0.09672
      11     C     3.15130  3.15130  0.00000 -0.30260
      12     H     0.43821  0.43821  0.00000  0.12357
      13     H     0.45531  0.45531  0.00000  0.08939
      14     H     0.45357  0.45357  0.00000  0.09285
      15     H     0.44768  0.44768  0.00000  0.10464
      16     H     0.45670  0.45670  0.00000  0.08659
      17     C     3.03540  3.03540  0.00000 -0.07079
      18     H     0.45393  0.45393  0.00000  0.09215
      19     H     0.44513  0.44513  0.00000  0.10974
      20     H     0.45440  0.45440  0.00000  0.09121

   Total alpha = 32.00000, Total beta = 32.00000, Total charge =  0.00000

*** Psi4 exiting successfully. Buy a developer a beer!
