  ==> Input File <==

--------------------------------------------------------------------------
set {
	reference rhf
	basis cc-pvtz
}

set_num_threads( 4 )
memory 2 gb

molecule MOL {
0 1

H	 1.175000	 -1.064000	 0.775000
O	 1.345000	 -0.633000	 -0.052000
C	 0.736000	 0.625000	 -0.044000
C	 -0.767000	 0.581000	 0.048000
H	 1.030000	 1.108000	 -0.969000
H	 1.127000	 1.239000	 0.767000
C	 -1.504000	 -0.508000	 -0.036000
H	 -1.242000	 1.539000	 0.193000
H	 -1.066000	 -1.476000	 -0.198000
H	 -2.575000	 -0.466000	 0.040000

	symmetry c1
}
ee = optimize('scf')
oeprop('DIPOLE', 'QUADRUPOLE', 'MULLIKEN_CHARGES')
f=open( 'psi4out.xyz', 'w' )
f.write( "10  " )
f.write( str(ee) + "\n" )
f.write( MOL.save_string_xyz() )
f.close()
--------------------------------------------------------------------------

    Molecular point group: c1
  Charge       = 0
  Multiplicity = 1
  Basis Set: CC-PVTZ
  Basis Set:
  @DF-RHF Final Energy:  -191.99870523428271
    Total Energy =                       -191.9987052342828520
    Molecular point group: c1
  Basis Set: CC-PVTZ
  Basis Set:
  Basis Set: CC-PVTZ
  Basis Set:
  @DF-RHF Final Energy:  -191.99884743036722
    Total Energy =                       -191.9988474303672490
  Basis Set: CC-PVTZ
  Basis Set:
  Basis Set: CC-PVTZ
  Basis Set:
  @DF-RHF Final Energy:  -191.99885494073453
    Total Energy =                       -191.9988549407345033
  Basis Set: CC-PVTZ
  Basis Set:
  Charge       = 0
  Multiplicity = 1
  Basis Set: CC-PVTZ
  Basis Set:

    Orbital Energies (a.u.)
    -----------------------

    Doubly Occupied:

       1A    -20.554501     2A    -11.278219     3A    -11.230479
       4A    -11.216714     5A     -1.374929     6A     -1.062302
       7A     -0.932356     8A     -0.771838     9A     -0.692414
      10A     -0.665488    11A     -0.621070    12A     -0.574235
      13A     -0.540664    14A     -0.496898    15A     -0.452500
      16A     -0.369132

  @DF-RHF Final Energy:  -191.99885577300842

   => Energetics <=

    Nuclear Repulsion Energy =            119.5433480723401516
    One-Electron Energy =                -497.4169323502822522
    Two-Electron Energy =                 185.8747285049335574
    DFT Exchange-Correlation Energy =       0.0000000000000000
    Empirical Dispersion Energy =           0.0000000000000000
    PCM Polarization Energy =               0.0000000000000000
    EFP Energy =                            0.0000000000000000
    Total Energy =                       -191.9988557730085290
    Molecular point group: c1
  Basis Set: CC-PVTZ
  Basis Set:

  -Total Gradient:
     Atom            X                  Y                   Z
    ------   -----------------  -----------------  -----------------
       1       -0.000007361015    -0.000032384634     0.000008182643
       2       -0.000043850594     0.000043300081     0.000006997353
       3        0.000009999403     0.000047869911    -0.000001545540
       4        0.000097579428     0.000014968207     0.000007508548
       5       -0.000003760767     0.000007976549    -0.000015076891
       6       -0.000001540648    -0.000008269118    -0.000002969983
       7       -0.000065798328    -0.000070830046    -0.000049360219
       8        0.000015347581     0.000017744117     0.000010859269
       9        0.000006774885    -0.000025083532     0.000028166733
      10       -0.000007389940     0.000004708467     0.000007238089

  **** Optimization is complete! (in 4 steps) ****
    Final optimized geometry and variables:
    Molecular point group: c1

    Geometry (in Angstrom), charge = 0, multiplicity = 1:

    H            1.166963185157    -1.062385734148     0.758429605699
    O            1.324747676675    -0.612467481979    -0.052205205447
    C            0.706473682306     0.636792929282    -0.025500396032
    C           -0.793473668322     0.591215521722     0.050087268812
    H            1.002370695402     1.144954789207    -0.935730543646
    H            1.081872774833     1.237706651605     0.800742719947
    C           -1.534243212083    -0.493009037932    -0.013339957009
    H           -1.266611167683     1.552627868136     0.164437491458
    H           -1.101195363626    -1.466332343449    -0.144045117705
    H           -2.604242084233    -0.437779929710     0.050785239773

  Mulliken Charges: (a.u.)
   Center  Symbol    Alpha    Beta     Spin     Total
       1     H     0.39105  0.39105  0.00000  0.21790
       2     O     4.19933  4.19933  0.00000 -0.39867
       3     C     2.95035  2.95035  0.00000  0.09930
       4     C     3.08489  3.08489  0.00000 -0.16977
       5     H     0.45343  0.45343  0.00000  0.09315
       6     H     0.46843  0.46843  0.00000  0.06315
       7     C     3.17677  3.17677  0.00000 -0.35355
       8     H     0.42330  0.42330  0.00000  0.15339
       9     H     0.42438  0.42438  0.00000  0.15125
      10     H     0.42808  0.42808  0.00000  0.14385

   Total alpha = 16.00000, Total beta = 16.00000, Total charge = -0.00000
