                              Psi4 1.0.54 Driver

  ==> Input File <==

--------------------------------------------------------------------------
set {
	reference rhf
	basis cc-pvtz
}

set_num_threads( 4 )
memory 2 gb

molecule MOL {
0 1

H	 3.125443	 -1.172749	 1.027370
O	 2.824271	 -1.154299	 0.131461
C	 2.076458	 -0.067370	 -0.038225
C	 0.626018	 -0.337582	 0.258241
O	 2.538288	 0.965419	 -0.381593
C	 -0.267326	 0.883135	 0.076490
H	 0.325620	 -1.161483	 -0.378003
H	 0.574537	 -0.713685	 1.275261
C	 -1.726822	 0.642622	 0.463839
H	 -0.210803	 1.217591	 -0.953497
H	 0.129920	 1.693110	 0.675679
C	 -2.480891	 -0.340606	 -0.429852
H	 -2.243098	 1.597649	 0.438609
H	 -1.776542	 0.301208	 1.495542
C	 -3.955933	 -0.460128	 -0.060472
H	 -2.393755	 -0.020485	 -1.464726
H	 -2.024244	 -1.323637	 -0.374360
H	 -4.467673	 -1.160944	 -0.709827
H	 -4.458917	 0.497287	 -0.144505
H	 -4.076458	 -0.806900	 0.960497

	symmetry c1
}
set optking {
	frozen_dihedral = ("
		1 2 3 5
	")
}

ee,wfn = optimize('scf', return_wfn=True)
oeprop( wfn, 'DIPOLE', 'QUADRUPOLE', 'MULLIKEN_CHARGES')
f=open( 'psi4out.xyz', 'w' )
f.write( "20  " )
f.write( str(ee) + "\n" )
f.write( MOL.save_string_xyz() )
f.close()
--------------------------------------------------------------------------

    Molecular point group: c1
  Charge       = 0
  Multiplicity = 1
  Basis Set: CC-PVTZ
  Basis Set:
  @DF-RHF Final Energy:  -384.07360891265000
    Total Energy =                       -384.0736089126502293
    Molecular point group: c1
  Basis Set: CC-PVTZ
  Basis Set:
  Basis Set: CC-PVTZ
  Basis Set:
  @DF-RHF Final Energy:  -384.07400213592541
    Total Energy =                       -384.0740021359250136
  Basis Set: CC-PVTZ
  Basis Set:
  Basis Set: CC-PVTZ
  Basis Set:
  @DF-RHF Final Energy:  -384.07500678116844
    Total Energy =                       -384.0750067811685540
  Basis Set: CC-PVTZ
  Basis Set:
  Basis Set: CC-PVTZ
  Basis Set:
  @DF-RHF Final Energy:  -384.07528942510692
    Total Energy =                       -384.0752894251069733
  Basis Set: CC-PVTZ
  Basis Set:
  Basis Set: CC-PVTZ
  Basis Set:
  @DF-RHF Final Energy:  -384.07529901012663
    Total Energy =                       -384.0752990101265709
  Basis Set: CC-PVTZ
  Basis Set:
  Basis Set: CC-PVTZ
  Basis Set:
  @DF-RHF Final Energy:  -384.07530730696237
    Total Energy =                       -384.0753073069619177
  Basis Set: CC-PVTZ
  Basis Set:
  Charge       = 0
  Multiplicity = 1
  Basis Set: CC-PVTZ
  Basis Set:

    Orbital Energies (a.u.)
    -----------------------

    Doubly Occupied:

       1A    -20.585413     2A    -20.550554     3A    -11.373961
       4A    -11.240914     5A    -11.222642     6A    -11.220389
       7A    -11.219581     8A    -11.211702     9A     -1.462954
      10A     -1.370078    11A     -1.098525    12A     -1.041878
      13A     -0.960237    14A     -0.866731    15A     -0.818093
      16A     -0.784164    17A     -0.714050    18A     -0.679483
      19A     -0.661649    20A     -0.639988    21A     -0.615972
      22A     -0.589447    23A     -0.563102    24A     -0.554491
      25A     -0.530411    26A     -0.512695    27A     -0.504905
      28A     -0.494149    29A     -0.471863    30A     -0.467734
      31A     -0.460181    32A     -0.445842

  @DF-RHF Final Energy:  -384.07530707486063

   => Energetics <=

    Nuclear Repulsion Energy =            375.7965903902815512
    One-Electron Energy =               -1267.8762380858788674
    Two-Electron Energy =                 508.0043406207366843
    DFT Exchange-Correlation Energy =       0.0000000000000000
    Empirical Dispersion Energy =           0.0000000000000000
    PCM Polarization Energy =               0.0000000000000000
    EFP Energy =                            0.0000000000000000
    Total Energy =                       -384.0753070748605751
    Molecular point group: c1
  Basis Set: CC-PVTZ
  Basis Set:

  -Total Gradient:
     Atom            X                  Y                   Z
    ------   -----------------  -----------------  -----------------
       1       -0.001823240555    -0.001158698002     0.000724958516
       2        0.002061538685     0.001259652361    -0.001770063715
       3        0.000246558411     0.000426707176     0.002900327737
       4       -0.000012893414     0.000004854767    -0.000008571663
       5       -0.000477707502    -0.000530797245    -0.001859882993
       6        0.000006306266     0.000004035002     0.000029340084
       7       -0.000027470476    -0.000018764099    -0.000005295186
       8       -0.000001405361     0.000003519779    -0.000002740207
       9       -0.000008448318     0.000022872564    -0.000009802052
      10       -0.000002376855     0.000008707856     0.000004678038
      11        0.000006897526    -0.000012085267     0.000004723645
      12        0.000010923156     0.000003185788    -0.000011048063
      13       -0.000001365611    -0.000001913695    -0.000011706689
      14       -0.000006614567     0.000013789567     0.000002441913
      15        0.000001859306    -0.000011158188     0.000010642419
      16       -0.000004880635     0.000003237266     0.000008148783
      17        0.000030696411    -0.000013954970    -0.000007961729
      18        0.000001563746    -0.000002540675     0.000002701304
      19        0.000003879329    -0.000001185705    -0.000002604414
      20       -0.000003819544     0.000000535716     0.000001714271

  **** Optimization is complete! (in 7 steps) ****
    Final optimized geometry and variables:
    Molecular point group: c1

    Geometry (in Angstrom), charge = 0, multiplicity = 1:

    H            3.253018502963    -1.269813172788     0.850756431962
    O            2.846399075986    -1.203186491356     0.002818873011
    C            2.077604676864    -0.085350784762    -0.104522215107
    C            0.632299526149    -0.328874631112     0.241414695386
    O            2.523092373085     0.929020998146    -0.492039629039
    C           -0.255854069139     0.899158330019     0.089322023009
    H            0.305117055678    -1.151834135782    -0.383428976673
    H            0.603659919846    -0.708414339431     1.259945555327
    C           -1.705813926471     0.672043500503     0.518853916357
    H           -0.225791797696     1.234060152479    -0.941517480718
    H            0.165985456368     1.705514342592     0.677198599408
    C           -2.494333700309    -0.303035570409    -0.353887181131
    H           -2.213781331239     1.631767384210     0.509811694878
    H           -1.729168556191     0.329766042468     1.551386409110
    C           -3.956558708904    -0.418237755233     0.064787614117
    H           -2.440699140772     0.022239710415    -1.389342728925
    H           -2.040373338224    -1.288295679914    -0.319377459767
    H           -4.492324806924    -1.115544979235    -0.568702801675
    H           -4.458661268036     0.541119942896    -0.000000665821
    H           -4.044156099510    -0.767201971428     1.088416826435

  Mulliken Charges: (a.u.)
   Center  Symbol    Alpha    Beta     Spin     Total
       1     H     0.38889  0.38889  0.00000  0.22223
       2     O     4.17533  4.17533  0.00000 -0.35067
       3     C     2.79758  2.79758  0.00000  0.40485
       4     C     3.11811  3.11811  0.00000 -0.23622
       5     O     4.16119  4.16119  0.00000 -0.32238
       6     C     3.09441  3.09441  0.00000 -0.18881
       7     H     0.43522  0.43522  0.00000  0.12956
       8     H     0.44749  0.44749  0.00000  0.10503
       9     C     3.09929  3.09929  0.00000 -0.19858
      10     H     0.44384  0.44384  0.00000  0.11232
      11     H     0.44031  0.44031  0.00000  0.11938
      12     C     3.08685  3.08685  0.00000 -0.17369
      13     H     0.44521  0.44521  0.00000  0.10958
      14     H     0.45468  0.45468  0.00000  0.09064
      15     C     3.14947  3.14947  0.00000 -0.29894
      16     H     0.45177  0.45177  0.00000  0.09646
      17     H     0.45432  0.45432  0.00000  0.09136
      18     H     0.44740  0.44740  0.00000  0.10520
      19     H     0.45346  0.45346  0.00000  0.09308
      20     H     0.45519  0.45519  0.00000  0.08963

   Total alpha = 32.00000, Total beta = 32.00000, Total charge = -0.00000

*** Psi4 exiting successfully. Buy a developer a beer!
