  ==> Input File <==

--------------------------------------------------------------------------
set {
	reference rhf
	basis 6-31G*
}

set_num_threads( 1 )
memory 2 gb

molecule MOL {
0 1

H	 -3.301617	 0.570527	 0.000000
C	 -2.250981	 0.344174	 0.000000
C	 -1.813665	 -0.976045	 0.000000
C	 -1.315303	 1.358057	 0.000000
H	 -2.528860	 -1.779366	 0.000000
C	 -0.467298	 -1.270142	 0.000000
H	 -1.635074	 2.385107	 0.000000
C	 0.047081	 1.078114	 0.000000
H	 -0.115948	 -2.285222	 0.000000
C	 0.472063	 -0.241155	 0.000000
H	 0.749976	 1.888426	 0.000000
O	 1.765256	 -0.628444	 0.000000
C	 2.654028	 -0.080172	 -0.929814
H	 2.352320	 -0.304158	 -1.947721
H	 3.613176	 -0.536759	 -0.736487
H	 2.741308	 0.994707	 -0.810018

	symmetry c1
}
set optking {
	frozen_dihedral = ("
		10 12 13 14
	")
}

ee = energy('scf')
oeprop('DIPOLE', 'QUADRUPOLE', 'MULLIKEN_CHARGES')
f=open( 'psi4out.xyz', 'w' )
f.write( "16  " )
f.write( str(ee) + "\n" )
f.write( MOL.save_string_xyz() )
f.close()
--------------------------------------------------------------------------

    Molecular point group: c1

    Geometry (in Angstrom), charge = 0, multiplicity = 1:

       Center              X                  Y                   Z               Mass
    ------------   -----------------  -----------------  -----------------  -----------------
           H         -3.283443105601     0.631211084079     0.135847436870     1.007825032070
           C         -2.232807105601     0.404858084079     0.135847436870    12.000000000000
           C         -1.795491105601    -0.915360915921     0.135847436870    12.000000000000
           C         -1.297129105601     1.418741084079     0.135847436870    12.000000000000
           H         -2.510686105601    -1.718681915921     0.135847436870     1.007825032070
           C         -0.449124105601    -1.209457915921     0.135847436870    12.000000000000
           H         -1.616900105601     2.445791084079     0.135847436870     1.007825032070
           C          0.065254894399     1.138798084079     0.135847436870    12.000000000000
           H         -0.097774105601    -2.224537915921     0.135847436870     1.007825032070
           C          0.490236894399    -0.180470915921     0.135847436870    12.000000000000
           H          0.768149894399     1.949110084079     0.135847436870     1.007825032070
           O          1.783429894399    -0.567759915921     0.135847436870    15.994914619560
           C          2.672201894399    -0.019487915921    -0.793966563130    12.000000000000
           H          2.370493894399    -0.243473915921    -1.811873563130     1.007825032070
           H          3.631349894399    -0.476074915921    -0.600639563130     1.007825032070
           H          2.759481894399     1.055391084079    -0.674170563130     1.007825032070

  Charge       = 0
  Multiplicity = 1
  Basis Set: 6-31G*
  Basis Set:

    Orbital Energies (a.u.)
    -----------------------

    Doubly Occupied:

       1A    -20.575786     2A    -11.289781     3A    -11.277752
       4A    -11.232945     5A    -11.231112     6A    -11.225615
       7A    -11.222575     8A    -11.220301     9A     -1.408405
      10A     -1.146152    11A     -1.019574    12A     -1.013910
      13A     -0.937377    14A     -0.831435    15A     -0.805473
      16A     -0.717268    17A     -0.666647    18A     -0.663688
      19A     -0.644831    20A     -0.614429    21A     -0.591523
      22A     -0.581446    23A     -0.529104    24A     -0.509953
      25A     -0.506023    26A     -0.479829    27A     -0.444832
      28A     -0.334338    29A     -0.311988

  @DF-RHF Final Energy:  -344.57956730627558

   => Energetics <=

    Nuclear Repulsion Energy =            347.8011261288220908
    One-Electron Energy =               -1156.6930769454079382
    Two-Electron Energy =                 464.3123835103099282
    DFT Exchange-Correlation Energy =       0.0000000000000000
    Empirical Dispersion Energy =           0.0000000000000000
    PCM Polarization Energy =               0.0000000000000000
    EFP Energy =                            0.0000000000000000
    Total Energy =                       -344.5795673062759761

  Mulliken Charges: (a.u.)
   Center  Symbol    Alpha    Beta     Spin     Total
       1     H     0.40029  0.40029  0.00000  0.19943
       2     C     3.10841  3.10841  0.00000 -0.21682
       3     C     3.09472  3.09472  0.00000 -0.18945
       4     C     3.09416  3.09416  0.00000 -0.18831
       5     H     0.39911  0.39911  0.00000  0.20178
       6     C     3.12258  3.12258  0.00000 -0.24516
       7     H     0.39948  0.39948  0.00000  0.20105
       8     C     3.13144  3.13144  0.00000 -0.26288
       9     H     0.39342  0.39342  0.00000  0.21315
      10     C     2.79189  2.79189  0.00000  0.41622
      11     H     0.39729  0.39729  0.00000  0.20542
      12     O     4.33005  4.33005  0.00000 -0.66009
      13     C     3.08349  3.08349  0.00000 -0.16699
      14     H     0.42069  0.42069  0.00000  0.15862
      15     H     0.40871  0.40871  0.00000  0.18258
      16     H     0.42427  0.42427  0.00000  0.15147

   Total alpha = 29.00000, Total beta = 29.00000, Total charge =  0.00000
