                              Psi4 1.0.54 Driver

  ==> Input File <==

--------------------------------------------------------------------------
set {
	reference rhf
	basis cc-pvtz
}

set_num_threads( 4 )
memory 2 gb

molecule MOL {
0 1

H	 -2.644180	 -0.653737	 1.272255
C	 -2.092774	 -0.380414	 0.391915
O	 -0.808934	 -0.154049	 0.752536
F	 -2.163230	 -1.351640	 -0.507133
F	 -2.627232	 0.691260	 -0.169301
C	 0.085006	 0.250800	 -0.215074
C	 1.370439	 -0.548013	 -0.012993
Cl	 0.421658	 1.987697	 -0.091007
H	 -0.272219	 0.063284	 -1.212508
F	 2.341084	 -0.043595	 -0.731626
F	 1.172869	 -1.782666	 -0.410378
F	 1.744934	 -0.575237	 1.236512

	symmetry c1
}
set optking {
	frozen_dihedral = ("
		10 7 6 9
	")
}

ee,wfn = optimize('scf', return_wfn=True)
oeprop( wfn, 'DIPOLE', 'QUADRUPOLE', 'MULLIKEN_CHARGES')
f=open( 'psi4out.xyz', 'w' )
f.write( "12  " )
f.write( str(ee) + "\n" )
f.write( MOL.save_string_xyz() )
f.close()
--------------------------------------------------------------------------

    Molecular point group: c1
  Charge       = 0
  Multiplicity = 1
  Basis Set: CC-PVTZ
  Basis Set:
  @DF-RHF Final Energy: -1146.61929893579554
    Total Energy =                      -1146.6192989357957686
    Molecular point group: c1
  Basis Set: CC-PVTZ
  Basis Set:
  Basis Set: CC-PVTZ
  Basis Set:
  @DF-RHF Final Energy: -1146.61944788462938
    Total Energy =                      -1146.6194478846289257
  Basis Set: CC-PVTZ
  Basis Set:
  Basis Set: CC-PVTZ
  Basis Set:
  @DF-RHF Final Energy: -1146.61957856158460
    Total Energy =                      -1146.6195785615857403
  Basis Set: CC-PVTZ
  Basis Set:
  Basis Set: CC-PVTZ
  Basis Set:
  @DF-RHF Final Energy: -1146.61958355259867
    Total Energy =                      -1146.6195835525982147
  Basis Set: CC-PVTZ
  Basis Set:
  Basis Set: CC-PVTZ
  Basis Set:
  @DF-RHF Final Energy: -1146.61958482499904
    Total Energy =                      -1146.6195848249988103
  Basis Set: CC-PVTZ
  Basis Set:
  Charge       = 0
  Multiplicity = 1
  Basis Set: CC-PVTZ
  Basis Set:

    Orbital Energies (a.u.)
    -----------------------

    Doubly Occupied:

       1A   -104.857241     2A    -26.355243     3A    -26.354698
       4A    -26.351632     5A    -26.343000     6A    -26.342869
       7A    -20.640467     8A    -11.520293     9A    -11.483442
      10A    -11.400955    11A    -10.582780    12A     -8.049585
      13A     -8.047583    14A     -8.047516    15A     -1.767946
      16A     -1.724426    17A     -1.662982    18A     -1.660992
      19A     -1.644492    20A     -1.486346    21A     -1.178571
      22A     -1.053544    23A     -0.990181    24A     -0.924275
      25A     -0.864324    26A     -0.857980    27A     -0.852914
      28A     -0.829124    29A     -0.817584    30A     -0.794093
      31A     -0.733441    32A     -0.731636    33A     -0.712208
      34A     -0.708405    35A     -0.685509    36A     -0.680594
      37A     -0.665104    38A     -0.663978    39A     -0.649312
      40A     -0.638668    41A     -0.598575    42A     -0.581651
      43A     -0.526172    44A     -0.478293    45A     -0.470418

  @DF-RHF Final Energy: -1146.61958524402644

   => Energetics <=

    Nuclear Repulsion Energy =            738.3381416076950927
    One-Electron Energy =               -3059.8933774720421752
    Two-Electron Energy =                1174.9356506203209847
    DFT Exchange-Correlation Energy =       0.0000000000000000
    Empirical Dispersion Energy =           0.0000000000000000
    PCM Polarization Energy =               0.0000000000000000
    EFP Energy =                            0.0000000000000000
    Total Energy =                      -1146.6195852440262115
    Molecular point group: c1
  Basis Set: CC-PVTZ
  Basis Set:

  -Total Gradient:
     Atom            X                  Y                   Z
    ------   -----------------  -----------------  -----------------
       1       -0.000010933611    -0.000003096204     0.000001780674
       2        0.000037246412    -0.000024833138     0.000019937393
       3       -0.000059289844     0.000009251042     0.000068030544
       4       -0.000006795428     0.000009717734    -0.000007716792
       5       -0.000036717898    -0.000007872181    -0.000011183092
       6        0.002993612788     0.004524367244    -0.001090736128
       7       -0.001652289614    -0.003421555501    -0.003088770432
       8        0.000006560807    -0.000075552411     0.000016324584
       9       -0.002177194931    -0.003094502925     0.001444486895
      10        0.000844035647     0.002023213423     0.002548485673
      11        0.000032426616     0.000071140982     0.000007027545
      12        0.000029339068    -0.000010277928     0.000092333136

  **** Optimization is complete! (in 6 steps) ****
    Final optimized geometry and variables:
    Molecular point group: c1

    Geometry (in Angstrom), charge = 0, multiplicity = 1:

    H           -2.634005428926    -0.675374415229     1.266165550444
    C           -2.086790667224    -0.386142995539     0.388186085483
    O           -0.800942280800    -0.169476078927     0.745437098006
    F           -2.164626029232    -1.340518806932    -0.528848962523
    F           -2.623529390186     0.696376097740    -0.149952419088
    C            0.089887163603     0.255998261019    -0.221175411728
    C            1.373699548364    -0.550371253459    -0.020197544515
    CL           0.406366943346     1.990926510212    -0.078920641211
    H           -0.282324821209     0.053339237368    -1.210255869215
    F            2.348745824533    -0.080136042642    -0.753307511199
    F            1.154344079062    -1.794359145873    -0.373492018900
    F            1.759758867918    -0.540385813905     1.227576376781

  Mulliken Charges: (a.u.)
   Center  Symbol    Alpha    Beta     Spin     Total
       1     H     0.45195  0.45195  0.00000  0.09610
       2     C     2.74031  2.74031  0.00000  0.51938
       3     O     4.15621  4.15621  0.00000 -0.31242
       4     F     4.61834  4.61834  0.00000 -0.23668
       5     F     4.61518  4.61518  0.00000 -0.23036
       6     C     2.93957  2.93957  0.00000  0.12086
       7     C     2.66990  2.66990  0.00000  0.66020
       8    CL     8.57180  8.57180  0.00000 -0.14359
       9     H     0.43050  0.43050  0.00000  0.13899
      10     F     4.60053  4.60053  0.00000 -0.20106
      11     F     4.60474  4.60474  0.00000 -0.20949
      12     F     4.60096  4.60096  0.00000 -0.20192

   Total alpha = 45.00000, Total beta = 45.00000, Total charge =  0.00000

*** Psi4 exiting successfully. Buy a developer a beer!
