  ==> Input File <==

--------------------------------------------------------------------------
set {
	reference rhf
	basis 6-31G*
}

set_num_threads( 1 )
memory 2 gb

molecule MOL {
0 1

H	 -1.157017	 -1.665602	 1.148205
C	 -1.931119	 -1.206225	 0.536749
O	 -1.392607	 -0.295399	 -0.366433
H	 -2.428886	 -1.977120	 -0.035168
H	 -2.657457	 -0.734105	 1.197025
C	 -0.719715	 0.768384	 0.229244
C	 0.719720	 0.768376	 -0.229267
H	 -1.185038	 1.714362	 -0.050570
H	 -0.750528	 0.687237	 1.313896
O	 1.392611	 -0.295398	 0.366430
H	 0.750534	 0.687200	 -1.313918
H	 1.185043	 1.714359	 0.050526
C	 2.706965	 -0.449871	 -0.062409
H	 2.756559	 -0.644779	 -1.131878
H	 3.305899	 0.433456	 0.155466
H	 3.125548	 -1.294566	 0.467107

	symmetry c1
}
set optking {
	frozen_dihedral = ("
		3 6 7 11,
		7 10 13 14
	")
}

ee = energy('scf')
oeprop('DIPOLE', 'QUADRUPOLE', 'MULLIKEN_CHARGES')
f=open( 'psi4out.xyz', 'w' )
f.write( "16  " )
f.write( str(ee) + "\n" )
f.write( MOL.save_string_xyz() )
f.close()
--------------------------------------------------------------------------

    Molecular point group: c1

    Geometry (in Angstrom), charge = 0, multiplicity = 1:

       Center              X                  Y                   Z               Mass
    ------------   -----------------  -----------------  -----------------  -----------------
           H         -1.293335827659    -1.532704915850     1.064862071886     1.007825032070
           C         -2.067437827659    -1.073327915850     0.453406071886    12.000000000000
           O         -1.528925827659    -0.162501915850    -0.449775928114    15.994914619560
           H         -2.565204827659    -1.844222915850    -0.118510928114     1.007825032070
           H         -2.793775827659    -0.601207915850     1.113682071886     1.007825032070
           C         -0.856033827659     0.901281084150     0.145901071886    12.000000000000
           C          0.583401172341     0.901273084150    -0.312609928114    12.000000000000
           H         -1.321356827659     1.847259084150    -0.133912928114     1.007825032070
           H         -0.886846827659     0.820134084150     1.230553071886     1.007825032070
           O          1.256292172341    -0.162500915850     0.283087071886    15.994914619560
           H          0.614215172341     0.820097084150    -1.397260928114     1.007825032070
           H          1.048724172341     1.847256084150    -0.032816928114     1.007825032070
           C          2.570646172341    -0.316973915850    -0.145751928114    12.000000000000
           H          2.620240172341    -0.511881915850    -1.215220928114     1.007825032070
           H          3.169580172341     0.566353084150     0.072123071886     1.007825032070
           H          2.989229172341    -1.161668915850     0.383764071886     1.007825032070

  Charge       = 0
  Multiplicity = 1
  Basis Set: 6-31G*
  Basis Set:

    Orbital Energies (a.u.)
    -----------------------

    Doubly Occupied:

       1A    -20.556819     2A    -20.550024     3A    -11.267582
       4A    -11.266362     5A    -11.265878     6A    -11.259061
       7A     -1.389527     8A     -1.369892     9A     -1.028853
      10A     -0.938431    11A     -0.890002    12A     -0.823871
      13A     -0.683529    14A     -0.680069    15A     -0.658047
      16A     -0.632617    17A     -0.626483    18A     -0.601583
      19A     -0.545566    20A     -0.534159    21A     -0.513431
      22A     -0.476498    23A     -0.469016    24A     -0.417821
      25A     -0.405536

  @DF-RHF Final Energy:  -306.97557166689865

   => Energetics <=

    Nuclear Repulsion Energy =            262.4006544113004793
    One-Electron Energy =                -939.0510187385750669
    Two-Electron Energy =                 369.6747926603763972
    DFT Exchange-Correlation Energy =       0.0000000000000000
    Empirical Dispersion Energy =           0.0000000000000000
    PCM Polarization Energy =               0.0000000000000000
    EFP Energy =                            0.0000000000000000
    Total Energy =                       -306.9755716668981904

  Mulliken Charges: (a.u.)
   Center  Symbol    Alpha    Beta     Spin     Total
       1     H     0.41990  0.41990  0.00000  0.16021
       2     C     3.08303  3.08303  0.00000 -0.16605
       3     O     4.30270  4.30270  0.00000 -0.60540
       4     H     0.41460  0.41460  0.00000  0.17080
       5     H     0.43176  0.43176  0.00000  0.13649
       6     C     3.00063  3.00063  0.00000 -0.00126
       7     C     2.99111  2.99111  0.00000  0.01777
       8     H     0.42261  0.42261  0.00000  0.15479
       9     H     0.42158  0.42158  0.00000  0.15683
      10     O     4.30449  4.30449  0.00000 -0.60898
      11     H     0.42294  0.42294  0.00000  0.15412
      12     H     0.43498  0.43498  0.00000  0.13005
      13     C     3.07950  3.07950  0.00000 -0.15901
      14     H     0.42749  0.42749  0.00000  0.14501
      15     H     0.43069  0.43069  0.00000  0.13863
      16     H     0.41200  0.41200  0.00000  0.17600

   Total alpha = 25.00000, Total beta = 25.00000, Total charge =  0.00000
