  ==> Input File <==

--------------------------------------------------------------------------
set {
	reference rhf
	basis cc-pvtz
}

set_num_threads( 4 )
memory 2 gb

molecule MOL {
0 1

H	 2.001267	 1.431426	 -0.811859
O	 1.126383	 1.075195	 -0.849450
C	 1.050374	 0.054877	 0.000135
C	 -0.318151	 -0.570512	 0.000144
O	 1.971824	 -0.286613	 0.657617
C	 -1.454884	 0.441630	 -0.000560
H	 -0.371613	 -1.223646	 -0.864985
H	 -0.371920	 -1.222758	 0.865929
C	 -2.822577	 -0.232186	 0.000063
H	 -1.359760	 1.084704	 -0.867077
H	 -1.359641	 1.085996	 0.864983
H	 -2.954352	 -0.858985	 -0.875745
H	 -3.615886	 0.505352	 0.000019
H	 -2.953878	 -0.858359	 0.876394

	symmetry c1
}
set optking {
	frozen_dihedral = ("
		2 3 4 7
	")
}

ee = optimize('scf')
oeprop('DIPOLE', 'QUADRUPOLE', 'MULLIKEN_CHARGES')
f=open( 'psi4out.xyz', 'w' )
f.write( "14  " )
f.write( str(ee) + "\n" )
f.write( MOL.save_string_xyz() )
f.close()
--------------------------------------------------------------------------

    Molecular point group: c1
  Charge       = 0
  Multiplicity = 1
  Basis Set: CC-PVTZ
  Basis Set:
  @DF-RHF Final Energy:  -305.99881412795310
    Total Energy =                       -305.9988141279535512
    Molecular point group: c1
  Basis Set: CC-PVTZ
  Basis Set:
  Basis Set: CC-PVTZ
  Basis Set:
  @DF-RHF Final Energy:  -305.99900178544704
    Total Energy =                       -305.9990017854465805
  Basis Set: CC-PVTZ
  Basis Set:
  Basis Set: CC-PVTZ
  Basis Set:
  @DF-RHF Final Energy:  -305.99912046906297
    Total Energy =                       -305.9991204690630866
  Basis Set: CC-PVTZ
  Basis Set:
  Basis Set: CC-PVTZ
  Basis Set:
  @DF-RHF Final Energy:  -305.99922061710515
    Total Energy =                       -305.9992206171052089
  Basis Set: CC-PVTZ
  Basis Set:
  Basis Set: CC-PVTZ
  Basis Set:
  @DF-RHF Final Energy:  -305.99922186498964
    Total Energy =                       -305.9992218649897495
  Basis Set: CC-PVTZ
  Basis Set:
  Charge       = 0
  Multiplicity = 1
  Basis Set: CC-PVTZ
  Basis Set:

    Orbital Energies (a.u.)
    -----------------------

    Doubly Occupied:

       1A    -20.605631     2A    -20.538869     3A    -11.373527
       4A    -11.239352     5A    -11.230780     6A    -11.218519
       7A     -1.478290     8A     -1.368345     9A     -1.087085
      10A     -0.980229    11A     -0.849348    12A     -0.818306
      13A     -0.704479    14A     -0.686621    15A     -0.658807
      16A     -0.625782    17A     -0.594726    18A     -0.566102
      19A     -0.552107    20A     -0.523968    21A     -0.500043
      22A     -0.489199    23A     -0.476941    24A     -0.440453

  @DF-RHF Final Energy:  -305.99922232909938

   => Energetics <=

    Nuclear Repulsion Energy =            240.8730258072358197
    One-Electron Energy =                -894.5294760981494164
    Two-Electron Energy =                 347.6572279618141010
    DFT Exchange-Correlation Energy =       0.0000000000000000
    Empirical Dispersion Energy =           0.0000000000000000
    PCM Polarization Energy =               0.0000000000000000
    EFP Energy =                            0.0000000000000000
    Total Energy =                       -305.9992223290995526
    Molecular point group: c1
  Basis Set: CC-PVTZ
  Basis Set:

  -Total Gradient:
     Atom            X                  Y                   Z
    ------   -----------------  -----------------  -----------------
       1       -0.000000710707    -0.000003374786     0.000001580485
       2       -0.000201534024     0.000485819171     0.000490340525
       3        0.000359710071    -0.000795153112    -0.000554137433
       4       -0.000408046427     0.000942279146    -0.000361433744
       5       -0.000025064329     0.000018456640    -0.000023915946
       6        0.000005168658    -0.000010582501    -0.000006005849
       7        0.000282803782    -0.000646471024     0.000450239647
       8       -0.000001167923     0.000000956128    -0.000000320685
       9       -0.000004760424     0.000007518759     0.000005310291
      10       -0.000001529037     0.000001772145     0.000001169600
      11       -0.000004161272    -0.000002991239    -0.000001978392
      12        0.000004620444     0.000002184375     0.000000733839
      13       -0.000005603345    -0.000000545630    -0.000000264044
      14        0.000000274537     0.000000131930    -0.000001318296

  **** Optimization is complete! (in 6 steps) ****
    Final optimized geometry and variables:
    Molecular point group: c1

    Geometry (in Angstrom), charge = 0, multiplicity = 1:

    H            2.109791669243     1.311153302920    -0.732480102390
    O            1.218564969252     0.998900525170    -0.778174536243
    C            1.098192305603    -0.039509412944     0.043034819674
    C           -0.278782082646    -0.649064812519     0.030949145304
    O            2.005971637503    -0.434154206151     0.690628366545
    C           -1.433133314871     0.352183017761     0.021361451117
    H           -0.327913354188    -1.283064211387    -0.850281130330
    H           -0.333615019246    -1.300729181549     0.891469242444
    C           -2.788440127550    -0.344917436907     0.060464580475
    H           -1.365418257344     0.975875504528    -0.860298655508
    H           -1.341229397480     1.013813292430     0.876897913492
    H           -2.920596942351    -0.992282850429    -0.799979806742
    H           -3.594849063847     0.378371421660     0.057068556945
    H           -2.892930964403    -0.953845875230     0.951822289508

  Mulliken Charges: (a.u.)
   Center  Symbol    Alpha    Beta     Spin     Total
       1     H     0.38088  0.38088  0.00000  0.23823
       2     O     4.16024  4.16024  0.00000 -0.32049
       3     C     2.81130  2.81130  0.00000  0.37739
       4     C     3.08872  3.08872  0.00000 -0.17744
       5     O     4.19371  4.19371  0.00000 -0.38742
       6     C     3.08906  3.08906  0.00000 -0.17812
       7     H     0.44507  0.44507  0.00000  0.10985
       8     H     0.43550  0.43550  0.00000  0.12900
       9     C     3.15044  3.15044  0.00000 -0.30088
      10     H     0.44268  0.44268  0.00000  0.11464
      11     H     0.44925  0.44925  0.00000  0.10150
      12     H     0.45436  0.45436  0.00000  0.09128
      13     H     0.44557  0.44557  0.00000  0.10885
      14     H     0.45320  0.45320  0.00000  0.09359

   Total alpha = 24.00000, Total beta = 24.00000, Total charge = -0.00000
