  ==> Input File <==

--------------------------------------------------------------------------
set {
	reference rhf
	basis 6-31G*
}

set_num_threads( 4 )
memory 2 gb

molecule MOL {
0 1

O	 1.108968	 1.474876	 0.391411
C	 0.808996	 0.619105	 1.159990
C	 -0.476909	 -0.170710	 1.136871
O	 1.588506	 0.238943	 2.164389
C	 -1.412532	 0.227344	 -0.000452
H	 -0.210797	 -1.222592	 1.077852
H	 -0.955180	 -0.040826	 2.103898
C	 -2.706999	 -0.587347	 -0.000541
H	 -0.898347	 0.101463	 -0.948225
H	 -1.643424	 1.285113	 0.079025
C	 -3.956778	 0.291888	 0.000910
H	 -2.726114	 -1.239230	 -0.871609
H	 -2.725217	 -1.240844	 0.869333
H	 -3.985213	 0.933254	 -0.875158
H	 -4.860123	 -0.309979	 0.000519
H	 -3.984618	 0.931166	 0.878514
C	 2.831427	 0.903616	 2.300402
H	 3.437884	 0.759756	 1.417791
H	 3.310510	 0.460630	 3.159583
H	 2.681119	 1.961730	 2.459485

	symmetry c1
}
set optking {
	frozen_dihedral = ("
		9 5 8 12
	")
}

ee = optimize('scf')
oeprop('DIPOLE', 'QUADRUPOLE', 'MULLIKEN_CHARGES')
f=open( 'psi4out.xyz', 'w' )
f.write( "20  " )
f.write( str(ee) + "\n" )
f.write( MOL.save_string_xyz() )
f.close()
--------------------------------------------------------------------------

    Molecular point group: c1
  Charge       = 0
  Multiplicity = 1
  Basis Set: 6-31G*
  Basis Set:
  @DF-RHF Final Energy:  -383.93573870075602
    Total Energy =                       -383.9357387007557918
    Molecular point group: c1
  Basis Set: 6-31G*
  Basis Set:
  Basis Set: 6-31G*
  Basis Set:
  @DF-RHF Final Energy:  -383.93597620711620
    Total Energy =                       -383.9359762071158002
  Basis Set: 6-31G*
  Basis Set:
  Basis Set: 6-31G*
  Basis Set:
  @DF-RHF Final Energy:  -383.93605560954001
    Total Energy =                       -383.9360556095400625
  Basis Set: 6-31G*
  Basis Set:
  Basis Set: 6-31G*
  Basis Set:
  @DF-RHF Final Energy:  -383.93582052724310
    Total Energy =                       -383.9358205272430951
  Basis Set: 6-31G*
  Basis Set:
  Basis Set: 6-31G*
  Basis Set:
  @DF-RHF Final Energy:  -383.93606171854344
    Total Energy =                       -383.9360617185435558
  Basis Set: 6-31G*
  Basis Set:
  Charge       = 0
  Multiplicity = 1
  Basis Set: 6-31G*
  Basis Set:

    Orbital Energies (a.u.)
    -----------------------

    Doubly Occupied:

       1A    -20.603683     2A    -20.545611     3A    -11.372153
       4A    -11.280904     5A    -11.235990     6A    -11.220003
       7A    -11.219102     8A    -11.211290     9A     -1.469373
      10A     -1.362833    11A     -1.086414    12A     -1.023447
      13A     -0.969013    14A     -0.885879    15A     -0.804436
      16A     -0.767457    17A     -0.699137    18A     -0.682770
      19A     -0.672249    20A     -0.636838    21A     -0.602757
      22A     -0.596414    23A     -0.575806    24A     -0.543451
      25A     -0.528255    26A     -0.522209    27A     -0.510011
      28A     -0.476258    29A     -0.472368    30A     -0.465470
      31A     -0.455311    32A     -0.436292

  @DF-RHF Final Energy:  -383.93606196627979

   => Energetics <=

    Nuclear Repulsion Energy =            381.5236431673790776
    One-Electron Energy =               -1279.0530335956063936
    Two-Electron Energy =                 513.5933284619472943
    DFT Exchange-Correlation Energy =       0.0000000000000000
    Empirical Dispersion Energy =           0.0000000000000000
    PCM Polarization Energy =               0.0000000000000000
    EFP Energy =                            0.0000000000000000
    Total Energy =                       -383.9360619662800218
    Molecular point group: c1
  Basis Set: 6-31G*
  Basis Set:

  -Total Gradient:
     Atom            X                  Y                   Z
    ------   -----------------  -----------------  -----------------
       1        0.000035987689    -0.000009927747     0.000030213919
       2       -0.000030034996     0.000002628147    -0.000010785148
       3       -0.000037356304     0.000015087150    -0.000020137982
       4        0.000020563211     0.000030097221    -0.000019759081
       5       -0.001183895182     0.001853749047    -0.001002666947
       6       -0.000004303671     0.000000715572    -0.000005354946
       7       -0.000006049163    -0.000015582766    -0.000001871754
       8        0.001098588791    -0.001737627603     0.001255926260
       9        0.000823532738    -0.001314836112     0.000635863911
      10       -0.000008803286     0.000000164168    -0.000000540394
      11        0.000012373209    -0.000026899495    -0.000000854372
      12       -0.000751764097     0.001195086095    -0.000885395872
      13        0.000009181168     0.000015038606     0.000010545472
      14        0.000011806842     0.000008716032     0.000009487233
      15       -0.000010642728    -0.000004649788    -0.000012140033
      16        0.000001614732    -0.000013498230     0.000002831048
      17        0.000008757654    -0.000002241057     0.000016232839
      18       -0.000000497785    -0.000000798547    -0.000001188371
      19        0.000009877267     0.000005120918    -0.000000202516
      20        0.000001063906    -0.000000341613    -0.000000203265

  **** Optimization is complete! (in 6 steps) ****
    Final optimized geometry and variables:
    Molecular point group: c1

    Geometry (in Angstrom), charge = 0, multiplicity = 1:

    O            1.356693403160     1.091156266033    -0.511751636403
    C            1.060104480090     0.231862088634     0.254375176443
    C           -0.226922164529    -0.556357054986     0.234587084568
    O            1.845067347040    -0.153574149936     1.252579497784
    C           -1.168760827560    -0.154078440571    -0.898290135604
    H            0.036666275050    -1.608620128418     0.171358284393
    H           -0.701644248921    -0.428570558338     1.203740190564
    C           -2.475856320799    -0.978343305928    -0.903299594693
    H           -0.643144609145    -0.274667941071    -1.838523328097
    H           -1.389690418305     0.903923049430    -0.810025771248
    C           -3.733474499723    -0.107997711207    -0.926618182990
    H           -2.492551151674    -1.631451777045    -1.770803542403
    H           -2.514683244917    -1.628294891164    -0.032927692641
    H           -3.747163509628     0.534174559035    -1.802439668528
    H           -4.632715619359    -0.716059338489    -0.946574525713
    H           -3.783354168174     0.530965758638    -0.049310680259
    C            3.088976502798     0.509926487547     1.385103185472
    H            3.690472335013     0.370406605594     0.498393265166
    H            3.572727638769     0.062374106340     2.239296080594
    H            2.940014300955     1.567272609847     1.550469646211

  Mulliken Charges: (a.u.)
   Center  Symbol    Alpha    Beta     Spin     Total
       1     O     4.28596  4.28596  0.00000 -0.57192
       2     C     2.60599  2.60599  0.00000  0.78801
       3     C     3.21006  3.21006  0.00000 -0.42012
       4     O     4.30713  4.30713  0.00000 -0.61426
       5     C     3.15534  3.15534  0.00000 -0.31068
       6     H     0.40032  0.40032  0.00000  0.19937
       7     H     0.40082  0.40082  0.00000  0.19836
       8     C     3.15769  3.15769  0.00000 -0.31538
       9     H     0.40916  0.40916  0.00000  0.18168
      10     H     0.40889  0.40889  0.00000  0.18222
      11     C     3.23993  3.23993  0.00000 -0.47987
      12     H     0.41796  0.41796  0.00000  0.16408
      13     H     0.42091  0.42091  0.00000  0.15817
      14     H     0.41906  0.41906  0.00000  0.16187
      15     H     0.41991  0.41991  0.00000  0.16017
      16     H     0.42183  0.42183  0.00000  0.15633
      17     C     3.09244  3.09244  0.00000 -0.18487
      18     H     0.40907  0.40907  0.00000  0.18187
      19     H     0.40844  0.40844  0.00000  0.18311
      20     H     0.40907  0.40907  0.00000  0.18185

   Total alpha = 32.00000, Total beta = 32.00000, Total charge = -0.00000
