  ==> Input File <==

--------------------------------------------------------------------------
set {
	reference rhf
	basis 6-31G*
}

set_num_threads( 1 )
memory 2 gb

molecule MOL {
0 1

H	 -3.161837	 0.500524	 -0.000234
C	 -2.367097	 -0.232926	 -0.000000
O	 -1.158440	 0.455814	 -0.000122
H	 -2.468853	 -0.861886	 -0.882833
H	 -2.468942	 -0.861421	 0.883154
C	 -0.029776	 -0.365156	 0.000148
C	 -0.433060	 -1.752781	 0.467611
H	 0.735283	 0.048686	 0.658418
H	 0.399848	 -0.413000	 -1.001372
C	 0.745989	 -2.724214	 0.499893
H	 -0.876187	 -1.668083	 1.455096
H	 -1.209232	 -2.126615	 -0.193074
H	 1.524650	 -2.380283	 1.175039
H	 0.429782	 -3.705874	 0.836348
H	 1.189778	 -2.841574	 -0.484832

	symmetry c1
}
set optking {
	frozen_dihedral = ("
		6 3 2 4,
		11 7 6 8
	")
}

ee = energy('scf')
oeprop('DIPOLE', 'QUADRUPOLE', 'MULLIKEN_CHARGES')
f=open( 'psi4out.xyz', 'w' )
f.write( "15  " )
f.write( str(ee) + "\n" )
f.write( MOL.save_string_xyz() )
f.close()
--------------------------------------------------------------------------

    Molecular point group: c1

    Geometry (in Angstrom), charge = 0, multiplicity = 1:

       Center              X                  Y                   Z               Mass
    ------------   -----------------  -----------------  -----------------  -----------------
           H         -2.493735410147     1.418963444869    -0.190245057189     1.007825032070
           C         -1.698995410147     0.685513444869    -0.190011057189    12.000000000000
           O         -0.490338410147     1.374253444869    -0.190133057189    15.994914619560
           H         -1.800751410147     0.056553444869    -1.072844057189     1.007825032070
           H         -1.800840410147     0.057018444869     0.693142942811     1.007825032070
           C          0.638325589853     0.553283444869    -0.189863057189    12.000000000000
           C          0.235041589853    -0.834341555131     0.277599942811    12.000000000000
           H          1.403384589853     0.967125444869     0.468406942811     1.007825032070
           H          1.067949589853     0.505439444869    -1.191383057189     1.007825032070
           C          1.414090589853    -1.805774555131     0.309881942811    12.000000000000
           H         -0.208085410147    -0.749643555131     1.265084942811     1.007825032070
           H         -0.541130410147    -1.208175555131    -0.383085057189     1.007825032070
           H          2.192751589853    -1.461843555131     0.985027942811     1.007825032070
           H          1.097883589853    -2.787434555131     0.646336942811     1.007825032070
           H          1.857879589853    -1.923134555131    -0.674843057189     1.007825032070

  Charge       = 0
  Multiplicity = 1
  Basis Set: 6-31G*
  Basis Set:

    Orbital Energies (a.u.)
    -----------------------

    Doubly Occupied:

       1A    -20.549921     2A    -11.266621     3A    -11.260824
       4A    -11.218719     5A    -11.215709     6A     -1.379019
       7A     -1.057365     8A     -0.962404     9A     -0.898191
      10A     -0.792667    11A     -0.681031    12A     -0.667025
      13A     -0.627525    14A     -0.599689    15A     -0.561585
      16A     -0.545998    17A     -0.524445    18A     -0.499992
      19A     -0.494402    20A     -0.441102    21A     -0.402193

  @DF-RHF Final Energy:  -232.11450389476786

   => Energetics <=

    Nuclear Repulsion Energy =            196.2196060518125762
    One-Electron Energy =                -703.3753686806743417
    Two-Electron Energy =                 275.0412587340942423
    DFT Exchange-Correlation Energy =       0.0000000000000000
    Empirical Dispersion Energy =           0.0000000000000000
    PCM Polarization Energy =               0.0000000000000000
    EFP Energy =                            0.0000000000000000
    Total Energy =                       -232.1145038947675516

  Mulliken Charges: (a.u.)
   Center  Symbol    Alpha    Beta     Spin     Total
       1     H     0.41006  0.41006  0.00000  0.17988
       2     C     3.08850  3.08850  0.00000 -0.17701
       3     O     4.31015  4.31015  0.00000 -0.62030
       4     H     0.42825  0.42825  0.00000  0.14349
       5     H     0.42537  0.42537  0.00000  0.14926
       6     C     2.96991  2.96991  0.00000  0.06018
       7     C     3.19237  3.19237  0.00000 -0.38474
       8     H     0.42128  0.42128  0.00000  0.15743
       9     H     0.42969  0.42969  0.00000  0.14062
      10     C     3.24138  3.24138  0.00000 -0.48276
      11     H     0.41265  0.41265  0.00000  0.17471
      12     H     0.41357  0.41357  0.00000  0.17285
      13     H     0.41992  0.41992  0.00000  0.16016
      14     H     0.41681  0.41681  0.00000  0.16637
      15     H     0.42008  0.42008  0.00000  0.15985

   Total alpha = 21.00000, Total beta = 21.00000, Total charge =  0.00000
