  ==> Input File <==

--------------------------------------------------------------------------
set {
	reference rhf
	basis 6-31G*
}

set_num_threads( 1 )
memory 2 gb

molecule MOL {
0 1

H	 -2.482165	 -0.708564	 -1.226062
O	 -2.310168	 -0.871793	 -0.309793
C	 -2.026376	 0.340750	 0.341611
C	 -0.673256	 0.843270	 -0.132153
H	 -2.792215	 1.080697	 0.115987
H	 -2.013526	 0.200402	 1.421792
C	 0.486613	 -0.083066	 0.235839
H	 -0.715586	 0.970948	 -1.210718
H	 -0.508072	 1.829858	 0.297090
C	 1.840406	 0.433480	 -0.254303
H	 0.300215	 -1.068318	 -0.178947
H	 0.519509	 -0.203625	 1.318070
C	 3.000220	 -0.489290	 0.118523
H	 1.809207	 0.553576	 -1.335192
H	 2.021860	 1.424500	 0.157276
H	 2.864959	 -1.479103	 -0.307933
H	 3.946603	 -0.099227	 -0.243630
H	 3.080049	 -0.602997	 1.196117

	symmetry c1
}
set optking {
	frozen_dihedral = ("
		14 10 7 11,
		10 7 4 8,
		2 3 4 8
	")
}

ee = energy('scf')
oeprop('DIPOLE', 'QUADRUPOLE', 'MULLIKEN_CHARGES')
f=open( 'psi4out.xyz', 'w' )
f.write( "18  " )
f.write( str(ee) + "\n" )
f.write( MOL.save_string_xyz() )
f.close()
--------------------------------------------------------------------------

    Molecular point group: c1

    Geometry (in Angstrom), charge = 0, multiplicity = 1:

       Center              X                  Y                   Z               Mass
    ------------   -----------------  -----------------  -----------------  -----------------
           H         -2.489638974805    -0.714358986119    -1.212019031454     1.007825032070
           O         -2.317641974805    -0.877587986119    -0.295750031454    15.994914619560
           C         -2.033849974805     0.334955013881     0.355653968546    12.000000000000
           C         -0.680729974805     0.837475013881    -0.118110031454    12.000000000000
           H         -2.799688974805     1.074902013881     0.130029968546     1.007825032070
           H         -2.020999974805     0.194607013881     1.435834968546     1.007825032070
           C          0.479139025195    -0.088860986119     0.249881968546    12.000000000000
           H         -0.723059974805     0.965153013881    -1.196675031454     1.007825032070
           H         -0.515545974805     1.824063013881     0.311132968546     1.007825032070
           C          1.832932025195     0.427685013881    -0.240260031454    12.000000000000
           H          0.292741025195    -1.074112986119    -0.164904031454     1.007825032070
           H          0.512035025195    -0.209419986119     1.332112968546     1.007825032070
           C          2.992746025195    -0.495084986119     0.132565968546    12.000000000000
           H          1.801733025195     0.547781013881    -1.321149031454     1.007825032070
           H          2.014386025195     1.418705013881     0.171318968546     1.007825032070
           H          2.857485025195    -1.484897986119    -0.293890031454     1.007825032070
           H          3.939129025195    -0.105021986119    -0.229587031454     1.007825032070
           H          3.072575025195    -0.608791986119     1.210159968546     1.007825032070

  Charge       = 0
  Multiplicity = 1
  Basis Set: 6-31G*
  Basis Set:

    Orbital Energies (a.u.)
    -----------------------

    Doubly Occupied:

       1A    -20.552436     2A    -11.269225     3A    -11.214335
       4A    -11.213796     5A    -11.209692     6A    -11.206807
       7A     -1.360716     8A     -1.077315     9A     -1.010072
      10A     -0.915860    11A     -0.826656    12A     -0.791026
      13A     -0.683148    14A     -0.652928    15A     -0.613090
      16A     -0.609355    17A     -0.573580    18A     -0.552966
      19A     -0.535630    20A     -0.492807    21A     -0.489543
      22A     -0.473574    23A     -0.462442    24A     -0.455803
      25A     -0.422111

  @DF-RHF Final Energy:  -271.17792054852407

   => Energetics <=

    Nuclear Repulsion Energy =            249.6376182835810198
    One-Electron Energy =                -862.3011748214131558
    Two-Electron Energy =                 341.4856359893079798
    DFT Exchange-Correlation Energy =       0.0000000000000000
    Empirical Dispersion Energy =           0.0000000000000000
    PCM Polarization Energy =               0.0000000000000000
    EFP Energy =                            0.0000000000000000
    Total Energy =                       -271.1779205485241846

  Mulliken Charges: (a.u.)
   Center  Symbol    Alpha    Beta     Spin     Total
       1     H     0.28168  0.28168  0.00000  0.43663
       2     O     4.36833  4.36833  0.00000 -0.73667
       3     C     2.99979  2.99979  0.00000  0.00041
       4     C     3.16370  3.16370  0.00000 -0.32740
       5     H     0.42783  0.42783  0.00000  0.14434
       6     H     0.41585  0.41585  0.00000  0.16831
       7     C     3.15099  3.15099  0.00000 -0.30197
       8     H     0.42892  0.42892  0.00000  0.14216
       9     H     0.42533  0.42533  0.00000  0.14935
      10     C     3.15130  3.15130  0.00000 -0.30261
      11     H     0.41064  0.41064  0.00000  0.17872
      12     H     0.42502  0.42502  0.00000  0.14997
      13     C     3.23895  3.23895  0.00000 -0.47791
      14     H     0.42439  0.42439  0.00000  0.15122
      15     H     0.42445  0.42445  0.00000  0.15109
      16     H     0.42102  0.42102  0.00000  0.15797
      17     H     0.42010  0.42010  0.00000  0.15980
      18     H     0.42170  0.42170  0.00000  0.15659

   Total alpha = 25.00000, Total beta = 25.00000, Total charge = -0.00000
