  ==> Input File <==

--------------------------------------------------------------------------
set {
	reference rhf
	basis 6-31G*
}

set_num_threads( 4 )
memory 2 gb

molecule MOL {
0 1

H	 3.131814	 0.047672	 -0.667916
N	 2.434251	 -0.367735	 -0.081097
C	 1.267428	 0.496480	 0.024474
H	 2.855098	 -0.500988	 0.818928
C	 -0.016086	 -0.325158	 -0.029487
H	 1.288818	 1.183521	 -0.816092
H	 1.267576	 1.109062	 0.929528
C	 -1.282277	 0.529072	 0.046735
H	 -0.012495	 -0.908639	 -0.945788
H	 -0.015903	 -1.041248	 0.791956
C	 -2.563920	 -0.301775	 -0.006060
H	 -1.284084	 1.244622	 -0.773004
H	 -1.271387	 1.115393	 0.963286
H	 -2.621848	 -0.873522	 -0.927727
H	 -3.445135	 0.329952	 0.047812
H	 -2.609542	 -1.004582	 0.821105

	symmetry c1
}
set optking {
	frozen_dihedral = ("
		1 2 3 6
	")
}

ee = optimize('scf')
oeprop('DIPOLE', 'QUADRUPOLE', 'MULLIKEN_CHARGES')
f=open( 'psi4out.xyz', 'w' )
f.write( "16  " )
f.write( str(ee) + "\n" )
f.write( MOL.save_string_xyz() )
f.close()
--------------------------------------------------------------------------

    Molecular point group: c1
  Charge       = 0
  Multiplicity = 1
  Basis Set: 6-31G*
  Basis Set:
  @DF-RHF Final Energy:  -212.31433256057835
    Total Energy =                       -212.3143325605782934
    Molecular point group: c1
  Basis Set: 6-31G*
  Basis Set:
  Basis Set: 6-31G*
  Basis Set:
  @DF-RHF Final Energy:  -212.31466170096439
    Total Energy =                       -212.3146617009642227
  Basis Set: 6-31G*
  Basis Set:
  Basis Set: 6-31G*
  Basis Set:
  @DF-RHF Final Energy:  -212.31476984370522
    Total Energy =                       -212.3147698437052213
  Basis Set: 6-31G*
  Basis Set:
  Basis Set: 6-31G*
  Basis Set:
  @DF-RHF Final Energy:  -212.31477225866303
    Total Energy =                       -212.3147722586630266
  Basis Set: 6-31G*
  Basis Set:
  Charge       = 0
  Multiplicity = 1
  Basis Set: 6-31G*
  Basis Set:

    Orbital Energies (a.u.)
    -----------------------

    Doubly Occupied:

       1A    -15.530419     2A    -11.240337     3A    -11.212257
       4A    -11.205889     5A    -11.203885     6A     -1.173150
       7A     -1.056895     8A     -0.957344     9A     -0.842438
      10A     -0.787517    11A     -0.674092    12A     -0.624931
      13A     -0.608931    14A     -0.576495    15A     -0.553657
      16A     -0.530870    17A     -0.490240    18A     -0.473138
      19A     -0.464924    20A     -0.458709    21A     -0.375458

  @DF-RHF Final Energy:  -212.31477324422210

   => Energetics <=

    Nuclear Repulsion Energy =            185.9034694860435195
    One-Electron Energy =                -654.3533374621711118
    Two-Electron Energy =                 256.1350947319056104
    DFT Exchange-Correlation Energy =       0.0000000000000000
    Empirical Dispersion Energy =           0.0000000000000000
    PCM Polarization Energy =               0.0000000000000000
    EFP Energy =                            0.0000000000000000
    Total Energy =                       -212.3147732442220104
    Molecular point group: c1
  Basis Set: 6-31G*
  Basis Set:

  -Total Gradient:
     Atom            X                  Y                   Z
    ------   -----------------  -----------------  -----------------
       1       -0.001093795479    -0.001215175831    -0.002168410890
       2        0.001630123030     0.001857585573     0.003049887782
       3       -0.001783739643    -0.002295681854    -0.002324821422
       4       -0.000017401044    -0.000016654661    -0.000000453114
       5        0.000131087192     0.000071257625     0.000030067133
       6        0.001222450740     0.001609417152     0.001321356885
       7       -0.000073061834    -0.000008858581     0.000036951097
       8        0.000003971250    -0.000017509023     0.000021188079
       9        0.000027210813     0.000023265135     0.000017487782
      10       -0.000005889260    -0.000002362109     0.000020612573
      11       -0.000038014959     0.000023744681    -0.000012260495
      12        0.000018251475    -0.000012737163     0.000017993515
      13       -0.000012005338    -0.000012881417    -0.000000673882
      14        0.000002718976    -0.000002238363     0.000000611245
      15       -0.000015836925    -0.000011121654    -0.000010209496
      16        0.000003931006     0.000009950490     0.000000673208

  **** Optimization is complete! (in 5 steps) ****
    Final optimized geometry and variables:
    Molecular point group: c1

    Geometry (in Angstrom), charge = 0, multiplicity = 1:

    H            3.161776627954     0.048361753921    -0.626797858064
    N            2.443799622824    -0.359635497300    -0.064695990682
    C            1.261473756737     0.491736766605     0.011477736662
    H            2.826050859500    -0.554218078104     0.838063210127
    C           -0.021751915418    -0.331629130166    -0.028512997549
    H            1.280641052202     1.188832151609    -0.821256100948
    H            1.264054725972     1.110148292187     0.910308521233
    C           -1.288781674903     0.520429606989     0.055698649009
    H           -0.024678565807    -0.919183955389    -0.942417321211
    H           -0.005438072370    -1.045722828556     0.792851619074
    C           -2.570496597772    -0.310873042406     0.007582193314
    H           -1.296629798688     1.239160422120    -0.761727563014
    H           -1.274480665375     1.104961545443     0.973726770827
    H           -2.632320983218    -0.881148813754    -0.914818373124
    H           -3.452382896641     0.319674628811     0.066934131360
    H           -2.610990573244    -1.015491861948     0.833403503693

  Mulliken Charges: (a.u.)
   Center  Symbol    Alpha    Beta     Spin     Total
       1     H     0.33035  0.33035  0.00000  0.33930
       2     N     3.92818  3.92818  0.00000 -0.85636
       3     C     3.06513  3.06513  0.00000 -0.13025
       4     H     0.33177  0.33177  0.00000  0.33646
       5     C     3.14003  3.14003  0.00000 -0.28005
       6     H     0.42354  0.42354  0.00000  0.15293
       7     H     0.43057  0.43057  0.00000  0.13885
       8     C     3.15739  3.15739  0.00000 -0.31477
       9     H     0.41771  0.41771  0.00000  0.16458
      10     H     0.42498  0.42498  0.00000  0.15004
      11     C     3.23806  3.23806  0.00000 -0.47611
      12     H     0.42438  0.42438  0.00000  0.15123
      13     H     0.42472  0.42472  0.00000  0.15056
      14     H     0.42105  0.42105  0.00000  0.15791
      15     H     0.42041  0.42041  0.00000  0.15919
      16     H     0.42175  0.42175  0.00000  0.15650

   Total alpha = 21.00000, Total beta = 21.00000, Total charge =  0.00000
