                              Psi4 1.0.54 Driver

  ==> Input File <==

--------------------------------------------------------------------------
set {
	reference rhf
	basis cc-pvtz
}

set_num_threads( 4 )
memory 2 gb

molecule MOL {
0 1

H	 -6.078107	 -2.488380	 1.702917
O	 -6.074997	 -2.835826	 2.575328
C	 -5.048085	 -3.781575	 2.717740
C	 -3.657858	 -3.165179	 2.762594
H	 -5.246440	 -4.295020	 3.648874
H	 -5.102348	 -4.523204	 1.923075
C	 -3.231350	 -2.484508	 1.463892
H	 -3.623339	 -2.449932	 3.578920
H	 -2.950075	 -3.954516	 3.004229
C	 -1.818608	 -1.906715	 1.535654
H	 -3.933939	 -1.692656	 1.226529
H	 -3.281768	 -3.202862	 0.647367
C	 -1.311023	 -1.277304	 0.237018
H	 -1.774879	 -1.168815	 2.333036
H	 -1.135075	 -2.701236	 1.821990
C	 -2.041121	 -0.006551	 -0.194127
H	 -0.256812	 -1.044928	 0.360179
H	 -1.365691	 -2.012360	 -0.562894
C	 -3.489218	 0.042606	 0.286507
H	 -2.022185	 0.066287	 -1.279394
H	 -1.518764	 0.869305	 0.178730
C	 -4.219984	 1.311773	 -0.139038
H	 -4.022855	 -0.824300	 -0.093339
H	 -3.510372	 -0.038577	 1.370031
H	 -4.244251	 1.405725	 -1.219696
H	 -5.244345	 1.313233	 0.215630
H	 -3.732090	 2.196311	 0.257073

	symmetry c1
}
set optking {
	frozen_dihedral = ("
		10 13 16 20
	")
}

ee,wfn = optimize('scf', return_wfn=True)
oeprop( wfn, 'DIPOLE', 'QUADRUPOLE', 'MULLIKEN_CHARGES')
f=open( 'psi4out.xyz', 'w' )
f.write( "27  " )
f.write( str(ee) + "\n" )
f.write( MOL.save_string_xyz() )
f.close()
--------------------------------------------------------------------------

    Molecular point group: c1
  Charge       = 0
  Multiplicity = 1
  Basis Set: CC-PVTZ
  Basis Set:
  @DF-RHF Final Energy:  -388.39645866713732
    Total Energy =                       -388.3964586671377219
    Molecular point group: c1
  Basis Set: CC-PVTZ
  Basis Set:
  Basis Set: CC-PVTZ
  Basis Set:
  @DF-RHF Final Energy:  -388.41269411900089
    Total Energy =                       -388.4126941190013440
  Basis Set: CC-PVTZ
  Basis Set:
  Basis Set: CC-PVTZ
  Basis Set:
  @DF-RHF Final Energy:  -388.19746648861320
    Total Energy =                       -388.1974664886130313
  Basis Set: CC-PVTZ
  Basis Set:
  Basis Set: CC-PVTZ
  Basis Set:
  @DF-RHF Final Energy:  -388.33237903072779
    Total Energy =                       -388.3323790307280206
  Basis Set: CC-PVTZ
  Basis Set:
  @DF-RHF Final Energy:  -388.41418255562684
    Total Energy =                       -388.4141825556266667
  @DF-RHF Final Energy:  -388.41757417133948
    Total Energy =                       -388.4175741713390835
  @DF-RHF Final Energy:  -388.41811541168801
    Total Energy =                       -388.4181154116884045
  @DF-RHF Final Energy:  -388.41807523631701
    Total Energy =                       -388.4180752363168949
  @DF-RHF Final Energy:  -388.41825133993223
    Total Energy =                       -388.4182513399324534
  Basis Set: CC-PVTZ
  Basis Set:
  @DF-RHF Final Energy:  -388.41826089280914
    Total Energy =                       -388.4182608928097125
  Basis Set: CC-PVTZ
  Basis Set:
  Basis Set: CC-PVTZ
  Basis Set:
  @DF-RHF Final Energy:  -388.41826566872965
    Total Energy =                       -388.4182656687289636
  Basis Set: CC-PVTZ
  Basis Set:
  Basis Set: CC-PVTZ
  Basis Set:
  @DF-RHF Final Energy:  -388.41826793426043
    Total Energy =                       -388.4182679342601432
  Basis Set: CC-PVTZ
  Basis Set:
  Charge       = 0
  Multiplicity = 1
  Basis Set: CC-PVTZ
  Basis Set:

    Orbital Energies (a.u.)
    -----------------------

    Doubly Occupied:

       1A    -20.545389     2A    -11.264927     3A    -11.215830
       4A    -11.214835     5A    -11.214090     6A    -11.213762
       7A    -11.212952     8A    -11.212934     9A    -11.206941
      10A     -1.363257    11A     -1.093768    12A     -1.060308
      13A     -1.010584    14A     -0.950946    15A     -0.887587
      16A     -0.833523    17A     -0.796435    18A     -0.769489
      19A     -0.696377    20A     -0.652891    21A     -0.635388
      22A     -0.618623    23A     -0.602234    24A     -0.586456
      25A     -0.573541    26A     -0.567419    27A     -0.538891
      28A     -0.514506    29A     -0.508568    30A     -0.502543
      31A     -0.487570    32A     -0.481469    33A     -0.469472
      34A     -0.450725    35A     -0.444964    36A     -0.443679
      37A     -0.425310

  @DF-RHF Final Energy:  -388.41826875521974

   => Energetics <=

    Nuclear Repulsion Energy =            471.1416580156196687
    One-Electron Energy =               -1460.5834816159645015
    Two-Electron Energy =                 601.0235548451248633
    DFT Exchange-Correlation Energy =       0.0000000000000000
    Empirical Dispersion Energy =           0.0000000000000000
    PCM Polarization Energy =               0.0000000000000000
    EFP Energy =                            0.0000000000000000
    Total Energy =                       -388.4182687552199695
    Molecular point group: c1
  Basis Set: CC-PVTZ
  Basis Set:

  -Total Gradient:
     Atom            X                  Y                   Z
    ------   -----------------  -----------------  -----------------
       1        0.000040201583     0.000010037895    -0.000051589052
       2        0.000011980908    -0.000063184888     0.000094882415
       3       -0.000093847872     0.000073430448    -0.000027539384
       4        0.000107053019     0.000013163998    -0.000054536010
       5       -0.000027185889    -0.000004491420     0.000009095811
       6        0.000006191319    -0.000016299876    -0.000029564778
       7       -0.000061331550    -0.000011363502     0.000004094611
       8       -0.000025567792     0.000005684731     0.000007418803
       9        0.000027979347    -0.000011507761     0.000025783588
      10       -0.002104632910    -0.003562429909    -0.002422121372
      11       -0.000023792980     0.000000412805    -0.000033552908
      12       -0.000000406908    -0.000003968314     0.000012266324
      13        0.002134272800     0.004467508122     0.003414019445
      14       -0.000034138662     0.000022260782     0.000010387455
      15        0.000043470804     0.000007506391     0.000000663235
      16        0.004973160614     0.002860463867    -0.000078497450
      17        0.000019675331     0.000003711791     0.000010096583
      18       -0.000019949886    -0.000003277761    -0.000018818412
      19       -0.000008292000    -0.000015428948     0.000013268902
      20       -0.004904551249    -0.003787732884    -0.000910199089
      21       -0.000033932968    -0.000022974556     0.000012751418
      22       -0.000008950171     0.000029715615    -0.000025902885
      23        0.000011104695     0.000029584459     0.000003142380
      24       -0.000007296557    -0.000002703107     0.000038570512
      25        0.000005348554    -0.000004857146     0.000002896151
      26       -0.000029297463     0.000008283488    -0.000012896844
      27        0.000002735882    -0.000021544324     0.000005880552

  **** Optimization is complete! (in 13 steps) ****
    Final optimized geometry and variables:
    Molecular point group: c1

    Geometry (in Angstrom), charge = 0, multiplicity = 1:

    H           -2.208730511988    -2.129517837747     0.047273312385
    O           -2.492073626809    -2.133100820096     0.942484614899
    C           -1.408078869644    -2.396592974089     1.793642838477
    C           -0.433821820854    -1.234087887077     1.912880795296
    H           -1.838528178205    -2.609342366929     2.762900699024
    H           -0.881925603101    -3.292960327330     1.470956004366
    C            0.295456051464    -0.892648403028     0.615466784942
    H           -0.977495324109    -0.363518292710     2.267466343144
    H            0.294270983624    -1.485661003687     2.680450739554
    C            1.312588658397     0.234782499252     0.792398151685
    H           -0.427906032107    -0.624280052414    -0.144034573245
    H            0.815079041788    -1.777363702115     0.252530383923
    C            2.119939786044     0.601123887958    -0.462524929279
    H            0.816826227824     1.114339891189     1.193364016187
    H            2.016102582106    -0.077628558691     1.558951460345
    C            1.520877874320     1.621008468997    -1.457555798942
    H            3.085986004707     0.982745252139    -0.151884336583
    H            2.332326526831    -0.322127796077    -0.995215815724
    C           -0.002816444851     1.691999724201    -1.583071770879
    H            1.891402152028     1.374023208735    -2.447865101654
    H            1.886426378417     2.613669082551    -1.214028214846
    C           -0.442959328665     2.780764587824    -2.557737262109
    H           -0.387571984222     0.737712167737    -1.927935128555
    H           -0.458505903452     1.879408019179    -0.617218602254
    H           -0.030902118206     2.611842512048    -3.547171992908
    H           -1.522590596998     2.811251020717    -2.650147470585
    H           -0.111580020020     3.759270691044    -2.226478977393

  Mulliken Charges: (a.u.)
   Center  Symbol    Alpha    Beta     Spin     Total
       1     H     0.39210  0.39210  0.00000  0.21579
       2     O     4.20548  4.20548  0.00000 -0.41095
       3     C     2.97973  2.97973  0.00000  0.04054
       4     C     3.09073  3.09073  0.00000 -0.18147
       5     H     0.44868  0.44868  0.00000  0.10263
       6     H     0.46928  0.46928  0.00000  0.06144
       7     C     3.10303  3.10303  0.00000 -0.20606
       8     H     0.45104  0.45104  0.00000  0.09792
       9     H     0.45445  0.45445  0.00000  0.09111
      10     C     3.10856  3.10856  0.00000 -0.21712
      11     H     0.45190  0.45190  0.00000  0.09619
      12     H     0.45247  0.45247  0.00000  0.09506
      13     C     3.10299  3.10299  0.00000 -0.20598
      14     H     0.44884  0.44884  0.00000  0.10232
      15     H     0.44403  0.44403  0.00000  0.11193
      16     C     3.08592  3.08592  0.00000 -0.17185
      17     H     0.44361  0.44361  0.00000  0.11277
      18     H     0.45562  0.45562  0.00000  0.08875
      19     C     3.09447  3.09447  0.00000 -0.18894
      20     H     0.45137  0.45137  0.00000  0.09726
      21     H     0.45228  0.45228  0.00000  0.09543
      22     C     3.15145  3.15145  0.00000 -0.30291
      23     H     0.45571  0.45571  0.00000  0.08859
      24     H     0.44900  0.44900  0.00000  0.10200
      25     H     0.45498  0.45498  0.00000  0.09004
      26     H     0.44758  0.44758  0.00000  0.10484
      27     H     0.45468  0.45468  0.00000  0.09065

   Total alpha = 37.00000, Total beta = 37.00000, Total charge = -0.00000

*** Psi4 exiting successfully. Buy a developer a beer!
