  ==> Input File <==

--------------------------------------------------------------------------
set {
	reference rhf
	basis cc-pvtz
}

set_num_threads( 4 )
memory 2 gb

molecule MOL {
0 1

H	 -2.266619	 1.169943	 0.000098
O	 -1.438073	 1.611259	 0.000041
C	 -0.408657	 0.734701	 0.000005
C	 -0.720670	 -0.595037	 -0.214129
C	 0.906286	 1.136411	 0.204130
H	 -1.747117	 -0.864818	 -0.367605
C	 0.279729	 -1.543721	 -0.227180
C	 1.890930	 0.161901	 0.185812
C	 1.245135	 2.587909	 0.437658
H	 0.029992	 -2.574146	 -0.394017
C	 1.594376	 -1.169593	 -0.026773
H	 2.912182	 0.456218	 0.341983
H	 0.755489	 2.978371	 1.325411
H	 2.309277	 2.713886	 0.576119
H	 0.952966	 3.210418	 -0.403440
H	 2.377817	 -1.902063	 -0.035583

	symmetry c1
}
set optking {
	frozen_dihedral = ("
		4 3 2 1
	")
}

ee = optimize('scf')
oeprop('DIPOLE', 'QUADRUPOLE', 'MULLIKEN_CHARGES')
f=open( 'psi4out.xyz', 'w' )
f.write( "16  " )
f.write( str(ee) + "\n" )
f.write( MOL.save_string_xyz() )
f.close()
--------------------------------------------------------------------------

    Molecular point group: c1
  Charge       = 0
  Multiplicity = 1
  Basis Set: CC-PVTZ
  Basis Set:
  @DF-RHF Final Energy:  -344.71785090366080
    Total Energy =                       -344.7178509036605760
    Molecular point group: c1
  Basis Set: CC-PVTZ
  Basis Set:
  Basis Set: CC-PVTZ
  Basis Set:
  @DF-RHF Final Energy:  -344.72003705135950
    Total Energy =                       -344.7200370513595544
  Basis Set: CC-PVTZ
  Basis Set:
  Basis Set: CC-PVTZ
  Basis Set:
  @DF-RHF Final Energy:  -344.72024829375323
    Total Energy =                       -344.7202482937531158
  Basis Set: CC-PVTZ
  Basis Set:
  Basis Set: CC-PVTZ
  Basis Set:
  @DF-RHF Final Energy:  -344.72026759906680
    Total Energy =                       -344.7202675990663465
  Basis Set: CC-PVTZ
  Basis Set:
  Basis Set: CC-PVTZ
  Basis Set:
  @DF-RHF Final Energy:  -344.72027250619050
    Total Energy =                       -344.7202725061905539
  Basis Set: CC-PVTZ
  Basis Set:
  Charge       = 0
  Multiplicity = 1
  Basis Set: CC-PVTZ
  Basis Set:

    Orbital Energies (a.u.)
    -----------------------

    Doubly Occupied:

       1A    -20.583080     2A    -11.291469     3A    -11.228934
       4A    -11.228761     5A    -11.225935     6A    -11.223628
       7A    -11.216783     8A    -11.212869     9A     -1.413174
      10A     -1.152869    11A     -1.047521    12A     -1.006252
      13A     -0.932006    14A     -0.848759    15A     -0.802498
      16A     -0.735813    17A     -0.675802    18A     -0.653725
      19A     -0.607516    20A     -0.601312    21A     -0.580657
      22A     -0.561078    23A     -0.551861    24A     -0.541861
      25A     -0.502352    26A     -0.483672    27A     -0.478117
      28A     -0.333824    29A     -0.308621

  @DF-RHF Final Energy:  -344.72027258478039

   => Energetics <=

    Nuclear Repulsion Energy =            351.0201111814660067
    One-Electron Energy =               -1163.4192705364202993
    Two-Electron Energy =                 467.6788867701743015
    DFT Exchange-Correlation Energy =       0.0000000000000000
    Empirical Dispersion Energy =           0.0000000000000000
    PCM Polarization Energy =               0.0000000000000000
    EFP Energy =                            0.0000000000000000
    Total Energy =                       -344.7202725847799343
    Molecular point group: c1
  Basis Set: CC-PVTZ
  Basis Set:

  -Total Gradient:
     Atom            X                  Y                   Z
    ------   -----------------  -----------------  -----------------
       1        0.000007804816    -0.000013595779     0.000956362031
       2        0.000028859380     0.000081191502    -0.001537275245
       3       -0.000110335962    -0.000174778375     0.001230373394
       4        0.000068491553     0.000106089615    -0.000689108666
       5       -0.000007392899    -0.000002030977     0.000028418481
       6        0.000000637043    -0.000001968951     0.000002497755
       7       -0.000010309953    -0.000011121351     0.000006504692
       8       -0.000000330847    -0.000006930104     0.000012293500
       9        0.000012782755     0.000004389092    -0.000004060969
      10        0.000005381631     0.000001196700     0.000000738565
      11        0.000013011828     0.000021894542    -0.000003999262
      12        0.000000590252     0.000005047986    -0.000002852122
      13       -0.000001574647    -0.000001463920    -0.000000267000
      14       -0.000002268357     0.000000370025     0.000000256380
      15       -0.000001803392    -0.000002284954     0.000001162234
      16       -0.000003543203    -0.000006005057    -0.000001043768

  **** Optimization is complete! (in 6 steps) ****
    Final optimized geometry and variables:
    Molecular point group: c1

    Geometry (in Angstrom), charge = 0, multiplicity = 1:

    H           -2.600448507830     0.859161358508    -0.038731885128
    O           -1.742269033766     1.242210478752    -0.035128988528
    C           -0.787752742728     0.283036883270    -0.046714656125
    C           -1.093622366263    -1.044425880704    -0.265024063296
    C            0.527751835428     0.693414135277     0.153309860889
    H           -2.115847705572    -1.336929922579    -0.425393525796
    C           -0.087330522100    -1.994408004169    -0.278704182517
    C            1.511780168550    -0.275013502849     0.130545194347
    C            0.842285838074     2.148094171850     0.383640208009
    H           -0.334331420518    -3.025224273836    -0.446687649230
    C            1.220345917048    -1.613249782565    -0.081379093668
    H            2.532460063297     0.022505778945     0.283853836460
    H            0.325402805422     2.525745311122     1.257649394340
    H            1.904931026214     2.289533503131     0.527563910149
    H            0.528050494132     2.754203597179    -0.457639807124
    H            2.008136710159    -2.341099482206    -0.091574072270

  Mulliken Charges: (a.u.)
   Center  Symbol    Alpha    Beta     Spin     Total
       1     H     0.38987  0.38987  0.00000  0.22026
       2     O     4.17160  4.17160  0.00000 -0.34321
       3     C     2.86321  2.86321  0.00000  0.27358
       4     C     3.13292  3.13292  0.00000 -0.26584
       5     C     2.99657  2.99657  0.00000  0.00685
       6     H     0.43683  0.43683  0.00000  0.12635
       7     C     3.07198  3.07198  0.00000 -0.14395
       8     C     3.08212  3.08212  0.00000 -0.16424
       9     C     3.14391  3.14391  0.00000 -0.28782
      10     H     0.42262  0.42262  0.00000  0.15476
      11     C     3.09099  3.09099  0.00000 -0.18198
      12     H     0.42519  0.42519  0.00000  0.14962
      13     H     0.44686  0.44686  0.00000  0.10628
      14     H     0.45416  0.45416  0.00000  0.09168
      15     H     0.44624  0.44624  0.00000  0.10752
      16     H     0.42493  0.42493  0.00000  0.15014

   Total alpha = 29.00000, Total beta = 29.00000, Total charge = -0.00000
