  ==> Input File <==

--------------------------------------------------------------------------
set {
	reference rhf
	basis cc-pvtz
}

set_num_threads( 4 )
memory 2 gb

molecule MOL {
0 1

O	 1.623282	 -0.405975	 -0.117407
C	 0.576499	 0.134701	 -0.003900
C	 -0.765656	 -0.550508	 -0.002152
O	 0.447441	 1.444383	 0.130449
C	 -1.945526	 0.411052	 0.000603
H	 -0.794329	 -1.203792	 -0.868145
H	 -0.791555	 -1.205429	 0.862701
C	 -3.282915	 -0.321280	 0.002596
H	 -1.880300	 1.059126	 -0.864925
H	 -1.877207	 1.057892	 0.866807
H	 -3.388495	 -0.952755	 -0.873419
H	 -4.107811	 0.380864	 0.004116
H	 -3.385717	 -0.953283	 0.878571
C	 1.632001	 2.215569	 0.140429
H	 2.269341	 1.924338	 0.962036
H	 1.318390	 3.240096	 0.257404
H	 2.173398	 2.094565	 -0.786010

	symmetry c1
}
set optking {
	frozen_dihedral = ("
		1 2 3 6
	")
}

ee = optimize('scf')
oeprop('DIPOLE', 'QUADRUPOLE', 'MULLIKEN_CHARGES')
f=open( 'psi4out.xyz', 'w' )
f.write( "17  " )
f.write( str(ee) + "\n" )
f.write( MOL.save_string_xyz() )
f.close()
--------------------------------------------------------------------------

    Molecular point group: c1
  Charge       = 0
  Multiplicity = 1
  Basis Set: CC-PVTZ
  Basis Set:
  @DF-RHF Final Energy:  -345.03139434042242
    Total Energy =                       -345.0313943404222528
    Molecular point group: c1
  Basis Set: CC-PVTZ
  Basis Set:
  Basis Set: CC-PVTZ
  Basis Set:
  @DF-RHF Final Energy:  -345.03215161782174
    Total Energy =                       -345.0321516178209436
  Basis Set: CC-PVTZ
  Basis Set:
  Basis Set: CC-PVTZ
  Basis Set:
  @DF-RHF Final Energy:  -345.03277390328407
    Total Energy =                       -345.0327739032842942
  Basis Set: CC-PVTZ
  Basis Set:
  Basis Set: CC-PVTZ
  Basis Set:
  @DF-RHF Final Energy:  -345.03282546475543
    Total Energy =                       -345.0328254647553194
  Basis Set: CC-PVTZ
  Basis Set:
  Basis Set: CC-PVTZ
  Basis Set:
  @DF-RHF Final Energy:  -345.03281410673054
    Total Energy =                       -345.0328141067307115
  Basis Set: CC-PVTZ
  Basis Set:
  Charge       = 0
  Multiplicity = 1
  Basis Set: CC-PVTZ
  Basis Set:

    Orbital Energies (a.u.)
    -----------------------

    Doubly Occupied:

       1A    -20.599800     2A    -20.529639     3A    -11.365328
       4A    -11.279780     5A    -11.234569     6A    -11.224397
       7A    -11.215071     8A     -1.473786     9A     -1.364433
      10A     -1.084071    11A     -0.998450    12A     -0.944224
      13A     -0.832219    14A     -0.777258    15A     -0.698903
      16A     -0.687341    17A     -0.674298    18A     -0.639102
      19A     -0.597243    20A     -0.572961    21A     -0.560004
      22A     -0.531047    23A     -0.523666    24A     -0.519734
      25A     -0.490293    26A     -0.485309    27A     -0.455684
      28A     -0.433957

  @DF-RHF Final Energy:  -345.03283196698294

   => Energetics <=

    Nuclear Repulsion Energy =            314.8337604421735705
    One-Electron Energy =               -1094.1480457040395322
    Two-Electron Energy =                 434.2814532948827946
    DFT Exchange-Correlation Energy =       0.0000000000000000
    Empirical Dispersion Energy =           0.0000000000000000
    PCM Polarization Energy =               0.0000000000000000
    EFP Energy =                            0.0000000000000000
    Total Energy =                       -345.0328319669831671
    Molecular point group: c1
  Basis Set: CC-PVTZ
  Basis Set:

  -Total Gradient:
     Atom            X                  Y                   Z
    ------   -----------------  -----------------  -----------------
       1       -0.000012805551    -0.000098237393     0.000254923815
       2        0.000006718372    -0.000007973103    -0.000398517457
       3        0.000163992140    -0.000210023478     0.000331069722
       4       -0.000040294235     0.000146134019     0.000020696783
       5        0.000059718670    -0.000014346780    -0.000064388021
       6       -0.000147602048     0.000203151085    -0.000146581863
       7       -0.000002009404    -0.000015675438     0.000008988615
       8       -0.000023182544    -0.000009104312    -0.000005172033
       9       -0.000013384645     0.000016167858     0.000002484537
      10        0.000036320123    -0.000019622083    -0.000002992460
      11        0.000002362524     0.000002733591     0.000002480222
      12       -0.000008414001    -0.000005547832     0.000002018289
      13        0.000005991847     0.000006328933     0.000001284512
      14       -0.000026974929    -0.000014746520    -0.000010715600
      15        0.000000974129     0.000007032251    -0.000001990724
      16       -0.000011859360     0.000001445721     0.000002054800
      17        0.000010448912     0.000012283481     0.000004356865

  **** Optimization is complete! (in 6 steps) ****
    Final optimized geometry and variables:
    Molecular point group: c1

    Geometry (in Angstrom), charge = 0, multiplicity = 1:

    O            1.806870136627    -0.856078851808    -0.132363362757
    C            0.788372182846    -0.259855328122    -0.028946811225
    C           -0.563591834363    -0.935717011106    -0.021529213605
    O            0.731181478782     1.052067062155     0.102550518898
    C           -1.793913897606    -0.035658597620    -0.019106455802
    H           -0.570589984574    -1.594479813982    -0.882163389575
    H           -0.563822351091    -1.585185862316     0.847836512135
    C           -3.086349412926    -0.845400043291    -0.026136578863
    H           -1.768478667154     0.617667277385    -0.883602244226
    H           -1.771742093562     0.609503713248     0.850600266602
    H           -3.150339760483    -1.477932907218    -0.905190041245
    H           -3.951611988819    -0.193466097512    -0.024551308760
    H           -3.153715728201    -1.486382469256     0.846611715340
    C            1.957793780925     1.755280970352     0.117266095747
    H            2.572827138900     1.429494211241     0.942689535552
    H            1.701772889549     2.796208656594     0.230207415961
    H            2.495902511721     1.600357682503    -0.805843864396

  Mulliken Charges: (a.u.)
   Center  Symbol    Alpha    Beta     Spin     Total
       1     O     4.20487  4.20487  0.00000 -0.40973
       2     C     2.81230  2.81230  0.00000  0.37540
       3     C     3.08909  3.08909  0.00000 -0.17819
       4     O     4.14023  4.14023  0.00000 -0.28045
       5     C     3.07890  3.07890  0.00000 -0.15781
       6     H     0.43822  0.43822  0.00000  0.12355
       7     H     0.44038  0.44038  0.00000  0.11924
       8     C     3.15264  3.15264  0.00000 -0.30528
       9     H     0.44924  0.44924  0.00000  0.10152
      10     H     0.44806  0.44806  0.00000  0.10387
      11     H     0.45459  0.45459  0.00000  0.09082
      12     H     0.44604  0.44604  0.00000  0.10792
      13     H     0.45476  0.45476  0.00000  0.09047
      14     C     3.03711  3.03711  0.00000 -0.07421
      15     H     0.45330  0.45330  0.00000  0.09340
      16     H     0.44702  0.44702  0.00000  0.10596
      17     H     0.45325  0.45325  0.00000  0.09350

   Total alpha = 28.00000, Total beta = 28.00000, Total charge = -0.00000
