  ==> Input File <==

--------------------------------------------------------------------------
set {
	reference rhf
	basis 6-31G*
}

set_num_threads( 4 )
memory 2 gb

molecule MOL {
0 1

H	 0.688985	 4.671892	 -0.765095
N	 -0.094453	 4.054453	 -0.857495
C	 0.250936	 2.712281	 -0.411619
H	 -0.345182	 4.048317	 -1.828025
C	 -0.969567	 1.799260	 -0.461797
H	 0.601948	 2.785578	 0.613212
H	 1.063069	 2.263847	 -0.989327
C	 -0.679275	 0.379305	 0.025956
H	 -1.758097	 2.247659	 0.135693
H	 -1.342496	 1.759666	 -1.484877
C	 -1.903357	 -0.536963	 -0.023547
H	 -0.303717	 0.418416	 1.047364
H	 0.117675	 -0.056602	 -0.574628
C	 -3.225172	 0.228290	 0.028445
H	 -1.867824	 -1.134999	 -0.931459
H	 -1.860449	 -1.239604	 0.805977
H	 -3.313397	 0.915643	 -0.808262
H	 -4.073500	 -0.448134	 -0.008893
H	 -3.306061	 0.809945	 0.942516

	symmetry c1
}
set optking {
	frozen_dihedral = ("
		12 8 11 15
	")
}

ee = optimize('scf')
oeprop('DIPOLE', 'QUADRUPOLE', 'MULLIKEN_CHARGES')
f=open( 'psi4out.xyz', 'w' )
f.write( "19  " )
f.write( str(ee) + "\n" )
f.write( MOL.save_string_xyz() )
f.close()
--------------------------------------------------------------------------

    Molecular point group: c1
  Charge       = 0
  Multiplicity = 1
  Basis Set: 6-31G*
  Basis Set:
  @DF-RHF Final Energy:  -251.34194098923928
    Total Energy =                       -251.3419409892392196
    Molecular point group: c1
  Basis Set: 6-31G*
  Basis Set:
  Basis Set: 6-31G*
  Basis Set:
  @DF-RHF Final Energy:  -251.34305887630327
    Total Energy =                       -251.3430588763031892
  Basis Set: 6-31G*
  Basis Set:
  Basis Set: 6-31G*
  Basis Set:
  @DF-RHF Final Energy:  -251.34509462607252
    Total Energy =                       -251.3450946260724095
  Basis Set: 6-31G*
  Basis Set:
  Basis Set: 6-31G*
  Basis Set:
  @DF-RHF Final Energy:  -251.34529929520727
    Total Energy =                       -251.3452992952074396
  Basis Set: 6-31G*
  Basis Set:
  Basis Set: 6-31G*
  Basis Set:
  @DF-RHF Final Energy:  -251.34531725060569
    Total Energy =                       -251.3453172506058877
  Basis Set: 6-31G*
  Basis Set:
  Basis Set: 6-31G*
  Basis Set:
  @DF-RHF Final Energy:  -251.34532573823796
    Total Energy =                       -251.3453257382381025
  Basis Set: 6-31G*
  Basis Set:
  Basis Set: 6-31G*
  Basis Set:
  @DF-RHF Final Energy:  -251.34533008290887
    Total Energy =                       -251.3453300829089017
  Basis Set: 6-31G*
  Basis Set:
  Charge       = 0
  Multiplicity = 1
  Basis Set: 6-31G*
  Basis Set:

    Orbital Energies (a.u.)
    -----------------------

    Doubly Occupied:

       1A    -15.532441     2A    -11.239680     3A    -11.214290
       4A    -11.212942     5A    -11.209263     6A    -11.206177
       7A     -1.176548     8A     -1.069779     9A     -0.994481
      10A     -0.904884    11A     -0.826177    12A     -0.771661
      13A     -0.662845    14A     -0.640712    15A     -0.606578
      16A     -0.596181    17A     -0.580509    18A     -0.534840
      19A     -0.526689    20A     -0.503975    21A     -0.489505
      22A     -0.458868    23A     -0.451199    24A     -0.447817
      25A     -0.381107

  @DF-RHF Final Energy:  -251.34532989161170

   => Energetics <=

    Nuclear Repulsion Energy =            249.2701929303769361
    One-Electron Energy =                -832.7527522720719162
    Two-Electron Energy =                 332.1372294500832254
    DFT Exchange-Correlation Energy =       0.0000000000000000
    Empirical Dispersion Energy =           0.0000000000000000
    PCM Polarization Energy =               0.0000000000000000
    EFP Energy =                            0.0000000000000000
    Total Energy =                       -251.3453298916116978
    Molecular point group: c1
  Basis Set: 6-31G*
  Basis Set:

  -Total Gradient:
     Atom            X                  Y                   Z
    ------   -----------------  -----------------  -----------------
       1       -0.000000266784     0.000014016670    -0.000007772381
       2        0.000012075773     0.000015859986    -0.000010476984
       3       -0.000007658872    -0.000015087877     0.000005860382
       4        0.000000930257     0.000005571233    -0.000001307790
       5        0.000019934011     0.000003891929     0.000014413907
       6        0.000000550052    -0.000003460082    -0.000000865185
       7        0.000002613529    -0.000001063622     0.000004301522
       8       -0.003970123233     0.004698099380     0.002177450761
       9        0.000040383101     0.000000770553    -0.000005559317
      10       -0.000015935795    -0.000007226848     0.000000878570
      11       -0.003130842233     0.004208510768    -0.003912359612
      12        0.003856344564    -0.004591256897    -0.001221199946
      13        0.000002352222     0.000028816927     0.000015366888
      14       -0.000019578428    -0.000031600188     0.000024526055
      15        0.003219306547    -0.004322247955     0.002939769513
      16       -0.000008768278     0.000016483956    -0.000011058784
      17        0.000021635554     0.000014650639     0.000002979743
      18       -0.000008087319    -0.000007780351    -0.000015064686
      19       -0.000014864667    -0.000026948216     0.000000117343

  **** Optimization is complete! (in 8 steps) ****
    Final optimized geometry and variables:
    Molecular point group: c1

    Geometry (in Angstrom), charge = 0, multiplicity = 1:

    H            1.929670075258     3.169371156618    -0.490825441545
    N            1.118813079263     2.589002728157    -0.586975453725
    C            1.393094402956     1.237733578282    -0.119346330375
    H            0.881887315322     2.582130530064    -1.560986707784
    C            0.129564454681     0.384771681588    -0.172767060513
    H            1.734613305946     1.307667767070     0.909030694487
    H            2.189499678321     0.743125538763    -0.680732214881
    C            0.359655680575    -1.034251225694     0.347877327384
    H           -0.642106532356     0.889326158423     0.398038200754
    H           -0.224486309370     0.341076308646    -1.202495125039
    C           -0.835629301345    -2.007318639127     0.241968491697
    H            0.715278738111    -1.007949272237     1.375786938189
    H            1.187119336971    -1.471863121023    -0.208252616166
    C           -2.228219469039    -1.392133857881     0.376627745427
    H           -0.759536148633    -2.576378497974    -0.681157832445
    H           -0.720247215181    -2.754154079404     1.024355424425
    H           -2.447014456729    -0.696106725354    -0.425873465356
    H           -2.986798310770    -2.168516172403     0.352929888235
    H           -2.334734598560    -0.857781849058     1.316333751699

  Mulliken Charges: (a.u.)
   Center  Symbol    Alpha    Beta     Spin     Total
       1     H     0.33248  0.33248  0.00000  0.33504
       2     N     3.92199  3.92199  0.00000 -0.84399
       3     C     3.05997  3.05997  0.00000 -0.11994
       4     H     0.33543  0.33543  0.00000  0.32914
       5     C     3.15421  3.15421  0.00000 -0.30842
       6     H     0.42081  0.42081  0.00000  0.15837
       7     H     0.43470  0.43470  0.00000  0.13060
       8     C     3.15891  3.15891  0.00000 -0.31783
       9     H     0.41030  0.41030  0.00000  0.17939
      10     H     0.42762  0.42762  0.00000  0.14477
      11     C     3.15300  3.15300  0.00000 -0.30600
      12     H     0.42207  0.42207  0.00000  0.15586
      13     H     0.42344  0.42344  0.00000  0.15312
      14     C     3.24195  3.24195  0.00000 -0.48390
      15     H     0.42221  0.42221  0.00000  0.15558
      16     H     0.42159  0.42159  0.00000  0.15682
      17     H     0.41886  0.41886  0.00000  0.16229
      18     H     0.41980  0.41980  0.00000  0.16039
      19     H     0.42065  0.42065  0.00000  0.15869

   Total alpha = 25.00000, Total beta = 25.00000, Total charge = -0.00000
