  ==> Input File <==

--------------------------------------------------------------------------
set {
	reference rhf
	basis cc-pvtz
}

set_num_threads( 4 )
memory 2 gb

molecule MOL {
0 1

H	 -2.429082	 -1.777509	 0.389017
C	 -1.660750	 -1.052006	 0.223951
C	 -1.962645	 0.331676	 0.015537
C	 -0.375541	 -1.413862	 0.205768
H	 -2.986565	 0.655203	 0.024202
C	 -0.983045	 1.217848	 -0.188568
H	 -0.070621	 -2.430829	 0.353901
N	 0.640204	 -0.530428	 -0.000115
H	 -1.171539	 2.259519	 -0.347795
C	 0.417096	 0.819759	 -0.207595
C	 2.006991	 -1.033007	 -0.000020
O	 1.324544	 1.585522	 -0.387558
H	 2.182444	 -1.636914	 -0.880881
H	 2.678769	 -0.195442	 -0.002236
H	 2.183828	 -1.633244	 0.883082

	symmetry c1
}
set optking {
	frozen_dihedral = ("
		10 8 11 13
	")
}

ee = optimize('scf')
oeprop('DIPOLE', 'QUADRUPOLE', 'MULLIKEN_CHARGES')
f=open( 'psi4out.xyz', 'w' )
f.write( "15  " )
f.write( str(ee) + "\n" )
f.write( MOL.save_string_xyz() )
f.close()
--------------------------------------------------------------------------

    Molecular point group: c1
  Charge       = 0
  Multiplicity = 1
  Basis Set: CC-PVTZ
  Basis Set:
  @DF-RHF Final Energy:  -360.72255854117122
    Total Energy =                       -360.7225585411708266
    Molecular point group: c1
  Basis Set: CC-PVTZ
  Basis Set:
  Basis Set: CC-PVTZ
  Basis Set:
  @DF-RHF Final Energy:  -360.72257537038877
    Total Energy =                       -360.7225753703889950
  Basis Set: CC-PVTZ
  Basis Set:
  Basis Set: CC-PVTZ
  Basis Set:
  @DF-RHF Final Energy:  -360.72257033163902
    Total Energy =                       -360.7225703316389627
  Basis Set: CC-PVTZ
  Basis Set:
  Charge       = 0
  Multiplicity = 1
  Basis Set: CC-PVTZ
  Basis Set:

    Orbital Energies (a.u.)
    -----------------------

    Doubly Occupied:

       1A    -20.501773     2A    -15.616481     3A    -11.339568
       4A    -11.293217     5A    -11.263538     6A    -11.258211
       7A    -11.230701     8A    -11.228381     9A     -1.390539
      10A     -1.285772    11A     -1.118804    12A     -1.028876
      13A     -0.972310    14A     -0.875755    15A     -0.838564
      16A     -0.719125    17A     -0.703093    18A     -0.663399
      19A     -0.652652    20A     -0.625207    21A     -0.611934
      22A     -0.574095    23A     -0.558061    24A     -0.550525
      25A     -0.529368    26A     -0.482788    27A     -0.420133
      28A     -0.410793    29A     -0.311011

  @DF-RHF Final Energy:  -360.72257937904516

   => Energetics <=

    Nuclear Repulsion Energy =            358.4499753120113041
    One-Electron Energy =               -1200.2357591594798123
    Two-Electron Energy =                 481.0632044684236917
    DFT Exchange-Correlation Energy =       0.0000000000000000
    Empirical Dispersion Energy =           0.0000000000000000
    PCM Polarization Energy =               0.0000000000000000
    EFP Energy =                            0.0000000000000000
    Total Energy =                       -360.7225793790448733
    Molecular point group: c1
  Basis Set: CC-PVTZ
  Basis Set:

  -Total Gradient:
     Atom            X                  Y                   Z
    ------   -----------------  -----------------  -----------------
       1        0.000002756987     0.000002352896     0.000013887450
       2        0.000007803683    -0.000001003887    -0.000010184475
       3        0.000002762584     0.000005375729    -0.000003452136
       4       -0.000008285240    -0.000026303676    -0.000007212917
       5        0.000002509626     0.000004737812     0.000000534660
       6        0.000007710674     0.000008649678     0.000001502066
       7        0.000000139866     0.000004099799     0.000003703230
       8       -0.000079081387    -0.000126920336    -0.000305887196
       9       -0.000006370897     0.000003991926    -0.000008094719
      10        0.000012840088    -0.000007241967     0.000261077301
      11        0.000139161870     0.000317756417    -0.000105756322
      12        0.000005293082     0.000048684231    -0.000001876984
      13       -0.000081248197    -0.000238376705     0.000162997048
      14        0.000011313291    -0.000003710388     0.000003628351
      15       -0.000017306029     0.000007908467    -0.000004865356

  **** Optimization is complete! (in 4 steps) ****
    Final optimized geometry and variables:
    Molecular point group: c1

    Geometry (in Angstrom), charge = 0, multiplicity = 1:

    H           -2.428711974239    -1.773930975028     0.430963661219
    C           -1.660038496249    -1.048224829285     0.268330926536
    C           -1.961338958601     0.336276359664     0.063595438043
    C           -0.374781115592    -1.410327267122     0.253491612421
    H           -2.985152941265     0.660156982162     0.072263422714
    C           -0.981246425015     1.222711131915    -0.136605222701
    H           -0.070702741438    -2.427542959859     0.401227099429
    N            0.641545037296    -0.526196335192     0.053916418192
    H           -1.168968750511     2.264897648624    -0.293904037235
    C            0.418518912804     0.823034983326    -0.159433171826
    C            2.008904281842    -1.026861605922     0.047778779745
    O            1.326360678712     1.586164935209    -0.347598021249
    H            2.186068594472    -1.636487582254    -0.829422113397
    H            2.680920798140    -0.189337648989     0.038268075342
    H            2.184585515138    -1.622297530875     0.933616277044

  Mulliken Charges: (a.u.)
   Center  Symbol    Alpha    Beta     Spin     Total
       1     H     0.41409  0.41409  0.00000  0.17181
       2     C     3.10219  3.10219  0.00000 -0.20437
       3     C     3.06192  3.06192  0.00000 -0.12384
       4     C     3.03296  3.03296  0.00000 -0.06592
       5     H     0.41834  0.41834  0.00000  0.16333
       6     C     3.11616  3.11616  0.00000 -0.23232
       7     H     0.42058  0.42058  0.00000  0.15884
       8     N     3.51261  3.51261  0.00000 -0.02522
       9     H     0.40888  0.40888  0.00000  0.18223
      10     C     2.84550  2.84550  0.00000  0.30899
      11     C     3.10881  3.10881  0.00000 -0.21762
      12     O     4.23659  4.23659  0.00000 -0.47318
      13     H     0.44816  0.44816  0.00000  0.10368
      14     H     0.42126  0.42126  0.00000  0.15748
      15     H     0.45194  0.45194  0.00000  0.09612

   Total alpha = 29.00000, Total beta = 29.00000, Total charge =  0.00000
