  ==> Input File <==

--------------------------------------------------------------------------
set {
	reference rhf
	basis 6-31G*
}

set_num_threads( 4 )
memory 2 gb

molecule MOL {
0 1

H	 -1.352445	 1.300131	 -0.345257
C	 -0.790252	 0.431209	 0.000000
N	 0.538815	 0.649616	 0.000000
O	 -1.332048	 -0.581515	 0.331746
C	 1.521968	 -0.411503	 0.000000
H	 0.852804	 1.592852	 0.000000
H	 2.150599	 -0.357004	 -0.881901
H	 0.999455	 -1.354525	 0.000000
H	 2.150599	 -0.357004	 0.881901

	symmetry c1
}
set optking {
	frozen_dihedral = ("
		1 2 3 6
	")
}

ee = optimize('scf')
oeprop('DIPOLE', 'QUADRUPOLE', 'MULLIKEN_CHARGES')
f=open( 'psi4out.xyz', 'w' )
f.write( "9  " )
f.write( str(ee) + "\n" )
f.write( MOL.save_string_xyz() )
f.close()
--------------------------------------------------------------------------

    Molecular point group: c1
  Charge       = 0
  Multiplicity = 1
  Basis Set: 6-31G*
  Basis Set:
  @DF-RHF Final Energy:  -207.95638224581046
    Total Energy =                       -207.9563822458103743
    Molecular point group: c1
  Basis Set: 6-31G*
  Basis Set:
  Basis Set: 6-31G*
  Basis Set:
  @DF-RHF Final Energy:  -207.95725086115294
    Total Energy =                       -207.9572508611528576
  Basis Set: 6-31G*
  Basis Set:
  Basis Set: 6-31G*
  Basis Set:
  @DF-RHF Final Energy:  -207.95882441046427
    Total Energy =                       -207.9588244104643309
  Basis Set: 6-31G*
  Basis Set:
  Basis Set: 6-31G*
  Basis Set:
  @DF-RHF Final Energy:  -207.95955521261189
    Total Energy =                       -207.9595552126119742
  Basis Set: 6-31G*
  Basis Set:
  @DF-RHF Final Energy:  -207.96006968334763
    Total Energy =                       -207.9600696833477400
  @DF-RHF Final Energy:  -207.96016455240664
    Total Energy =                       -207.9601645524066384
  @DF-RHF Final Energy:  -207.96035213640272
    Total Energy =                       -207.9603521364026619
  @DF-RHF Final Energy:  -207.96051764064242
    Total Energy =                       -207.9605176406424789
  @DF-RHF Final Energy:  -207.96057916114262
    Total Energy =                       -207.9605791611425332
  @DF-RHF Final Energy:  -207.96058723477398
    Total Energy =                       -207.9605872347740387
  @DF-RHF Final Energy:  -207.96059356675872
    Total Energy =                       -207.9605935667588312
  Basis Set: 6-31G*
  Basis Set:
  @DF-RHF Final Energy:  -207.96060981602719
    Total Energy =                       -207.9606098160271870
  Basis Set: 6-31G*
  Basis Set:
  Basis Set: 6-31G*
  Basis Set:
  @DF-RHF Final Energy:  -207.96063722457762
    Total Energy =                       -207.9606372245776242
  Basis Set: 6-31G*
  Basis Set:
  Basis Set: 6-31G*
  Basis Set:
  @DF-RHF Final Energy:  -207.96063885635169
    Total Energy =                       -207.9606388563516930
  Basis Set: 6-31G*
  Basis Set:
  Charge       = 0
  Multiplicity = 1
  Basis Set: 6-31G*
  Basis Set:

    Orbital Energies (a.u.)
    -----------------------

    Doubly Occupied:

       1A    -20.529953     2A    -15.589987     3A    -11.344291
       4A    -11.259931     5A     -1.392456     6A     -1.236078
       7A     -0.966124     8A     -0.806800     9A     -0.745482
      10A     -0.642579    11A     -0.628334    12A     -0.590752
      13A     -0.555522    14A     -0.534389    15A     -0.426655
      16A     -0.394209

  @DF-RHF Final Energy:  -207.96063889954280

   => Energetics <=

    Nuclear Repulsion Energy =            122.6935549655297422
    One-Electron Energy =                -526.0213057799087437
    Two-Electron Energy =                 195.3671119148362436
    DFT Exchange-Correlation Energy =       0.0000000000000000
    Empirical Dispersion Energy =           0.0000000000000000
    PCM Polarization Energy =               0.0000000000000000
    EFP Energy =                            0.0000000000000000
    Total Energy =                       -207.9606388995427437
    Molecular point group: c1
  Basis Set: 6-31G*
  Basis Set:

  -Total Gradient:
     Atom            X                  Y                   Z
    ------   -----------------  -----------------  -----------------
       1       -0.000474133287    -0.000737243244    -0.001956408897
       2        0.000820190502     0.000951291606     0.003318514961
       3       -0.000988411343    -0.000219287152    -0.003618288082
       4        0.000005913027     0.000009999758    -0.000003216041
       5       -0.000017069203    -0.000018263587    -0.000029174225
       6        0.000651152182     0.000015622151     0.002287433625
       7       -0.000003803744     0.000002406212     0.000000597812
       8        0.000001991849    -0.000001757342     0.000000106460
       9        0.000004170019    -0.000002768398     0.000000434386

  **** Optimization is complete! (in 15 steps) ****
    Final optimized geometry and variables:
    Molecular point group: c1

    Geometry (in Angstrom), charge = 0, multiplicity = 1:

    H           -1.387901165857     1.330434631203    -0.184051044332
    C           -0.785344686860     0.440786892876     0.005454814665
    N            0.504754647722     0.594096722697    -0.366112398756
    O           -1.257731191375    -0.563725432870     0.446408121211
    C            1.482446926930    -0.443085921674    -0.105925248339
    H            0.836812777675     1.526718422759    -0.466415470057
    H            2.375320812065    -0.234967004322    -0.680420504947
    H            1.079773056602    -1.395321015685    -0.416381711662
    H            1.743586417107    -0.507347145228     0.945626044417

  Mulliken Charges: (a.u.)
   Center  Symbol    Alpha    Beta     Spin     Total
       1     H     0.42575  0.42575  0.00000  0.14850
       2     C     2.75007  2.75007  0.00000  0.49987
       3     N     3.86970  3.86970  0.00000 -0.73940
       4     O     4.27963  4.27963  0.00000 -0.55927
       5     C     3.14194  3.14194  0.00000 -0.28388
       6     H     0.31101  0.31101  0.00000  0.37799
       7     H     0.41432  0.41432  0.00000  0.17135
       8     H     0.39519  0.39519  0.00000  0.20962
       9     H     0.41239  0.41239  0.00000  0.17521

   Total alpha = 16.00000, Total beta = 16.00000, Total charge = -0.00000
