  ==> Input File <==

--------------------------------------------------------------------------
set {
	reference rhf
	basis 6-31G*
}

set_num_threads( 1 )
memory 2 gb

molecule MOL {
0 1

O	 -2.042549	 -1.228399	 -0.269030
C	 -1.653912	 -0.146171	 0.050137
C	 -0.332303	 0.024011	 0.778412
C	 -2.438579	 1.106236	 -0.272369
C	 -0.498179	 0.921690	 2.014750
H	 0.067201	 -0.942163	 1.073855
H	 0.366943	 0.482886	 0.088187
C	 0.817768	 1.144499	 2.761524
H	 -1.225772	 0.481335	 2.694292
H	 -0.907024	 1.876203	 1.697115
C	 0.657423	 2.044125	 3.986338
H	 1.226349	 0.184206	 3.068647
H	 1.544517	 1.583907	 2.082316
H	 -0.038688	 1.614289	 4.700986
H	 0.280817	 3.023481	 3.706208
H	 1.606123	 2.186891	 4.493894
H	 -3.277823	 0.863061	 -0.908988
H	 -1.806773	 1.843019	 -0.759671
H	 -2.802853	 1.554979	 0.648059

	symmetry c1
}
set optking {
	frozen_dihedral = ("
		11 8 5 9,
		9 5 3 2
	")
}

ee = energy('scf')
oeprop('DIPOLE', 'QUADRUPOLE', 'MULLIKEN_CHARGES')
f=open( 'psi4out.xyz', 'w' )
f.write( "19  " )
f.write( str(ee) + "\n" )
f.write( MOL.save_string_xyz() )
f.close()
--------------------------------------------------------------------------

    Molecular point group: c1

    Geometry (in Angstrom), charge = 0, multiplicity = 1:

       Center              X                  Y                   Z               Mass
    ------------   -----------------  -----------------  -----------------  -----------------
           O         -1.252754149706    -1.791419678009    -1.570714106071    15.994914619560
           C         -0.864117149706    -0.709191678009    -1.251547106071    12.000000000000
           C          0.457491850294    -0.539009678009    -0.523272106071    12.000000000000
           C         -1.648784149706     0.543215321991    -1.574053106071    12.000000000000
           C          0.291615850294     0.358669321991     0.713065893929    12.000000000000
           H          0.856995850294    -1.505183678009    -0.227829106071     1.007825032070
           H          1.156737850294    -0.080134678009    -1.213497106071     1.007825032070
           C          1.607562850294     0.581478321991     1.459839893929    12.000000000000
           H         -0.435977149706    -0.081685678009     1.392607893929     1.007825032070
           H         -0.117229149706     1.313182321991     0.395430893929     1.007825032070
           C          1.447217850294     1.481104321991     2.684653893929    12.000000000000
           H          2.016143850294    -0.378814678009     1.766962893929     1.007825032070
           H          2.334311850294     1.020886321991     0.780631893929     1.007825032070
           H          0.751106850294     1.051268321991     3.399301893929     1.007825032070
           H          1.070611850294     2.460460321991     2.404523893929     1.007825032070
           H          2.395917850294     1.623870321991     3.192209893929     1.007825032070
           H         -2.488028149706     0.300040321991    -2.210672106071     1.007825032070
           H         -1.016978149706     1.279998321991    -2.061355106071     1.007825032070
           H         -2.013058149706     0.991958321991    -0.653625106071     1.007825032070

  Charge       = 0
  Multiplicity = 1
  Basis Set: 6-31G*
  Basis Set:

    Orbital Energies (a.u.)
    -----------------------

    Doubly Occupied:

       1A    -20.547041     2A    -11.324173     3A    -11.232020
       4A    -11.230101     5A    -11.228602     6A    -11.226680
       7A    -11.216962     8A     -1.392347     9A     -1.095920
      10A     -1.030779    11A     -0.981592    12A     -0.893200
      13A     -0.809900    14A     -0.733619    15A     -0.664088
      16A     -0.648151    17A     -0.625857    18A     -0.614418
      19A     -0.581857    20A     -0.576327    21A     -0.553446
      22A     -0.536204    23A     -0.513979    24A     -0.498208
      25A     -0.486193    26A     -0.477874    27A     -0.470961
      28A     -0.396248

  @DF-RHF Final Energy:  -309.06281019290640

   => Energetics <=

    Nuclear Repulsion Energy =            302.3796591302684078
    One-Electron Energy =               -1017.7112984625889567
    Two-Electron Energy =                 406.2688291394142652
    DFT Exchange-Correlation Energy =       0.0000000000000000
    Empirical Dispersion Energy =           0.0000000000000000
    PCM Polarization Energy =               0.0000000000000000
    EFP Energy =                            0.0000000000000000
    Total Energy =                       -309.0628101929062268

  Mulliken Charges: (a.u.)
   Center  Symbol    Alpha    Beta     Spin     Total
       1     O     4.26186  4.26186  0.00000 -0.52373
       2     C     2.73166  2.73166  0.00000  0.53668
       3     C     3.20292  3.20292  0.00000 -0.40585
       4     C     3.29351  3.29351  0.00000 -0.58702
       5     C     3.16800  3.16800  0.00000 -0.33599
       6     H     0.39906  0.39906  0.00000  0.20188
       7     H     0.41018  0.41018  0.00000  0.17963
       8     C     3.15100  3.15100  0.00000 -0.30200
       9     H     0.41510  0.41510  0.00000  0.16979
      10     H     0.41853  0.41853  0.00000  0.16294
      11     C     3.24017  3.24017  0.00000 -0.48034
      12     H     0.41896  0.41896  0.00000  0.16207
      13     H     0.42151  0.42151  0.00000  0.15698
      14     H     0.41996  0.41996  0.00000  0.16008
      15     H     0.42125  0.42125  0.00000  0.15749
      16     H     0.41688  0.41688  0.00000  0.16624
      17     H     0.39509  0.39509  0.00000  0.20982
      18     H     0.41000  0.41000  0.00000  0.18001
      19     H     0.40434  0.40434  0.00000  0.19132

   Total alpha = 28.00000, Total beta = 28.00000, Total charge =  0.00000
