  ==> Input File <==

--------------------------------------------------------------------------
set {
	reference rhf
	basis 6-31G*
}

set_num_threads( 1 )
memory 2 gb

molecule MOL {
0 1

O	 2.009191	 0.671872	 0.699141
C	 2.701189	 0.057885	 -0.047330
C	 2.965967	 0.408057	 -1.491650
O	 3.347903	 -1.046386	 0.304773
C	 2.251788	 1.680927	 -1.940947
H	 4.042026	 0.482310	 -1.609019
H	 2.660032	 -0.444875	 -2.092156
C	 2.425415	 1.992710	 -3.431296
H	 2.603928	 2.518599	 -1.346455
H	 1.194678	 1.580599	 -1.719869
C	 3.854633	 2.343221	 -3.855073
H	 1.774963	 2.828477	 -3.678538
H	 2.070214	 1.149475	 -4.021887
C	 3.955599	 2.752657	 -5.325844
H	 4.224275	 3.154579	 -3.229867
H	 4.515462	 1.497268	 -3.680028
C	 5.380128	 3.100121	 -5.761869
H	 3.306695	 3.607940	 -5.506540
H	 3.576134	 1.945941	 -5.951075
C	 5.471687	 3.511617	 -7.230878
H	 5.761222	 3.905419	 -5.137445
H	 6.029380	 2.244933	 -5.586069
H	 6.493113	 3.751559	 -7.509666
H	 4.859901	 4.386583	 -7.431747
H	 5.129530	 2.713478	 -7.883699
C	 4.728119	 -1.109107	 -0.004993
H	 4.882018	 -1.033965	 -1.071845
H	 5.068212	 -2.067527	 0.355250
H	 5.265056	 -0.311663	 0.488280

	symmetry c1
}
set optking {
	frozen_dihedral = ("
		21 17 14 11,
		17 14 11 15,
		15 11 8 5,
		6 3 5 9,
		11 8 5 9,
		2 4 26 27,
		6 3 2 1
	")
}

ee = energy('scf')
oeprop('DIPOLE', 'QUADRUPOLE', 'MULLIKEN_CHARGES')
f=open( 'psi4out.xyz', 'w' )
f.write( "29  " )
f.write( str(ee) + "\n" )
f.write( MOL.save_string_xyz() )
f.close()
--------------------------------------------------------------------------

    Molecular point group: c1

    Geometry (in Angstrom), charge = 0, multiplicity = 1:

       Center              X                  Y                   Z               Mass
    ------------   -----------------  -----------------  -----------------  -----------------
           O         -1.560844890034    -0.612037970839     3.229672461193    15.994914619560
           C         -0.868846890034    -1.226024970839     2.483201461193    12.000000000000
           C         -0.604068890034    -0.875852970839     1.038881461193    12.000000000000
           O         -0.222132890034    -2.330295970839     2.835304461193    15.994914619560
           C         -1.318247890034     0.397017029161     0.589584461193    12.000000000000
           H          0.471990109966    -0.801599970839     0.921512461193     1.007825032070
           H         -0.910003890034    -1.728784970839     0.438375461193     1.007825032070
           C         -1.144620890034     0.708800029161    -0.900764538807    12.000000000000
           H         -0.966107890034     1.234689029161     1.184076461193     1.007825032070
           H         -2.375357890034     0.296689029161     0.810662461193     1.007825032070
           C          0.284597109966     1.059311029161    -1.324541538807    12.000000000000
           H         -1.795072890034     1.544567029161    -1.148006538807     1.007825032070
           H         -1.499821890034    -0.134434970839    -1.491355538807     1.007825032070
           C          0.385563109966     1.468747029161    -2.795312538807    12.000000000000
           H          0.654239109966     1.870669029161    -0.699335538807     1.007825032070
           H          0.945426109966     0.213358029161    -1.149496538807     1.007825032070
           C          1.810092109966     1.816211029161    -3.231337538807    12.000000000000
           H         -0.263340890034     2.324030029161    -2.976008538807     1.007825032070
           H          0.006098109966     0.662031029161    -3.420543538807     1.007825032070
           C          1.901651109966     2.227707029161    -4.700346538807    12.000000000000
           H          2.191186109966     2.621509029161    -2.606913538807     1.007825032070
           H          2.459344109966     0.961023029161    -3.055537538807     1.007825032070
           H          2.923077109966     2.467649029161    -4.979134538807     1.007825032070
           H          1.289865109966     3.102673029161    -4.901215538807     1.007825032070
           H          1.559494109966     1.429568029161    -5.353167538807     1.007825032070
           C          1.158083109966    -2.393016970839     2.525538461193    12.000000000000
           H          1.311982109966    -2.317874970839     1.458686461193     1.007825032070
           H          1.498176109966    -3.351436970839     2.885781461193     1.007825032070
           H          1.695020109966    -1.595572970839     3.018811461193     1.007825032070

  Charge       = 0
  Multiplicity = 1
  Basis Set: 6-31G*
  Basis Set:

    Orbital Energies (a.u.)
    -----------------------

    Doubly Occupied:

       1A    -20.595694     2A    -20.550930     3A    -11.373963
       4A    -11.297009     5A    -11.238310     6A    -11.221971
       7A    -11.220851     8A    -11.220273     9A    -11.219366
      10A    -11.218074    11A    -11.211951    12A     -1.465206
      13A     -1.369168    14A     -1.101287    15A     -1.068603
      16A     -1.015403    17A     -0.985591    18A     -0.946276
      19A     -0.871131    20A     -0.806200    21A     -0.795023
      22A     -0.763361    23A     -0.702541    24A     -0.682369
      25A     -0.681154    26A     -0.653919    27A     -0.636467
      28A     -0.613646    29A     -0.597343    30A     -0.592164
      31A     -0.569285    32A     -0.557636    33A     -0.549066
      34A     -0.533259    35A     -0.524182    36A     -0.506711
      37A     -0.490391    38A     -0.481444    39A     -0.474079
      40A     -0.465993    41A     -0.464552    42A     -0.457392
      43A     -0.442661    44A     -0.430079

  @DF-RHF Final Energy:  -501.01768236543649

   => Energetics <=

    Nuclear Repulsion Energy =            618.4130441263530429
    One-Electron Energy =               -1907.5372242542407548
    Two-Electron Energy =                 788.1064977624530457
    DFT Exchange-Correlation Energy =       0.0000000000000000
    Empirical Dispersion Energy =           0.0000000000000000
    PCM Polarization Energy =               0.0000000000000000
    EFP Energy =                            0.0000000000000000
    Total Energy =                       -501.0176823654346663

  Mulliken Charges: (a.u.)
   Center  Symbol    Alpha    Beta     Spin     Total
       1     O     4.26293  4.26293  0.00000 -0.52587
       2     C     2.60175  2.60175  0.00000  0.79649
       3     C     3.23310  3.23310  0.00000 -0.46621
       4     O     4.30371  4.30371  0.00000 -0.60742
       5     C     3.15188  3.15188  0.00000 -0.30376
       6     H     0.40367  0.40367  0.00000  0.19266
       7     H     0.39940  0.39940  0.00000  0.20119
       8     C     3.15652  3.15652  0.00000 -0.31305
       9     H     0.41329  0.41329  0.00000  0.17342
      10     H     0.40673  0.40673  0.00000  0.18653
      11     C     3.15433  3.15433  0.00000 -0.30866
      12     H     0.41746  0.41746  0.00000  0.16508
      13     H     0.42391  0.42391  0.00000  0.15218
      14     C     3.15026  3.15026  0.00000 -0.30053
      15     H     0.42247  0.42247  0.00000  0.15507
      16     H     0.42710  0.42710  0.00000  0.14580
      17     C     3.15143  3.15143  0.00000 -0.30287
      18     H     0.42241  0.42241  0.00000  0.15518
      19     H     0.42375  0.42375  0.00000  0.15249
      20     C     3.23943  3.23943  0.00000 -0.47886
      21     H     0.42265  0.42265  0.00000  0.15471
      22     H     0.42442  0.42442  0.00000  0.15116
      23     H     0.41898  0.41898  0.00000  0.16205
      24     H     0.42102  0.42102  0.00000  0.15796
      25     H     0.42164  0.42164  0.00000  0.15671
      26     C     3.10104  3.10104  0.00000 -0.20207
      27     H     0.41518  0.41518  0.00000  0.16964
      28     H     0.39828  0.39828  0.00000  0.20345
      29     H     0.41124  0.41124  0.00000  0.17752

   Total alpha = 44.00000, Total beta = 44.00000, Total charge =  0.00000
