  ==> Input File <==

--------------------------------------------------------------------------
set {
	reference rhf
	basis cc-pvtz
}

set_num_threads( 4 )
memory 2 gb

molecule MOL {
0 1

H	 2.342730	 0.877684	 -1.045694
C	 2.360424	 0.000000	 -0.411793
C	 1.173749	 0.000000	 0.526870
H	 3.286567	 0.000000	 0.151574
H	 2.342730	 -0.877684	 -1.045694
O	 -0.000000	 0.000000	 -0.223739
H	 1.203779	 0.876757	 1.172538
H	 1.203779	 -0.876757	 1.172538
C	 -1.173749	 0.000000	 0.526870
C	 -1.962936	 -1.251366	 0.209769
H	 -1.763785	 0.886248	 0.296840
H	 -0.937153	 0.037367	 1.589469
H	 -2.213214	 -1.285425	 -0.843166
H	 -2.882313	 -1.272669	 0.783718
H	 -1.385707	 -2.135204	 0.450830

	symmetry c1
}
set optking {
	frozen_dihedral = ("
		11 9 6 3
	")
}

ee = optimize('scf')
oeprop('DIPOLE', 'QUADRUPOLE', 'MULLIKEN_CHARGES')
f=open( 'psi4out.xyz', 'w' )
f.write( "15  " )
f.write( str(ee) + "\n" )
f.write( MOL.save_string_xyz() )
f.close()
--------------------------------------------------------------------------

    Molecular point group: c1
  Charge       = 0
  Multiplicity = 1
  Basis Set: CC-PVTZ
  Basis Set:
  @DF-RHF Final Energy:  -232.22931787296503
    Total Energy =                       -232.2293178729651117
    Molecular point group: c1
  Basis Set: CC-PVTZ
  Basis Set:
  Basis Set: CC-PVTZ
  Basis Set:
  @DF-RHF Final Energy:  -232.22971002831977
    Total Energy =                       -232.2297100283200848
  Basis Set: CC-PVTZ
  Basis Set:
  Basis Set: CC-PVTZ
  Basis Set:
  @DF-RHF Final Energy:  -232.22980417804524
    Total Energy =                       -232.2298041780452422
  Basis Set: CC-PVTZ
  Basis Set:
  Charge       = 0
  Multiplicity = 1
  Basis Set: CC-PVTZ
  Basis Set:

    Orbital Energies (a.u.)
    -----------------------

    Doubly Occupied:

       1A    -20.542022     2A    -11.267029     3A    -11.265811
       4A    -11.207311     5A    -11.206809     6A     -1.376470
       7A     -1.043375     8A     -0.984369     9A     -0.853297
      10A     -0.822015    11A     -0.672516    12A     -0.661202
      13A     -0.631346    14A     -0.577078    15A     -0.552334
      16A     -0.538870    17A     -0.522878    18A     -0.500391
      19A     -0.486575    20A     -0.463749    21A     -0.407170

  @DF-RHF Final Energy:  -232.22980535027312

   => Energetics <=

    Nuclear Repulsion Energy =            191.6689104594555602
    One-Electron Energy =                -694.6322019530656462
    Two-Electron Energy =                 270.7334861433370179
    DFT Exchange-Correlation Energy =       0.0000000000000000
    Empirical Dispersion Energy =           0.0000000000000000
    PCM Polarization Energy =               0.0000000000000000
    EFP Energy =                            0.0000000000000000
    Total Energy =                       -232.2298053502730681
    Molecular point group: c1
  Basis Set: CC-PVTZ
  Basis Set:

  -Total Gradient:
     Atom            X                  Y                   Z
    ------   -----------------  -----------------  -----------------
       1       -0.000008923366    -0.000012336140     0.000016374328
       2        0.000011349469    -0.000016385394     0.000010514765
       3        0.000063332326    -0.000155575049    -0.000032076278
       4        0.000034663073    -0.000000923318    -0.000002296509
       5        0.000000067356     0.000004965418     0.000001132923
       6       -0.000101287905     0.000236214985    -0.000019593119
       7       -0.000007441287    -0.000009198719     0.000008146813
       8       -0.000023981610     0.000011159043    -0.000032678844
       9        0.000227335919     0.000023758266     0.000187342583
      10       -0.000040327039     0.000041167026     0.000012091312
      11       -0.000141627733    -0.000157589118    -0.000173107223
      12       -0.000041525892     0.000000626183     0.000030473901
      13        0.000003680586    -0.000000464591    -0.000012478908
      14        0.000002501373     0.000002538006    -0.000002714109
      15        0.000022184727     0.000032043401     0.000008868366

  **** Optimization is complete! (in 4 steps) ****
    Final optimized geometry and variables:
    Molecular point group: c1

    Geometry (in Angstrom), charge = 0, multiplicity = 1:

    H            2.254815364972     1.131775951827    -1.193070970860
    C            2.283631136803     0.258288020623    -0.553736216404
    C            1.113225140537     0.265203683037     0.404838188067
    H            3.219322471498     0.262024042792    -0.005936725415
    H            2.254874603561    -0.623398552153    -1.181768331460
    O           -0.071882403703     0.263395731397    -0.330526791451
    H            1.158194279536     1.145415953638     1.044101276056
    H            1.155455728754    -0.608404855065     1.053483646835
    C           -1.262044515363     0.235687408067     0.405767456243
    C           -2.067940676799    -1.005523297696     0.073206309115
    H           -1.834610062991     1.125147301382     0.163159578354
    H           -1.052264163753     0.269614392828     1.470931645800
    H           -2.280259352938    -1.042805224188    -0.988056549634
    H           -3.009335963048    -1.003825339080     0.612364470607
    H           -1.521589550162    -1.902647051263     0.340336744071

  Mulliken Charges: (a.u.)
   Center  Symbol    Alpha    Beta     Spin     Total
       1     H     0.45141  0.45141  0.00000  0.09718
       2     C     3.13753  3.13753  0.00000 -0.27506
       3     C     2.96484  2.96484  0.00000  0.07033
       4     H     0.45930  0.45930  0.00000  0.08140
       5     H     0.45180  0.45180  0.00000  0.09639
       6     O     4.18558  4.18558  0.00000 -0.37117
       7     H     0.47124  0.47124  0.00000  0.05752
       8     H     0.47457  0.47457  0.00000  0.05086
       9     C     2.97613  2.97613  0.00000  0.04773
      10     C     3.13436  3.13436  0.00000 -0.26871
      11     H     0.45716  0.45716  0.00000  0.08569
      12     H     0.47126  0.47126  0.00000  0.05747
      13     H     0.45088  0.45088  0.00000  0.09824
      14     H     0.45790  0.45790  0.00000  0.08419
      15     H     0.45603  0.45603  0.00000  0.08794

   Total alpha = 21.00000, Total beta = 21.00000, Total charge = -0.00000
