  ==> Input File <==

--------------------------------------------------------------------------
set {
	reference rhf
	basis 6-31G*
}

set_num_threads( 4 )
memory 2 gb

molecule MOL {
0 1

H	 1.162651	 -1.091045	 1.735852
C	 0.240848	 -1.200664	 1.181264
O	 0.000000	 0.000000	 0.521119
H	 0.347809	 -2.026811	 0.480030
H	 -0.561910	 -1.441536	 1.876425
C	 -1.165642	 0.000000	 -0.238270
H	 -1.228672	 0.883184	 -0.872070
H	 -2.003012	 0.000000	 0.445920
H	 -1.228672	 -0.883184	 -0.872070

	symmetry c1
}
set optking {
	frozen_dihedral = ("
		2 3 6 7
	")
}

ee = optimize('scf')
oeprop('DIPOLE', 'QUADRUPOLE', 'MULLIKEN_CHARGES')
f=open( 'psi4out.xyz', 'w' )
f.write( "9  " )
f.write( str(ee) + "\n" )
f.write( MOL.save_string_xyz() )
f.close()
--------------------------------------------------------------------------

    Molecular point group: c1
  Charge       = 0
  Multiplicity = 1
  Basis Set: 6-31G*
  Basis Set:
  @DF-RHF Final Energy:  -154.06320974272847
    Total Energy =                       -154.0632097427285032
    Molecular point group: c1
  Basis Set: 6-31G*
  Basis Set:
  Basis Set: 6-31G*
  Basis Set:
  @DF-RHF Final Energy:  -154.06410971592183
    Total Energy =                       -154.0641097159217452
  Basis Set: 6-31G*
  Basis Set:
  Basis Set: 6-31G*
  Basis Set:
  @DF-RHF Final Energy:  -154.06436937655727
    Total Energy =                       -154.0643693765573232
  Basis Set: 6-31G*
  Basis Set:
  Charge       = 0
  Multiplicity = 1
  Basis Set: 6-31G*
  Basis Set:

    Orbital Energies (a.u.)
    -----------------------

    Doubly Occupied:

       1A    -20.556125     2A    -11.265301     3A    -11.265211
       4A     -1.379237     5A     -0.974896     6A     -0.872974
       7A     -0.661608     8A     -0.654092     9A     -0.645123
      10A     -0.552629    11A     -0.529163    12A     -0.474687
      13A     -0.417169

  @DF-RHF Final Energy:  -154.06437037678097

   => Energetics <=

    Nuclear Repulsion Energy =             84.7537985685640507
    One-Electron Energy =                -377.1399109024999348
    Two-Electron Energy =                 138.3217419571549840
    DFT Exchange-Correlation Energy =       0.0000000000000000
    Empirical Dispersion Energy =           0.0000000000000000
    PCM Polarization Energy =               0.0000000000000000
    EFP Energy =                            0.0000000000000000
    Total Energy =                       -154.0643703767809143
    Molecular point group: c1
  Basis Set: 6-31G*
  Basis Set:

  -Total Gradient:
     Atom            X                  Y                   Z
    ------   -----------------  -----------------  -----------------
       1       -0.000020613428     0.000102636907    -0.000050200707
       2        0.000454685328    -0.000508941395    -0.001121523718
       3       -0.000696930824     0.000524220201     0.001163430272
       4        0.000022325116    -0.000027766899     0.000002822988
       5        0.000009724930     0.000020764472     0.000016489259
       6       -0.000646423940     0.000674880859     0.001013011275
       7        0.000802786682    -0.000769236360    -0.001085143420
       8        0.000040745157     0.000003729734     0.000043182759
       9        0.000033700977    -0.000020287517     0.000017931294

  **** Optimization is complete! (in 4 steps) ****
    Final optimized geometry and variables:
    Molecular point group: c1

    Geometry (in Angstrom), charge = 0, multiplicity = 1:

    H            1.497213755633    -0.669074232722     1.232787117407
    C            0.566424427324    -0.783397283781     0.694464821123
    O            0.318877265405     0.410830185866     0.024990766402
    H            0.660427274640    -1.616522883932    -0.000008965501
    H           -0.224587827687    -1.015903185486     1.405929756132
    C           -0.858745017312     0.408164641959    -0.716449187445
    H           -0.863487833212     1.300062969345    -1.327935603744
    H           -1.736332882520     0.407817905222    -0.072496889863
    H           -0.913434906656    -0.458722971530    -1.373132929067

  Mulliken Charges: (a.u.)
   Center  Symbol    Alpha    Beta     Spin     Total
       1     H     0.41180  0.41180  0.00000  0.17641
       2     C     3.08028  3.08028  0.00000 -0.16057
       3     O     4.29534  4.29534  0.00000 -0.59067
       4     H     0.42992  0.42992  0.00000  0.14016
       5     H     0.43046  0.43046  0.00000  0.13909
       6     C     3.08009  3.08009  0.00000 -0.16017
       7     H     0.41200  0.41200  0.00000  0.17600
       8     H     0.42893  0.42893  0.00000  0.14215
       9     H     0.43120  0.43120  0.00000  0.13761

   Total alpha = 13.00000, Total beta = 13.00000, Total charge =  0.00000
