  ==> Input File <==

--------------------------------------------------------------------------
set {
	reference rhf
	basis 6-31G*
}

set_num_threads( 4 )
memory 2 gb

molecule MOL {
0 1

H	 -2.737017	 0.676409	 -0.242690
O	 -2.315789	 -0.143634	 -0.024262
C	 -0.945151	 -0.064130	 -0.333158
H	 -0.813375	 -0.223047	 -1.403232
C	 -0.232801	 -1.184051	 0.407206
C	 -0.355424	 1.302939	 0.054523
H	 -0.318824	 -0.992899	 1.473524
H	 -0.742411	 -2.122033	 0.217954
C	 1.248522	 -1.270719	 -0.013048
H	 -0.546144	 2.018388	 -0.742941
H	 -0.890929	 1.656788	 0.930149
C	 1.156425	 1.235120	 0.355905
H	 1.825384	 -1.683246	 0.809111
H	 1.357782	 -1.965923	 -0.840362
C	 1.828244	 0.099899	 -0.419275
H	 1.626109	 2.185622	 0.123525
H	 1.309438	 1.071213	 1.419539
H	 2.901447	 0.112642	 -0.255830
H	 1.681817	 0.263413	 -1.484607

	symmetry c1
}
set optking {
	frozen_dihedral = ("
		1 2 3 4
	")
}

ee = optimize('scf')
oeprop('DIPOLE', 'QUADRUPOLE', 'MULLIKEN_CHARGES')
f=open( 'psi4out.xyz', 'w' )
f.write( "19  " )
f.write( str(ee) + "\n" )
f.write( MOL.save_string_xyz() )
f.close()
--------------------------------------------------------------------------

    Molecular point group: c1
  Charge       = 0
  Multiplicity = 1
  Basis Set: 6-31G*
  Basis Set:
  @DF-RHF Final Energy:  -309.04811409814681
    Total Energy =                       -309.0481140981470389
    Molecular point group: c1
  Basis Set: 6-31G*
  Basis Set:
  Basis Set: 6-31G*
  Basis Set:
  @DF-RHF Final Energy:  -309.04813225784216
    Total Energy =                       -309.0481322578422123
  Basis Set: 6-31G*
  Basis Set:
  Basis Set: 6-31G*
  Basis Set:
  @DF-RHF Final Energy:  -309.04813674108743
    Total Energy =                       -309.0481367410876601
  Basis Set: 6-31G*
  Basis Set:
  Charge       = 0
  Multiplicity = 1
  Basis Set: 6-31G*
  Basis Set:

    Orbital Energies (a.u.)
    -----------------------

    Doubly Occupied:

       1A    -20.549507     2A    -11.268593     3A    -11.219184
       4A    -11.217365     5A    -11.216728     6A    -11.215390
       7A    -11.207968     8A     -1.358629     9A     -1.109462
      10A     -1.003441    11A     -0.988522    12A     -0.845416
      13A     -0.836882    14A     -0.736616    15A     -0.688983
      16A     -0.665333    17A     -0.627143    18A     -0.593546
      19A     -0.580429    20A     -0.546773    21A     -0.528219
      22A     -0.519966    23A     -0.500393    24A     -0.485502
      25A     -0.464671    26A     -0.449118    27A     -0.426554
      28A     -0.414042

  @DF-RHF Final Energy:  -309.04813686781455

   => Energetics <=

    Nuclear Repulsion Energy =            331.4913914034836466
    One-Electron Energy =               -1076.5503045029422537
    Two-Electron Energy =                 436.0107762316438311
    DFT Exchange-Correlation Energy =       0.0000000000000000
    Empirical Dispersion Energy =           0.0000000000000000
    PCM Polarization Energy =               0.0000000000000000
    EFP Energy =                            0.0000000000000000
    Total Energy =                       -309.0481368678147192
    Molecular point group: c1
  Basis Set: 6-31G*
  Basis Set:

  -Total Gradient:
     Atom            X                  Y                   Z
    ------   -----------------  -----------------  -----------------
       1        0.000296313816     0.000565695479     0.001515307584
       2       -0.000343185762    -0.001053505066    -0.001802121409
       3       -0.000104587599     0.001884461436     0.000073441741
       4        0.000140766569    -0.001395713940     0.000247221391
       5        0.000000049182    -0.000017880849    -0.000020148627
       6        0.000015817000    -0.000003531936    -0.000019549735
       7        0.000000894097     0.000000252386    -0.000007720977
       8       -0.000004424600    -0.000009741040     0.000005600429
       9       -0.000003937207    -0.000000493675     0.000004262954
      10        0.000012290806     0.000005433280     0.000004726593
      11        0.000001816068    -0.000000468926     0.000001215363
      12       -0.000002075036     0.000016060543    -0.000006807697
      13       -0.000000409623    -0.000002670863     0.000003809242
      14       -0.000003978629    -0.000002601203     0.000006008936
      15        0.000001114645    -0.000005309229    -0.000003975891
      16       -0.000001700505     0.000009443684     0.000007336730
      17       -0.000005233098    -0.000000044950    -0.000003777671
      18       -0.000002070178     0.000003108543    -0.000003143800
      19        0.000002540055     0.000007506325    -0.000001685156

  **** Optimization is complete! (in 4 steps) ****
    Final optimized geometry and variables:
    Molecular point group: c1

    Geometry (in Angstrom), charge = 0, multiplicity = 1:

    H           -2.743336582950     0.668212554260    -0.261904779016
    O           -2.317578942498    -0.147243906985    -0.036245894906
    C           -0.944337900056    -0.063217257076    -0.333018493454
    H           -0.806205614839    -0.227798014025    -1.401170838039
    C           -0.232812128356    -1.183307135155     0.409141873848
    C           -0.355701979061     1.302147573810     0.057514061121
    H           -0.316259993394    -0.990368498643     1.475359874316
    H           -0.744742623163    -2.120827067083     0.222918575108
    C            1.246880692140    -1.272807455854    -0.015434170643
    H           -0.550508721360     2.020427918387    -0.736258138206
    H           -0.884655616938     1.653489895564     0.939148857292
    C            1.157339194280     1.233693377583     0.353650153723
    H            1.825986393616    -1.686773336433     0.804456068506
    H            1.352723367598    -1.966914688983    -0.843997129356
    C            1.827016337546     0.097763463376    -0.422473741584
    H            1.626039053603     2.184070681061     0.119061893473
    H            1.313313102087     1.070516671296     1.416822075662
    H            2.900266649310     0.110635261880    -0.259638467766
    H            1.679841640908     0.261572404082    -1.487504762895

  Mulliken Charges: (a.u.)
   Center  Symbol    Alpha    Beta     Spin     Total
       1     H     0.28221  0.28221  0.00000  0.43558
       2     O     4.38101  4.38101  0.00000 -0.76201
       3     C     2.89991  2.89991  0.00000  0.20017
       4     H     0.42913  0.42913  0.00000  0.14173
       5     C     3.16773  3.16773  0.00000 -0.33547
       6     C     3.18177  3.18177  0.00000 -0.36353
       7     H     0.41753  0.41753  0.00000  0.16495
       8     H     0.40861  0.40861  0.00000  0.18279
       9     C     3.16106  3.16106  0.00000 -0.32213
      10     H     0.42156  0.42156  0.00000  0.15688
      11     H     0.41442  0.41442  0.00000  0.17116
      12     C     3.16264  3.16264  0.00000 -0.32528
      13     H     0.41786  0.41786  0.00000  0.16428
      14     H     0.41811  0.41811  0.00000  0.16378
      15     C     3.16433  3.16433  0.00000 -0.32867
      16     H     0.41643  0.41643  0.00000  0.16714
      17     H     0.41815  0.41815  0.00000  0.16370
      18     H     0.41629  0.41629  0.00000  0.16742
      19     H     0.42124  0.42124  0.00000  0.15751

   Total alpha = 28.00000, Total beta = 28.00000, Total charge = -0.00000
