  ==> Input File <==

--------------------------------------------------------------------------
set {
	reference rhf
	basis 6-31G*
}

set_num_threads( 1 )
memory 2 gb

molecule MOL {
0 1

O	 -1.877109	 -0.751220	 0.094871
C	 -1.083277	 0.139568	 0.115197
C	 0.323299	 -0.082943	 0.642902
C	 -1.439638	 1.532108	 -0.355617
C	 1.355627	 -0.005344	 -0.493127
H	 0.396251	 -1.044647	 1.143147
H	 0.528637	 0.693580	 1.371677
C	 2.786168	 -0.195604	 0.007473
H	 1.132807	 -0.760304	 -1.243899
H	 1.259610	 0.958506	 -0.981915
H	 3.495561	 -0.130713	 -0.811210
H	 2.912696	 -1.165395	 0.480041
H	 3.049284	 0.565503	 0.735850
H	 -1.178981	 2.271424	 0.396140
H	 -2.496510	 1.588928	 -0.575909
H	 -0.871348	 1.771240	 -1.250641

	symmetry c1
}
set optking {
	frozen_dihedral = ("
		9 5 3 2
	")
}

ee = energy('scf')
oeprop('DIPOLE', 'QUADRUPOLE', 'MULLIKEN_CHARGES')
f=open( 'psi4out.xyz', 'w' )
f.write( "16  " )
f.write( str(ee) + "\n" )
f.write( MOL.save_string_xyz() )
f.close()
--------------------------------------------------------------------------

    Molecular point group: c1

    Geometry (in Angstrom), charge = 0, multiplicity = 1:

       Center              X                  Y                   Z               Mass
    ------------   -----------------  -----------------  -----------------  -----------------
           O         -1.895399732462    -0.860696588353     0.097462914740    15.994914619560
           C         -1.101567732462     0.030091411647     0.117788914740    12.000000000000
           C          0.305008267538    -0.192419588353     0.645493914740    12.000000000000
           C         -1.457928732462     1.422631411647    -0.353025085260    12.000000000000
           C          1.337336267538    -0.114820588353    -0.490535085260    12.000000000000
           H          0.377960267538    -1.154123588353     1.145738914740     1.007825032070
           H          0.510346267538     0.584103411647     1.374268914740     1.007825032070
           C          2.767877267538    -0.305080588353     0.010064914740    12.000000000000
           H          1.114516267538    -0.869780588353    -1.241307085260     1.007825032070
           H          1.241319267538     0.849029411647    -0.979323085260     1.007825032070
           H          3.477270267538    -0.240189588353    -0.808618085260     1.007825032070
           H          2.894405267538    -1.274871588353     0.482632914740     1.007825032070
           H          3.030993267538     0.456026411647     0.738441914740     1.007825032070
           H         -1.197271732462     2.161947411647     0.398731914740     1.007825032070
           H         -2.514800732462     1.479451411647    -0.573317085260     1.007825032070
           H         -0.889638732462     1.661763411647    -1.248049085260     1.007825032070

  Charge       = 0
  Multiplicity = 1
  Basis Set: 6-31G*
  Basis Set:

    Orbital Energies (a.u.)
    -----------------------

    Doubly Occupied:

       1A    -20.547613     2A    -11.324222     3A    -11.235235
       4A    -11.229952     5A    -11.229099     6A    -11.220988
       7A     -1.392859     8A     -1.085883     9A     -1.012142
      10A     -0.950274    11A     -0.831573    12A     -0.735906
      13A     -0.658657    14A     -0.650527    15A     -0.613890
      16A     -0.608650    17A     -0.577439    18A     -0.555776
      19A     -0.535861    20A     -0.520342    21A     -0.506883
      22A     -0.486516    23A     -0.472292    24A     -0.397450

  @DF-RHF Final Energy:  -270.02896033427123

   => Energetics <=

    Nuclear Repulsion Energy =            237.3779031332564387
    One-Electron Energy =                -836.0537129032979919
    Two-Electron Energy =                 328.6468494357708323
    DFT Exchange-Correlation Energy =       0.0000000000000000
    Empirical Dispersion Energy =           0.0000000000000000
    PCM Polarization Energy =               0.0000000000000000
    EFP Energy =                            0.0000000000000000
    Total Energy =                       -270.0289603342706641

  Mulliken Charges: (a.u.)
   Center  Symbol    Alpha    Beta     Spin     Total
       1     O     4.26031  4.26031  0.00000 -0.52062
       2     C     2.73696  2.73696  0.00000  0.52608
       3     C     3.19897  3.19897  0.00000 -0.39793
       4     C     3.29026  3.29026  0.00000 -0.58052
       5     C     3.16580  3.16580  0.00000 -0.33159
       6     H     0.39946  0.39946  0.00000  0.20108
       7     H     0.41566  0.41566  0.00000  0.16867
       8     C     3.23907  3.23907  0.00000 -0.47813
       9     H     0.41064  0.41064  0.00000  0.17872
      10     H     0.41905  0.41905  0.00000  0.16190
      11     H     0.41569  0.41569  0.00000  0.16861
      12     H     0.41705  0.41705  0.00000  0.16590
      13     H     0.42014  0.42014  0.00000  0.15973
      14     H     0.40982  0.40982  0.00000  0.18036
      15     H     0.39527  0.39527  0.00000  0.20947
      16     H     0.40586  0.40586  0.00000  0.18828

   Total alpha = 24.00000, Total beta = 24.00000, Total charge = -0.00000
