  ==> Input File <==

--------------------------------------------------------------------------
set {
	reference rhf
	basis 6-31G*
}

set_num_threads( 1 )
memory 2 gb

molecule MOL {
0 1

O	 -1.676697	 1.145451	 0.360427
C	 -1.083277	 0.139568	 0.115197
C	 0.323299	 -0.082943	 0.642902
C	 -1.684763	 -0.947354	 -0.747731
C	 1.355627	 -0.005344	 -0.493127
H	 0.396251	 -1.044647	 1.143147
H	 0.528637	 0.693580	 1.371677
C	 2.786168	 -0.195604	 0.007473
H	 1.132807	 -0.760304	 -1.243899
H	 1.259610	 0.958506	 -0.981915
H	 3.495561	 -0.130713	 -0.811210
H	 2.912696	 -1.165395	 0.480041
H	 3.049284	 0.565503	 0.735850
H	 -1.003558	 -1.226402	 -1.546329
H	 -2.623090	 -0.610736	 -1.166023
H	 -1.856065	 -1.836957	 -0.147343

	symmetry c1
}
set optking {
	frozen_dihedral = ("
		9 5 3 2
	")
}

ee = energy('scf')
oeprop('DIPOLE', 'QUADRUPOLE', 'MULLIKEN_CHARGES')
f=open( 'psi4out.xyz', 'w' )
f.write( "16  " )
f.write( str(ee) + "\n" )
f.write( MOL.save_string_xyz() )
f.close()
--------------------------------------------------------------------------

    Molecular point group: c1

    Geometry (in Angstrom), charge = 0, multiplicity = 1:

       Center              X                  Y                   Z               Mass
    ------------   -----------------  -----------------  -----------------  -----------------
           O         -1.687097649463     1.138154430227     0.385073310620    15.994914619560
           C         -1.093677649463     0.132271430227     0.139843310620    12.000000000000
           C          0.312898350537    -0.090239569773     0.667548310620    12.000000000000
           C         -1.695163649463    -0.954650569773    -0.723084689380    12.000000000000
           C          1.345226350537    -0.012640569773    -0.468480689380    12.000000000000
           H          0.385850350537    -1.051943569773     1.167793310620     1.007825032070
           H          0.518236350537     0.686283430227     1.396323310620     1.007825032070
           C          2.775767350537    -0.202900569773     0.032119310620    12.000000000000
           H          1.122406350537    -0.767600569773    -1.219252689380     1.007825032070
           H          1.249209350537     0.951209430227    -0.957268689380     1.007825032070
           H          3.485160350537    -0.138009569773    -0.786563689380     1.007825032070
           H          2.902295350537    -1.172691569773     0.504687310620     1.007825032070
           H          3.038883350537     0.558206430227     0.760496310620     1.007825032070
           H         -1.013958649463    -1.233698569773    -1.521682689380     1.007825032070
           H         -2.633490649463    -0.618032569773    -1.141376689380     1.007825032070
           H         -1.866465649463    -1.844253569773    -0.122696689380     1.007825032070

  Charge       = 0
  Multiplicity = 1
  Basis Set: 6-31G*
  Basis Set:

    Orbital Energies (a.u.)
    -----------------------

    Doubly Occupied:

       1A    -20.548436     2A    -11.324563     3A    -11.235232
       4A    -11.229802     5A    -11.228215     6A    -11.221010
       7A     -1.393605     8A     -1.085528     9A     -1.011552
      10A     -0.950385    11A     -0.831585    12A     -0.735831
      13A     -0.659262    14A     -0.650363    15A     -0.614825
      16A     -0.607872    17A     -0.577592    18A     -0.555699
      19A     -0.534077    20A     -0.519968    21A     -0.506642
      22A     -0.486044    23A     -0.473166    24A     -0.398317

  @DF-RHF Final Energy:  -270.02930494248767

   => Energetics <=

    Nuclear Repulsion Energy =            237.4289480667711700
    One-Electron Energy =                -836.1574327376630436
    Two-Electron Energy =                 328.6991797284039762
    DFT Exchange-Correlation Energy =       0.0000000000000000
    Empirical Dispersion Energy =           0.0000000000000000
    PCM Polarization Energy =               0.0000000000000000
    EFP Energy =                            0.0000000000000000
    Total Energy =                       -270.0293049424879541

  Mulliken Charges: (a.u.)
   Center  Symbol    Alpha    Beta     Spin     Total
       1     O     4.26030  4.26030  0.00000 -0.52059
       2     C     2.73608  2.73608  0.00000  0.52783
       3     C     3.20111  3.20111  0.00000 -0.40222
       4     C     3.29013  3.29013  0.00000 -0.58026
       5     C     3.16569  3.16569  0.00000 -0.33138
       6     H     0.41431  0.41431  0.00000  0.17138
       7     H     0.39964  0.39964  0.00000  0.20072
       8     C     3.23895  3.23895  0.00000 -0.47790
       9     H     0.41934  0.41934  0.00000  0.16131
      10     H     0.41011  0.41011  0.00000  0.17979
      11     H     0.41558  0.41558  0.00000  0.16884
      12     H     0.42006  0.42006  0.00000  0.15988
      13     H     0.41696  0.41696  0.00000  0.16608
      14     H     0.40831  0.40831  0.00000  0.18337
      15     H     0.39612  0.39612  0.00000  0.20775
      16     H     0.40730  0.40730  0.00000  0.18540

   Total alpha = 24.00000, Total beta = 24.00000, Total charge = -0.00000
