  ==> Input File <==

--------------------------------------------------------------------------
set {
	reference rhf
	basis 6-31G*
}

set_num_threads( 1 )
memory 2 gb

molecule MOL {
0 1

H	 -1.370056	 1.308700	 -4.559038
C	 -0.840100	 1.111490	 -3.644140
C	 -0.954531	 1.988659	 -2.576138
C	 -0.045035	 -0.018668	 -3.536680
H	 -1.571471	 2.864777	 -2.660798
C	 -0.272809	 1.734413	 -1.400087
H	 0.042457	 -0.697491	 -4.365626
C	 0.638299	 -0.275200	 -2.360406
H	 -0.349574	 2.402106	 -0.563448
C	 0.525694	 0.601984	 -1.288198
H	 1.254673	 -1.148549	 -2.272849
C	 1.239129	 0.373821	 0.000060
O	 1.970282	 -0.730723	 0.000018
O	 1.166538	 1.102862	 0.939256
C	 3.377318	 -0.566646	 -0.000065
H	 3.695437	 -0.028981	 -0.881264
H	 3.789299	 -1.563704	 0.000236
H	 3.695516	 -0.028316	 0.880770

	symmetry c1
}
set optking {
	frozen_dihedral = ("
		12 13 15 16,
		13 12 10 6
	")
}

ee = energy('scf')
oeprop('DIPOLE', 'QUADRUPOLE', 'MULLIKEN_CHARGES')
f=open( 'psi4out.xyz', 'w' )
f.write( "18  " )
f.write( str(ee) + "\n" )
f.write( MOL.save_string_xyz() )
f.close()
--------------------------------------------------------------------------

    Molecular point group: c1

    Geometry (in Angstrom), charge = 0, multiplicity = 1:

       Center              X                  Y                   Z               Mass
    ------------   -----------------  -----------------  -----------------  -----------------
           H         -2.130401937252     0.805339389489    -3.256752469577     1.007825032070
           C         -1.600445937252     0.608129389489    -2.341854469577    12.000000000000
           C         -1.714876937252     1.485298389489    -1.273852469577    12.000000000000
           C         -0.805380937252    -0.522028610511    -2.234394469577    12.000000000000
           H         -2.331816937252     2.361416389489    -1.358512469577     1.007825032070
           C         -1.033154937252     1.231052389489    -0.097801469577    12.000000000000
           H         -0.717888937252    -1.200851610511    -3.063340469577     1.007825032070
           C         -0.122046937252    -0.778560610511    -1.058120469577    12.000000000000
           H         -1.109919937252     1.898745389489     0.738837530423     1.007825032070
           C         -0.234651937252     0.098623389489     0.014087530423    12.000000000000
           H          0.494327062748    -1.651909610511    -0.970563469577     1.007825032070
           C          0.478783062748    -0.129539610511     1.302345530423    12.000000000000
           O          1.209936062748    -1.234083610511     1.302303530423    15.994914619560
           O          0.406192062748     0.599501389489     2.241541530423    15.994914619560
           C          2.616972062748    -1.070006610511     1.302220530423    12.000000000000
           H          2.935091062748    -0.532341610511     0.421021530423     1.007825032070
           H          3.028953062748    -2.067064610511     1.302521530423     1.007825032070
           H          2.935170062748    -0.531676610511     2.183055530423     1.007825032070

  Charge       = 0
  Multiplicity = 1
  Basis Set: 6-31G*
  Basis Set:

    Orbital Energies (a.u.)
    -----------------------

    Doubly Occupied:

       1A    -20.591172     2A    -20.551185     3A    -11.377939
       4A    -11.291884     5A    -11.247986     6A    -11.247561
       7A    -11.245092     8A    -11.243227     9A    -11.239953
      10A    -11.238765    11A     -1.466891    12A     -1.365887
      13A     -1.167075    14A     -1.046137    15A     -1.027050
      16A     -0.980343    17A     -0.867376    18A     -0.837172
      19A     -0.779675    20A     -0.739438    21A     -0.683479
      22A     -0.676651    23A     -0.666682    24A     -0.636518
      25A     -0.626029    26A     -0.605545    27A     -0.596313
      28A     -0.560767    29A     -0.526070    30A     -0.519410
      31A     -0.502197    32A     -0.494350    33A     -0.460484
      34A     -0.442291    35A     -0.347173    36A     -0.343168

  @DF-RHF Final Energy:  -457.33372465647386

   => Energetics <=

    Nuclear Repulsion Energy =            495.5691684714150256
    One-Electron Energy =               -1605.3278822539496105
    Two-Electron Energy =                 652.4249891260617460
    DFT Exchange-Correlation Energy =       0.0000000000000000
    Empirical Dispersion Energy =           0.0000000000000000
    PCM Polarization Energy =               0.0000000000000000
    EFP Energy =                            0.0000000000000000
    Total Energy =                       -457.3337246564728957

  Mulliken Charges: (a.u.)
   Center  Symbol    Alpha    Beta     Spin     Total
       1     H     0.39476  0.39476  0.00000  0.21047
       2     C     3.08977  3.08977  0.00000 -0.17953
       3     C     3.10687  3.10687  0.00000 -0.21373
       4     C     3.10663  3.10663  0.00000 -0.21325
       5     H     0.39494  0.39494  0.00000  0.21012
       6     C     3.08575  3.08575  0.00000 -0.17150
       7     H     0.39601  0.39601  0.00000  0.20797
       8     C     3.09009  3.09009  0.00000 -0.18018
       9     H     0.37578  0.37578  0.00000  0.24844
      10     C     3.07832  3.07832  0.00000 -0.15664
      11     H     0.38358  0.38358  0.00000  0.23283
      12     C     2.58946  2.58946  0.00000  0.82108
      13     O     4.31787  4.31787  0.00000 -0.63574
      14     O     4.27103  4.27103  0.00000 -0.54205
      15     C     3.09520  3.09520  0.00000 -0.19039
      16     H     0.41693  0.41693  0.00000  0.16614
      17     H     0.40380  0.40380  0.00000  0.19240
      18     H     0.40322  0.40322  0.00000  0.19356

   Total alpha = 36.00000, Total beta = 36.00000, Total charge = -0.00000
