  ==> Input File <==

--------------------------------------------------------------------------
set {
	reference rhf
	basis 6-31G*
}

set_num_threads( 4 )
memory 2 gb

molecule MOL {
0 1

O	 -2.385963	 -1.338287	 0.903282
C	 -1.688612	 -1.571378	 -0.036826
C	 -0.889235	 -0.467034	 -0.705952
C	 -1.539705	 -2.972308	 -0.586913
C	 0.379448	 -0.143569	 0.099626
H	 -1.521140	 0.413095	 -0.754654
H	 -0.622976	 -0.748930	 -1.720677
C	 1.631333	 -0.777471	 -0.511575
H	 0.482768	 0.934507	 0.149241
H	 0.263088	 -0.495696	 1.123449
C	 2.915987	 -0.544314	 0.291766
H	 1.766672	 -0.399098	 -1.523130
H	 1.471257	 -1.849544	 -0.605828
C	 3.373361	 0.914346	 0.347591
H	 3.708709	 -1.142521	 -0.150311
H	 2.780642	 -0.921148	 1.303579
H	 3.506512	 1.320010	 -0.651625
H	 4.322697	 0.999599	 0.867103
H	 2.660624	 1.545032	 0.868198
H	 -1.964440	 -3.019400	 -1.586236
H	 -2.050231	 -3.677835	 0.053696
H	 -0.491103	 -3.242555	 -0.671797

	symmetry c1
}
set optking {
	frozen_dihedral = ("
		6 3 5 8
	")
}

ee = optimize('scf')
oeprop('DIPOLE', 'QUADRUPOLE', 'MULLIKEN_CHARGES')
f=open( 'psi4out.xyz', 'w' )
f.write( "22  " )
f.write( str(ee) + "\n" )
f.write( MOL.save_string_xyz() )
f.close()
--------------------------------------------------------------------------

    Molecular point group: c1
  Charge       = 0
  Multiplicity = 1
  Basis Set: 6-31G*
  Basis Set:
  @DF-RHF Final Energy:  -348.09287381874003
    Total Energy =                       -348.0928738187398039
    Molecular point group: c1
  Basis Set: 6-31G*
  Basis Set:
  Basis Set: 6-31G*
  Basis Set:
  @DF-RHF Final Energy:  -348.09292299179151
    Total Energy =                       -348.0929229917913972
  Basis Set: 6-31G*
  Basis Set:
  Basis Set: 6-31G*
  Basis Set:
  @DF-RHF Final Energy:  -348.09342029847488
    Total Energy =                       -348.0934202984751096
  Basis Set: 6-31G*
  Basis Set:
  Basis Set: 6-31G*
  Basis Set:
  @DF-RHF Final Energy:  -348.09364576603423
    Total Energy =                       -348.0936457660346832
  Basis Set: 6-31G*
  Basis Set:
  @DF-RHF Final Energy:  -348.09372721889611
    Total Energy =                       -348.0937272188963902
  @DF-RHF Final Energy:  -348.09380835453226
    Total Energy =                       -348.0938083545324844
  @DF-RHF Final Energy:  -348.09388901828777
    Total Energy =                       -348.0938890182876548
  @DF-RHF Final Energy:  -348.09347219073214
    Total Energy =                       -348.0934721907323137
  @DF-RHF Final Energy:  -348.09351018452799
    Total Energy =                       -348.0935101845279860
  @DF-RHF Final Energy:  -348.09391037007060
    Total Energy =                       -348.0939103700707165
  @DF-RHF Final Energy:  -348.09400768137004
    Total Energy =                       -348.0940076813700443
  @DF-RHF Final Energy:  -348.09423016278862
    Total Energy =                       -348.0942301627891311
  @DF-RHF Final Energy:  -348.09459788717800
    Total Energy =                       -348.0945978871781108
  @DF-RHF Final Energy:  -348.09456188236686
    Total Energy =                       -348.0945618823668042
  @DF-RHF Final Energy:  -348.03039646689092
    Total Energy =                       -348.0303964668910908
  @DF-RHF Final Energy:  -347.97450701147147
    Total Energy =                       -347.9745070114714736
  @DF-RHF Final Energy:  -348.03049697261247
    Total Energy =                       -348.0304969726121271
  @DF-RHF Final Energy:  -348.02117920618610
    Total Energy =                       -348.0211792061861615
  @DF-RHF Final Energy:  -348.04704762176914
    Total Energy =                       -348.0470476217687406
  @DF-RHF Final Energy:  -348.06186824301784
    Total Energy =                       -348.0618682430180115
  @DF-RHF Final Energy:  -348.08950073765277
    Total Energy =                       -348.0895007376521448
  @DF-RHF Final Energy:  -348.09029955113579
    Total Energy =                       -348.0902995511357858
  @DF-RHF Final Energy:  -348.09090888547337
    Total Energy =                       -348.0909088854735955
  @DF-RHF Final Energy:  -348.09214522389681
    Total Energy =                       -348.0921452238972051
  @DF-RHF Final Energy:  -348.09259028412936
    Total Energy =                       -348.0925902841294715
  @DF-RHF Final Energy:  -348.09269607443406
    Total Energy =                       -348.0926960744337748
  @DF-RHF Final Energy:  -348.09286934505178
    Total Energy =                       -348.0928693450517812
  @DF-RHF Final Energy:  -348.09306984539791
    Total Energy =                       -348.0930698453977357
  @DF-RHF Final Energy:  -348.09316154691288
    Total Energy =                       -348.0931615469128815
  @DF-RHF Final Energy:  -348.09320422820542
    Total Energy =                       -348.0932042282050816
  @DF-RHF Final Energy:  -348.09323103104174
    Total Energy =                       -348.0932310310419098
  @DF-RHF Final Energy:  -348.09326441869064
    Total Energy =                       -348.0932644186904099
  @DF-RHF Final Energy:  -348.09330411052383
    Total Energy =                       -348.0933041105236043
  @DF-RHF Final Energy:  -348.09332776668418
    Total Energy =                       -348.0933277666844106
  @DF-RHF Final Energy:  -348.09333661386296
    Total Energy =                       -348.0933366138630731
  @DF-RHF Final Energy:  -348.09333857943375
    Total Energy =                       -348.0933385794336345
  Basis Set: 6-31G*
  Basis Set:
  @DF-RHF Final Energy:  -348.09333875385482
    Total Energy =                       -348.0933387538548232
  Basis Set: 6-31G*
  Basis Set:
  Basis Set: 6-31G*
  Basis Set:
  @DF-RHF Final Energy:  -348.09333521121459
    Total Energy =                       -348.0933352112141961
  Basis Set: 6-31G*
  Basis Set:
  Basis Set: 6-31G*
  Basis Set:
  @DF-RHF Final Energy:  -348.09225180637640
    Total Energy =                       -348.0922518063763391
  Basis Set: 6-31G*
  Basis Set:
  Charge       = 0
  Multiplicity = 1
  Basis Set: 6-31G*
  Basis Set:

    Orbital Energies (a.u.)
    -----------------------

    Doubly Occupied:

       1A    -20.545247     2A    -11.323129     3A    -11.229654
       4A    -11.228091     5A    -11.226649     6A    -11.223493
       7A    -11.219420     8A    -11.210487     9A     -1.390634
      10A     -1.096143    11A     -1.043893    12A     -1.001064
      13A     -0.940320    14A     -0.859205    15A     -0.789393
      16A     -0.734916    17A     -0.662560    18A     -0.645509
      19A     -0.625989    20A     -0.618330    21A     -0.592666
      22A     -0.582073    23A     -0.564680    24A     -0.552430
      25A     -0.533550    26A     -0.509776    27A     -0.502282
      28A     -0.488914    29A     -0.470020    30A     -0.464172
      31A     -0.448294    32A     -0.401904

  @DF-RHF Final Energy:  -348.09063002146075

   => Energetics <=

    Nuclear Repulsion Energy =            377.7925962850920882
    One-Electron Energy =               -1220.3166799943869592
    Two-Electron Energy =                 494.4334536878341737
    DFT Exchange-Correlation Energy =       0.0000000000000000
    Empirical Dispersion Energy =           0.0000000000000000
    PCM Polarization Energy =               0.0000000000000000
    EFP Energy =                            0.0000000000000000
    Total Energy =                       -348.0906300214607541
    Molecular point group: c1
  Basis Set: 6-31G*
  Basis Set:

  -Total Gradient:
     Atom            X                  Y                   Z
    ------   -----------------  -----------------  -----------------
       1       -0.000700630259     0.003674931845     0.004814399602
       2        0.004269422140    -0.005310837116    -0.009051527696
       3        0.003804781333    -0.020331348617     0.007692051663
       4        0.005198171262     0.016631163393     0.006644781402
       5        0.006179240149    -0.001514237689    -0.008339568987
       6       -0.004169102195     0.008587138276    -0.003036171710
       7        0.001386307220     0.005437060465     0.003134978355
       8       -0.016419257362     0.007541129280    -0.012814379953
       9       -0.001768230770     0.001994152768    -0.000324491645
      10       -0.005077016459    -0.003651224260     0.006291526249
      11        0.015430933666    -0.000270723596     0.006208690254
      12       -0.000174367890    -0.003463693233     0.007806969195
      13        0.002370427331    -0.003610649869    -0.000782358803
      14        0.003954754092     0.001638916595     0.008191605909
      15       -0.003810682541    -0.001275260696     0.002075344414
      16        0.000403610530     0.004563697471    -0.007255634765
      17       -0.001316051043    -0.001664702258    -0.000630429494
      18       -0.007756683751    -0.002106751058    -0.003630859452
      19        0.000557717447    -0.000534062464    -0.001124637202
      20       -0.003059992446    -0.004978167800    -0.004809467152
      21       -0.004689922459     0.001547085893     0.002093620825
      22        0.005386572010    -0.002903617328    -0.003154441012

    Molecular point group: c1

    Geometry (in Angstrom), charge = 0, multiplicity = 1:

    O           -2.517079197380    -0.506077191292     1.009543862211
    C           -1.907452095925    -0.741534076663     0.014642247308
    C           -1.147671829583     0.364909042417    -0.678670433101
    C           -1.837286349917    -2.127609464109    -0.566438564784
    C            0.153446196894     0.728641814696     0.080230376399
    H           -1.818721130798     1.221334220921    -0.728792265859
    H           -0.911888657466     0.109631944564    -1.706153700453
    C            1.404207929050     0.121768585975    -0.551898226511
    H            0.260058438413     1.800526922260     0.117821851648
    H            0.058325638540     0.392071108610     1.096637836921
    C            2.698854877253     0.350256214631     0.248977636833
    H            1.524738916347     0.514532812043    -1.558717532541
    H            1.263302426768    -0.952487237761    -0.655108460216
    C            3.102219017906     1.817937135002     0.384731778461
    H            3.489922753291    -0.229682155332    -0.218085205774
    H            2.561523046793    -0.081852339194     1.237183987232
    H            3.173106260778     2.284257015436    -0.597696780124
    H            4.061427155589     1.904492263866     0.870795357199
    H            2.389669040397     2.372804793660     0.979474765737
    H           -2.341433578865    -2.196104458810    -1.527292360119
    H           -2.327106005923    -2.815611987145     0.106741083241
    H           -0.801073719423    -2.416607189272    -0.717446634268

  Mulliken Charges: (a.u.)
   Center  Symbol    Alpha    Beta     Spin     Total
       1     O     4.26536  4.26536  0.00000 -0.53072
       2     C     2.73520  2.73520  0.00000  0.52960
       3     C     3.20205  3.20205  0.00000 -0.40410
       4     C     3.29381  3.29381  0.00000 -0.58761
       5     C     3.16476  3.16476  0.00000 -0.32952
       6     H     0.40015  0.40015  0.00000  0.19971
       7     H     0.41474  0.41474  0.00000  0.17051
       8     C     3.15796  3.15796  0.00000 -0.31592
       9     H     0.41060  0.41060  0.00000  0.17879
      10     H     0.40638  0.40638  0.00000  0.18724
      11     C     3.15378  3.15378  0.00000 -0.30756
      12     H     0.42058  0.42058  0.00000  0.15885
      13     H     0.42428  0.42428  0.00000  0.15144
      14     C     3.24258  3.24258  0.00000 -0.48517
      15     H     0.41960  0.41960  0.00000  0.16081
      16     H     0.42017  0.42017  0.00000  0.15967
      17     H     0.42307  0.42307  0.00000  0.15386
      18     H     0.41622  0.41622  0.00000  0.16757
      19     H     0.41790  0.41790  0.00000  0.16420
      20     H     0.40660  0.40660  0.00000  0.18680
      21     H     0.39674  0.39674  0.00000  0.20652
      22     H     0.40748  0.40748  0.00000  0.18503

   Total alpha = 32.00000, Total beta = 32.00000, Total charge =  0.00000
