  ==> Input File <==

--------------------------------------------------------------------------
set {
	reference rhf
	basis cc-pvtz
}

set_num_threads( 4 )
memory 2 gb

molecule MOL {
0 1

H	 -3.056924	 1.980120	 0.212608
C	 -2.396608	 2.153811	 1.059189
O	 -1.062434	 2.020513	 0.698976
H	 -2.544143	 3.163516	 1.413615
H	 -2.667441	 1.461351	 1.854193
C	 -0.718530	 0.758693	 0.228682
C	 0.718529	 0.758687	 -0.228709
H	 -0.837693	 0.016449	 1.017887
H	 -1.358303	 0.470120	 -0.602490
O	 1.401606	 -0.295166	 0.366636
H	 0.748705	 0.673477	 -1.312803
H	 1.176496	 1.708671	 0.046552
C	 2.714315	 -0.441627	 -0.061017
H	 2.765292	 -0.641548	 -1.128869
H	 3.305661	 0.447341	 0.150952
H	 3.143725	 -1.278506	 0.470147

	symmetry c1
}
set optking {
	frozen_dihedral = ("
		3 6 7 11
	")
}

ee = optimize('scf')
oeprop('DIPOLE', 'QUADRUPOLE', 'MULLIKEN_CHARGES')
f=open( 'psi4out.xyz', 'w' )
f.write( "16  " )
f.write( str(ee) + "\n" )
f.write( MOL.save_string_xyz() )
f.close()
--------------------------------------------------------------------------

    Molecular point group: c1
  Charge       = 0
  Multiplicity = 1
  Basis Set: CC-PVTZ
  Basis Set:
  @DF-RHF Final Energy:  -307.09385852923651
    Total Energy =                       -307.0938585292365133
    Molecular point group: c1
  Basis Set: CC-PVTZ
  Basis Set:
  Basis Set: CC-PVTZ
  Basis Set:
  @DF-RHF Final Energy:  -307.09440180002360
    Total Energy =                       -307.0944018000234905
  Basis Set: CC-PVTZ
  Basis Set:
  Basis Set: CC-PVTZ
  Basis Set:
  @DF-RHF Final Energy:  -307.09445543093364
    Total Energy =                       -307.0944554309334649
  Basis Set: CC-PVTZ
  Basis Set:
  Basis Set: CC-PVTZ
  Basis Set:
  @DF-RHF Final Energy:  -307.09446043560530
    Total Energy =                       -307.0944604356054697
  Basis Set: CC-PVTZ
  Basis Set:
  Charge       = 0
  Multiplicity = 1
  Basis Set: CC-PVTZ
  Basis Set:

    Orbital Energies (a.u.)
    -----------------------

    Doubly Occupied:

       1A    -20.551274     2A    -20.551014     3A    -11.266505
       4A    -11.265858     5A    -11.263512     6A    -11.263409
       7A     -1.390710     8A     -1.378838     9A     -1.028714
      10A     -0.940492    11A     -0.885282    12A     -0.832040
      13A     -0.689845    14A     -0.678395    15A     -0.659458
      16A     -0.646210    17A     -0.627602    18A     -0.600295
      19A     -0.561011    20A     -0.526681    21A     -0.508775
      22A     -0.483301    23A     -0.467659    24A     -0.423764
      25A     -0.415343

  @DF-RHF Final Energy:  -307.09446067036549

   => Energetics <=

    Nuclear Repulsion Energy =            255.2731151740717621
    One-Electron Energy =                -924.9231780525540216
    Two-Electron Energy =                 362.5556022081163974
    DFT Exchange-Correlation Energy =       0.0000000000000000
    Empirical Dispersion Energy =           0.0000000000000000
    PCM Polarization Energy =               0.0000000000000000
    EFP Energy =                            0.0000000000000000
    Total Energy =                       -307.0944606703658337
    Molecular point group: c1
  Basis Set: CC-PVTZ
  Basis Set:

  -Total Gradient:
     Atom            X                  Y                   Z
    ------   -----------------  -----------------  -----------------
       1       -0.000002992613     0.000003340213    -0.000001903115
       2        0.000000364384    -0.000028169049    -0.000000202732
       3        0.000475677874    -0.000416837695     0.001424977149
       4        0.000012656070     0.000000253390    -0.000008181643
       5        0.000000376598     0.000000084392     0.000000586291
       6       -0.000610039488     0.000003244934    -0.001808039484
       7        0.000118160807     0.002382838507     0.000214484680
       8       -0.000004113390     0.000002418555     0.000010853627
       9        0.000013170510     0.000017592339    -0.000003688492
      10       -0.000036343793     0.000032331527    -0.000008891815
      11        0.000038581777    -0.002020849405     0.000188297121
      12        0.000006762652     0.000003696084     0.000003490497
      13        0.000007291320     0.000024271627    -0.000012415181
      14        0.000000882629    -0.000003783244    -0.000001345668
      15       -0.000001741338    -0.000000126480     0.000000918772
      16       -0.000018693999    -0.000000305691     0.000001059992

  **** Optimization is complete! (in 5 steps) ****
    Final optimized geometry and variables:
    Molecular point group: c1

    Geometry (in Angstrom), charge = 0, multiplicity = 1:

    H           -3.195507128079     1.120272952550    -0.042331466030
    C           -2.486707129438     1.330795825366     0.755773672128
    O           -1.174495612939     1.208349824466     0.317368598372
    H           -2.630664597085     2.348275038501     1.088956363567
    H           -2.693510477302     0.657690831427     1.584795072210
    C           -0.841045947361    -0.066819034279    -0.137205440323
    C            0.612600140044    -0.069511953299    -0.596519500854
    H           -0.947230210535    -0.794266313436     0.661737222487
    H           -1.506926876932    -0.359455083319    -0.945839108696
    O            1.273243172055    -1.144297212977    -0.000620892799
    H            0.677588285082    -0.165052081584    -1.678056027449
    H            1.070426749007     0.871052136301    -0.307479772591
    C            2.609468352303    -1.260748884137    -0.360888319938
    H            2.722067009892    -1.415264814315    -1.431997246256
    H            3.176005562113    -0.375543917468    -0.080602956503
    H            3.018924502907    -2.115037390489     0.158306910989

  Mulliken Charges: (a.u.)
   Center  Symbol    Alpha    Beta     Spin     Total
       1     H     0.47197  0.47197  0.00000  0.05605
       2     C     3.02888  3.02888  0.00000 -0.05776
       3     O     4.17402  4.17402  0.00000 -0.34803
       4     H     0.44661  0.44661  0.00000  0.10678
       5     H     0.47096  0.47096  0.00000  0.05808
       6     C     2.96772  2.96772  0.00000  0.06455
       7     C     2.96773  2.96773  0.00000  0.06454
       8     H     0.46515  0.46515  0.00000  0.06970
       9     H     0.47464  0.47464  0.00000  0.05071
      10     O     4.17421  4.17421  0.00000 -0.34842
      11     H     0.47482  0.47482  0.00000  0.05035
      12     H     0.46467  0.46467  0.00000  0.07066
      13     C     3.02879  3.02879  0.00000 -0.05759
      14     H     0.47219  0.47219  0.00000  0.05561
      15     H     0.47099  0.47099  0.00000  0.05802
      16     H     0.44663  0.44663  0.00000  0.10674

   Total alpha = 25.00000, Total beta = 25.00000, Total charge = -0.00000
