  ==> Input File <==

--------------------------------------------------------------------------
set {
	reference rhf
	basis 6-31G*
}

set_num_threads( 4 )
memory 2 gb

molecule MOL {
0 1

H	 -2.039771	 2.363625	 -2.365635
C	 -1.119564	 2.894720	 -2.639092
C	 -0.343401	 3.463765	 -1.478761
O	 -0.800722	 2.988612	 -3.779826
C	 -0.058212	 2.417953	 -0.391931
H	 0.571659	 3.901178	 -1.860919
H	 -0.945260	 4.266396	 -1.054256
C	 0.896674	 1.310897	 -0.845711
H	 0.361824	 2.925119	 0.471572
H	 -0.997024	 1.978897	 -0.057836
C	 1.180775	 0.282413	 0.250794
H	 1.831913	 1.759912	 -1.173676
H	 0.485641	 0.802759	 -1.715991
C	 2.148627	 -0.814315	 -0.201312
H	 1.581192	 0.796783	 1.120749
H	 0.244156	 -0.173820	 0.568570
C	 3.580890	 -0.659131	 0.322722
H	 2.166869	 -0.852443	 -1.289387
H	 1.762857	 -1.776509	 0.128956
C	 4.324889	 0.564933	 -0.213704
H	 4.142010	 -1.551473	 0.056605
H	 3.564836	 -0.624694	 1.410140
H	 4.342616	 0.565491	 -1.300421
H	 3.866655	 1.493402	 0.110242
H	 5.353900	 0.572371	 0.132816

	symmetry c1
}
set optking {
	frozen_dihedral = ("
		8 11 14 18
	")
}

ee = optimize('scf')
oeprop('DIPOLE', 'QUADRUPOLE', 'MULLIKEN_CHARGES')
f=open( 'psi4out.xyz', 'w' )
f.write( "25  " )
f.write( str(ee) + "\n" )
f.write( MOL.save_string_xyz() )
f.close()
--------------------------------------------------------------------------

    Molecular point group: c1
  Charge       = 0
  Multiplicity = 1
  Basis Set: 6-31G*
  Basis Set:
  @DF-RHF Final Energy:  -387.11702727192755
    Total Energy =                       -387.1170272719277818
    Molecular point group: c1
  Basis Set: 6-31G*
  Basis Set:
  Basis Set: 6-31G*
  Basis Set:
  @DF-RHF Final Energy:  -387.11710493617034
    Total Energy =                       -387.1171049361704490
  Basis Set: 6-31G*
  Basis Set:
  Basis Set: 6-31G*
  Basis Set:
  @DF-RHF Final Energy:  -387.11727668261716
    Total Energy =                       -387.1172766826174438
  Basis Set: 6-31G*
  Basis Set:
  Basis Set: 6-31G*
  Basis Set:
  @DF-RHF Final Energy:  -387.11743330594123
    Total Energy =                       -387.1174333059410628
  Basis Set: 6-31G*
  Basis Set:
  Basis Set: 6-31G*
  Basis Set:
  @DF-RHF Final Energy:  -387.11743723898053
    Total Energy =                       -387.1174372389813243
  Basis Set: 6-31G*
  Basis Set:
  Basis Set: 6-31G*
  Basis Set:
  @DF-RHF Final Energy:  -387.11742602478847
    Total Energy =                       -387.1174260247885286
  Basis Set: 6-31G*
  Basis Set:
  Basis Set: 6-31G*
  Basis Set:
  @DF-RHF Final Energy:  -387.11744244208268
    Total Energy =                       -387.1174424420830746
  Basis Set: 6-31G*
  Basis Set:
  Charge       = 0
  Multiplicity = 1
  Basis Set: 6-31G*
  Basis Set:

    Orbital Energies (a.u.)
    -----------------------

    Doubly Occupied:

       1A    -20.561966     2A    -11.326128     3A    -11.235146
       4A    -11.234554     5A    -11.223475     6A    -11.220268
       7A    -11.218076     8A    -11.216969     9A    -11.210887
      10A     -1.401901    11A     -1.103124    12A     -1.068423
      13A     -1.011238    14A     -0.944284    15A     -0.875999
      16A     -0.820487    17A     -0.788022    18A     -0.780553
      19A     -0.664472    20A     -0.660724    21A     -0.631299
      22A     -0.623673    23A     -0.606979    24A     -0.593061
      25A     -0.567372    26A     -0.557484    27A     -0.532942
      28A     -0.522572    29A     -0.515307    30A     -0.495875
      31A     -0.486724    32A     -0.485193    33A     -0.463173
      34A     -0.451206    35A     -0.441760    36A     -0.409509

  @DF-RHF Final Energy:  -387.11744219953283

   => Energetics <=

    Nuclear Repulsion Energy =            446.5820843361776156
    One-Electron Energy =               -1409.4973965237725224
    Two-Electron Energy =                 575.7978699880630984
    DFT Exchange-Correlation Energy =       0.0000000000000000
    Empirical Dispersion Energy =           0.0000000000000000
    PCM Polarization Energy =               0.0000000000000000
    EFP Energy =                            0.0000000000000000
    Total Energy =                       -387.1174421995318653
    Molecular point group: c1
  Basis Set: 6-31G*
  Basis Set:

  -Total Gradient:
     Atom            X                  Y                   Z
    ------   -----------------  -----------------  -----------------
       1       -0.000014828721     0.000007738307    -0.000018628689
       2        0.000019214987    -0.000010498480     0.000020989709
       3        0.000012787507    -0.000015772215     0.000011844997
       4       -0.000023887304     0.000002776541    -0.000018033860
       5       -0.000007509265    -0.000011314575    -0.000003620729
       6        0.000005333096    -0.000011885974    -0.000005624752
       7        0.000011155125    -0.000010748444     0.000011145508
       8       -0.000487183504    -0.000234984741    -0.000193605104
       9       -0.000003614291     0.000017610610     0.000010773651
      10       -0.000001107172    -0.000003857026    -0.000006779247
      11        0.000718244632     0.000754578099     0.000286107046
      12       -0.000009280161    -0.000030816779     0.000000023490
      13       -0.000026616658     0.000013865689     0.000000231822
      14       -0.000923655343    -0.001025605174    -0.000010145090
      15       -0.000074371762    -0.000005598417     0.000058892579
      16        0.000050349210     0.000076478256    -0.000031304120
      17       -0.000003904179    -0.000005934139    -0.000023798290
      18        0.000685488915     0.000509075647     0.000027022273
      19        0.000054858605    -0.000034433530    -0.000044267418
      20        0.000033605020    -0.000005112144    -0.000065957842
      21       -0.000018383788     0.000032317403    -0.000022898690
      22       -0.000020258139    -0.000031872480     0.000014155100
      23        0.000043573914     0.000009404918     0.000006989808
      24       -0.000013380141    -0.000012706591    -0.000005903232
      25       -0.000006630582     0.000027295238     0.000002391084

  **** Optimization is complete! (in 8 steps) ****
    Final optimized geometry and variables:
    Molecular point group: c1

    Geometry (in Angstrom), charge = 0, multiplicity = 1:

    H           -3.177910947727     0.995558564077    -1.304186394268
    C           -2.259481158370     1.512590618396    -1.609104225569
    C           -1.444051012564     2.084122201086    -0.477162788766
    O           -1.975670106136     1.596118718242    -2.759916556383
    C           -1.134894152011     1.044534651593     0.609257328814
    H           -0.537193629890     2.510374051381    -0.890388585250
    H           -2.025952989068     2.895373057471    -0.041600749544
    C           -0.195393262952    -0.068632694763     0.139246151072
    H           -0.692177004779     1.555979271860     1.459159817439
    H           -2.066417818233     0.610858296385     0.969571730790
    C            0.095279357175    -1.100206182825     1.233653068474
    H            0.731809731183     0.374647292025    -0.213856914388
    H           -0.628653220291    -0.579639265785    -0.718534938174
    C            1.071991212911    -2.218501802740     0.808927943019
    H            0.478003190662    -0.593563183384     2.117443463997
    H           -0.849622453741    -1.545075752306     1.535639897186
    C            2.502655572153    -2.066725002946     1.341790627735
    H            1.106534256420    -2.279265018884    -0.276973555101
    H            0.690327709441    -3.176030204290     1.151228442328
    C            3.248940680208    -0.829474261724     0.841090869332
    H            3.068084506250    -2.952380436079     1.062308586943
    H            2.476739984484    -2.054764103469     2.429561132214
    H            3.300220995886    -0.814145263367    -0.244041837017
    H            2.770186954286     0.089686416415     1.163716530544
    H            4.266404521676    -0.814680919842     1.219494969374

  Mulliken Charges: (a.u.)
   Center  Symbol    Alpha    Beta     Spin     Total
       1     H     0.43260  0.43260  0.00000  0.13480
       2     C     2.83078  2.83078  0.00000  0.33844
       3     C     3.20809  3.20809  0.00000 -0.41617
       4     O     4.23782  4.23782  0.00000 -0.47564
       5     C     3.16728  3.16728  0.00000 -0.33456
       6     H     0.39972  0.39972  0.00000  0.20057
       7     H     0.40666  0.40666  0.00000  0.18669
       8     C     3.15747  3.15747  0.00000 -0.31495
       9     H     0.41302  0.41302  0.00000  0.17395
      10     H     0.41971  0.41971  0.00000  0.16058
      11     C     3.15735  3.15735  0.00000 -0.31470
      12     H     0.41530  0.41530  0.00000  0.16941
      13     H     0.41804  0.41804  0.00000  0.16393
      14     C     3.15657  3.15657  0.00000 -0.31313
      15     H     0.42112  0.42112  0.00000  0.15776
      16     H     0.42052  0.42052  0.00000  0.15897
      17     C     3.15231  3.15231  0.00000 -0.30462
      18     H     0.42016  0.42016  0.00000  0.15968
      19     H     0.41865  0.41865  0.00000  0.16270
      20     C     3.24138  3.24138  0.00000 -0.48276
      21     H     0.42089  0.42089  0.00000  0.15823
      22     H     0.42340  0.42340  0.00000  0.15320
      23     H     0.42072  0.42072  0.00000  0.15856
      24     H     0.42198  0.42198  0.00000  0.15604
      25     H     0.41850  0.41850  0.00000  0.16301

   Total alpha = 36.00000, Total beta = 36.00000, Total charge =  0.00000
