  ==> Input File <==

--------------------------------------------------------------------------
set {
	reference rhf
	basis 6-31G*
}

set_num_threads( 4 )
memory 2 gb

molecule MOL {
0 1

H	 2.754870	 0.203696	 -0.861319
N	 2.332695	 -0.069570	 0.000000
C	 0.936681	 -0.007078	 0.000000
H	 2.703625	 -0.941083	 0.312495
C	 0.227108	 -0.002120	 -1.198267
C	 0.227108	 -0.002120	 1.198267
H	 0.761569	 -0.014657	 -2.132680
C	 -1.156334	 0.010459	 -1.192360
H	 0.761569	 -0.014657	 2.132680
C	 -1.156334	 0.010459	 1.192360
H	 -1.684791	 0.014915	 -2.129421
C	 -1.862085	 0.017996	 0.000000
H	 -1.684791	 0.014915	 2.129421
H	 -2.936703	 0.028387	 0.000000

	symmetry c1
}
set optking {
	frozen_dihedral = ("
		1 2 3 5
	")
}

ee = optimize('scf')
oeprop('DIPOLE', 'QUADRUPOLE', 'MULLIKEN_CHARGES')
f=open( 'psi4out.xyz', 'w' )
f.write( "14  " )
f.write( str(ee) + "\n" )
f.write( MOL.save_string_xyz() )
f.close()
--------------------------------------------------------------------------

    Molecular point group: c1
  Charge       = 0
  Multiplicity = 1
  Basis Set: 6-31G*
  Basis Set:
  @DF-RHF Final Energy:  -285.72639425565450
    Total Energy =                       -285.7263942556545544
    Molecular point group: c1
  Basis Set: 6-31G*
  Basis Set:
  Basis Set: 6-31G*
  Basis Set:
  @DF-RHF Final Energy:  -285.72689499950144
    Total Energy =                       -285.7268949995014964
  Basis Set: 6-31G*
  Basis Set:
  Basis Set: 6-31G*
  Basis Set:
  @DF-RHF Final Energy:  -285.72697364634433
    Total Energy =                       -285.7269736463446179
  Basis Set: 6-31G*
  Basis Set:
  Basis Set: 6-31G*
  Basis Set:
  @DF-RHF Final Energy:  -285.72699431127893
    Total Energy =                       -285.7269943112787587
  Basis Set: 6-31G*
  Basis Set:
  Charge       = 0
  Multiplicity = 1
  Basis Set: 6-31G*
  Basis Set:

    Orbital Energies (a.u.)
    -----------------------

    Doubly Occupied:

       1A    -15.551290     2A    -11.264018     3A    -11.228813
       4A    -11.227735     5A    -11.221996     6A    -11.220166
       7A    -11.218358     8A     -1.211257     9A     -1.125406
      10A     -1.010057    11A     -0.984383    12A     -0.826789
      13A     -0.807198    14A     -0.701477    15A     -0.674302
      16A     -0.647901    17A     -0.611623    18A     -0.590846
      19A     -0.580553    20A     -0.509151    21A     -0.500773
      22A     -0.487850    23A     -0.424506    24A     -0.330478
      25A     -0.304993

  @DF-RHF Final Energy:  -285.72699972862750

   => Energetics <=

    Nuclear Repulsion Energy =            272.6732023058013397
    One-Electron Energy =                -926.2765685095548633
    Two-Electron Energy =                 367.8763664751260762
    DFT Exchange-Correlation Energy =       0.0000000000000000
    Empirical Dispersion Energy =           0.0000000000000000
    PCM Polarization Energy =               0.0000000000000000
    EFP Energy =                            0.0000000000000000
    Total Energy =                       -285.7269997286273906
    Molecular point group: c1
  Basis Set: 6-31G*
  Basis Set:

  -Total Gradient:
     Atom            X                  Y                   Z
    ------   -----------------  -----------------  -----------------
       1        0.000004220076     0.003473176927     0.001281706856
       2        0.000077488458    -0.005996879422    -0.001613746451
       3       -0.000063188872     0.005326884948     0.000144884091
       4       -0.000074974982     0.000068741912     0.000019747020
       5        0.000182525990    -0.002841308103     0.000065467304
       6       -0.000044026007    -0.000035346624     0.000148957049
       7       -0.000016048103     0.000010821132     0.000021266226
       8       -0.000183258656    -0.000076265980     0.000067080699
       9        0.000057957260     0.000025625047    -0.000027935177
      10        0.000049133411    -0.000035718315     0.000071969493
      11       -0.000036439263     0.000010602161     0.000028912544
      12        0.000079910144     0.000065026659    -0.000132936046
      13       -0.000008001206     0.000001933784    -0.000040596214
      14       -0.000025298250     0.000002705874    -0.000034777390

  **** Optimization is complete! (in 5 steps) ****
    Final optimized geometry and variables:
    Molecular point group: c1

    Geometry (in Angstrom), charge = 0, multiplicity = 1:

    H            2.766870830615     0.255583697666    -0.823550528113
    N            2.345946016448    -0.039180103064     0.032252633840
    C            0.931613285949    -0.007398504575    -0.004542134976
    H            2.715790415272    -0.923553120280     0.313941410572
    C            0.221286820499    -0.004855035688    -1.198198596285
    C            0.229143404874     0.004504741965     1.196239392155
    H            0.753113673717    -0.030633601924    -2.134014730036
    C           -1.164749649303     0.036970347423    -1.191822512832
    H            0.779403642713     0.015249319818     2.119845325963
    C           -1.153739211496     0.019224733678     1.198571675848
    H           -1.698879048253     0.050474237412    -2.125481141790
    C           -1.859810695443     0.042608757361     0.004541788232
    H           -1.682456788175     0.027204488179     2.135321777407
    H           -2.934696706423     0.065880290625     0.008779403123

  Mulliken Charges: (a.u.)
   Center  Symbol    Alpha    Beta     Spin     Total
       1     H     0.32301  0.32301  0.00000  0.35398
       2     N     3.94832  3.94832  0.00000 -0.89663
       3     C     2.87626  2.87626  0.00000  0.24749
       4     H     0.31965  0.31965  0.00000  0.36071
       5     C     3.12046  3.12046  0.00000 -0.24092
       6     C     3.10986  3.10986  0.00000 -0.21972
       7     H     0.40448  0.40448  0.00000  0.19103
       8     C     3.09512  3.09512  0.00000 -0.19025
       9     H     0.39670  0.39670  0.00000  0.20660
      10     C     3.09565  3.09565  0.00000 -0.19130
      11     H     0.40051  0.40051  0.00000  0.19898
      12     C     3.10824  3.10824  0.00000 -0.21647
      13     H     0.40023  0.40023  0.00000  0.19954
      14     H     0.40152  0.40152  0.00000  0.19696

   Total alpha = 25.00000, Total beta = 25.00000, Total charge =  0.00000
