                              Psi4 1.0.54 Driver

  ==> Input File <==

--------------------------------------------------------------------------
set {
	reference rhf
	basis cc-pvtz
}

set_num_threads( 4 )
memory 2 gb

molecule MOL {
0 1

H	 2.462485	 -2.216993	 0.000000
O	 2.777472	 -1.330706	 0.000000
C	 1.763288	 -0.447523	 0.000000
C	 1.800181	 0.569590	 -0.942995
C	 0.713935	 -0.524713	 0.890651
H	 2.625297	 0.611109	 -1.626087
C	 0.789640	 1.502284	 -0.990343
H	 0.659953	 -1.298312	 1.628165
C	 -0.282653	 0.428051	 0.814345
H	 0.826564	 2.284790	 -1.722511
C	 -0.274900	 1.445694	 -0.106320
N	 -1.396408	 0.339710	 1.765421
H	 -1.066232	 2.162558	 -0.131258
O	 -1.378503	 -0.549372	 2.550461
O	 -2.246617	 1.161021	 1.692692

	symmetry c1
}
set optking {
	frozen_dihedral = ("
		4 3 2 1
	")
}

ee,wfn = optimize('scf', return_wfn=True)
oeprop( wfn, 'DIPOLE', 'QUADRUPOLE', 'MULLIKEN_CHARGES')
f=open( 'psi4out.xyz', 'w' )
f.write( "15  " )
f.write( str(ee) + "\n" )
f.write( MOL.save_string_xyz() )
f.close()
--------------------------------------------------------------------------

    Molecular point group: c1
  Charge       = 0
  Multiplicity = 1
  Basis Set: CC-PVTZ
  Basis Set:
  @DF-RHF Final Energy:  -509.21612509997914
    Total Energy =                       -509.2161250999790809
    Molecular point group: c1
  Basis Set: CC-PVTZ
  Basis Set:
  Basis Set: CC-PVTZ
  Basis Set:
  @DF-RHF Final Energy:  -509.21622883691913
    Total Energy =                       -509.2162288369191856
  Basis Set: CC-PVTZ
  Basis Set:
  Basis Set: CC-PVTZ
  Basis Set:
  @DF-RHF Final Energy:  -509.21573411276410
    Total Energy =                       -509.2157341127643804
  Basis Set: CC-PVTZ
  Basis Set:
  Basis Set: CC-PVTZ
  Basis Set:
  @DF-RHF Final Energy:  -509.21632796480776
    Total Energy =                       -509.2163279648075331
  Basis Set: CC-PVTZ
  Basis Set:
  Basis Set: CC-PVTZ
  Basis Set:
  @DF-RHF Final Energy:  -509.21629662920918
    Total Energy =                       -509.2162966292090687
  Basis Set: CC-PVTZ
  Basis Set:
  Basis Set: CC-PVTZ
  Basis Set:
  @DF-RHF Final Energy:  -509.21639182651205
    Total Energy =                       -509.2163918265121083
  Basis Set: CC-PVTZ
  Basis Set:
  Charge       = 0
  Multiplicity = 1
  Basis Set: CC-PVTZ
  Basis Set:

    Orbital Energies (a.u.)
    -----------------------

    Doubly Occupied:

       1A    -20.599618     2A    -20.594675     3A    -20.594303
       4A    -15.850496     5A    -11.322409     6A    -11.308242
       7A    -11.264010     8A    -11.263213     9A    -11.261793
      10A    -11.258769    11A     -1.644129    12A     -1.429988
      13A     -1.426455    14A     -1.202977    15A     -1.095456
      16A     -1.048257    17A     -0.965876    18A     -0.875846
      19A     -0.833142    20A     -0.795971    21A     -0.749392
      22A     -0.743421    23A     -0.728597    24A     -0.710313
      25A     -0.680134    26A     -0.642218    27A     -0.629425
      28A     -0.574524    29A     -0.557527    30A     -0.541354
      31A     -0.518444    32A     -0.494727    33A     -0.491089
      34A     -0.460091    35A     -0.380014    36A     -0.355001

  @DF-RHF Final Energy:  -509.21639258547970

   => Energetics <=

    Nuclear Repulsion Energy =            504.3097676701775640
    One-Electron Energy =               -1695.2685361374406057
    Two-Electron Energy =                 681.7423758817828912
    DFT Exchange-Correlation Energy =       0.0000000000000000
    Empirical Dispersion Energy =           0.0000000000000000
    PCM Polarization Energy =               0.0000000000000000
    EFP Energy =                            0.0000000000000000
    Total Energy =                       -509.2163925854802073
    Molecular point group: c1
  Basis Set: CC-PVTZ
  Basis Set:

  -Total Gradient:
     Atom            X                  Y                   Z
    ------   -----------------  -----------------  -----------------
       1        0.000046068084    -0.000023129839    -0.002560468643
       2       -0.000420134317    -0.000547998624     0.002597172441
       3        0.001166824519     0.001622780650     0.001302090403
       4       -0.000968457711    -0.000949079195    -0.001265647229
       5        0.000187481808    -0.000100292321    -0.000083702568
       6        0.000005846745    -0.000005455783     0.000007448632
       7        0.000147173647    -0.000074837713    -0.000096675196
       8       -0.000004401847     0.000018547068     0.000000579363
       9       -0.000089159975     0.000131253781    -0.000086657931
      10       -0.000006767376     0.000000325097     0.000003100239
      11       -0.000025689688    -0.000059677958     0.000160367391
      12        0.000070928943     0.000066818733    -0.000130860900
      13        0.000013940203    -0.000005540847    -0.000019952379
      14       -0.000112250022     0.000049852084     0.000053096637
      15       -0.000011403008    -0.000123565137     0.000120109737

  **** Optimization is complete! (in 7 steps) ****
    Final optimized geometry and variables:
    Molecular point group: c1

    Geometry (in Angstrom), charge = 0, multiplicity = 1:

    H            2.275030978806    -2.437773583490    -0.600504276020
    O            2.594294535874    -1.552568807044    -0.600170941037
    C            1.571703483736    -0.662377621415    -0.629800688820
    C            1.608130759204     0.353403584299    -1.568801970284
    C            0.523813297490    -0.742971124538     0.263452554215
    H            2.431097345974     0.393511005104    -2.254625925870
    C            0.602470612423     1.296934768458    -1.607228825574
    H            0.484257115390    -1.515117609984     1.002272899342
    C           -0.473962872758     0.206189987690     0.189618315074
    H            0.639623568382     2.083605161113    -2.334771542197
    C           -0.459692963625     1.232932794282    -0.725370277340
    N           -1.591422105093     0.114536979980     1.134964788001
    H           -1.250369004788     1.950979806279    -0.745286439542
    O           -1.592872631372    -0.793874255306     1.897219964779
    O           -2.426888852163     0.952741234354     1.079712040781

  Mulliken Charges: (a.u.)
   Center  Symbol    Alpha    Beta     Spin     Total
       1     H     0.38241  0.38241  0.00000  0.23518
       2     O     4.18086  4.18086  0.00000 -0.36173
       3     C     2.86013  2.86013  0.00000  0.27973
       4     C     3.09648  3.09648  0.00000 -0.19296
       5     C     3.12228  3.12228  0.00000 -0.24456
       6     H     0.41072  0.41072  0.00000  0.17857
       7     C     3.06184  3.06184  0.00000 -0.12367
       8     H     0.39763  0.39763  0.00000  0.20474
       9     C     2.98078  2.98078  0.00000  0.03843
      10     H     0.41548  0.41548  0.00000  0.16905
      11     C     3.08961  3.08961  0.00000 -0.17922
      12     N     3.25007  3.25007  0.00000  0.49986
      13     H     0.39904  0.39904  0.00000  0.20192
      14     O     4.17732  4.17732  0.00000 -0.35465
      15     O     4.17534  4.17534  0.00000 -0.35069

   Total alpha = 36.00000, Total beta = 36.00000, Total charge =  0.00000

*** Psi4 exiting successfully. Buy a developer a beer!
