                              Psi4 1.0.54 Driver

  ==> Input File <==

--------------------------------------------------------------------------
set {
	reference rhf
	basis cc-pvtz
}

set_num_threads( 4 )
memory 2 gb

molecule MOL {
0 1

H	 1.651322	 -0.822465	 0.000000
O	 0.729993	 -1.034364	 0.000000
C	 0.037305	 0.100061	 0.000000
C	 0.930689	 1.304197	 -0.000000
O	 -1.144386	 0.120081	 -0.000000
H	 1.568693	 1.280691	 0.873995
H	 0.330633	 2.198992	 0.000000
H	 1.568693	 1.280691	 -0.873995

	symmetry c1
}
set optking {
	frozen_dihedral = ("
		4 3 2 1
	")
}

ee,wfn = optimize('scf', return_wfn=True)
oeprop( wfn, 'DIPOLE', 'QUADRUPOLE', 'MULLIKEN_CHARGES')
f=open( 'psi4out.xyz', 'w' )
f.write( "8  " )
f.write( str(ee) + "\n" )
f.write( MOL.save_string_xyz() )
f.close()
--------------------------------------------------------------------------

    Molecular point group: c1
  Charge       = 0
  Multiplicity = 1
  Basis Set: CC-PVTZ
  Basis Set:
  @DF-RHF Final Energy:  -227.89353541651741
    Total Energy =                       -227.8935354165175795
    Molecular point group: c1
  Basis Set: CC-PVTZ
  Basis Set:
  Basis Set: CC-PVTZ
  Basis Set:
  @DF-RHF Final Energy:  -227.89480818890601
    Total Energy =                       -227.8948081889059267
  Basis Set: CC-PVTZ
  Basis Set:
  Basis Set: CC-PVTZ
  Basis Set:
  @DF-RHF Final Energy:  -227.89502571591049
    Total Energy =                       -227.8950257159104353
  Basis Set: CC-PVTZ
  Basis Set:
  Charge       = 0
  Multiplicity = 1
  Basis Set: CC-PVTZ
  Basis Set:

    Orbital Energies (a.u.)
    -----------------------

    Doubly Occupied:

       1A    -20.607862     2A    -20.537958     3A    -11.377896
       4A    -11.250611     5A     -1.474528     6A     -1.376091
       7A     -1.028047     8A     -0.843780     9A     -0.723185
      10A     -0.672575    11A     -0.658982    12A     -0.605045
      13A     -0.572459    14A     -0.558466    15A     -0.482975
      16A     -0.449455

  @DF-RHF Final Energy:  -227.89502667435721

   => Energetics <=

    Nuclear Repulsion Energy =            122.6098719495997358
    One-Electron Energy =                -554.5699680241591523
    Two-Electron Energy =                 204.0650694002023045
    DFT Exchange-Correlation Energy =       0.0000000000000000
    Empirical Dispersion Energy =           0.0000000000000000
    PCM Polarization Energy =               0.0000000000000000
    EFP Energy =                            0.0000000000000000
    Total Energy =                       -227.8950266743571262
    Molecular point group: c1
  Basis Set: CC-PVTZ
  Basis Set:

  -Total Gradient:
     Atom            X                  Y                   Z
    ------   -----------------  -----------------  -----------------
       1       -0.000045108976     0.000015675106     0.000000412436
       2        0.000029763875    -0.000123542007     0.000001245433
       3       -0.000035876464     0.000126153605    -0.000006192610
       4        0.000004837889     0.000018780702     0.000002253784
       5        0.000070072638    -0.000041018636     0.000002453355
       6       -0.000012695986    -0.000006491670    -0.000009546332
       7        0.000002322433     0.000017433586    -0.000000064058
       8       -0.000013315412    -0.000006990685     0.000009437991

  **** Optimization is complete! (in 4 steps) ****
    Final optimized geometry and variables:
    Molecular point group: c1

    Geometry (in Angstrom), charge = 0, multiplicity = 1:

    H            1.469729398694    -1.047672115298     0.001179729774
    O            0.536205816825    -1.164697443950     0.000268698983
    C           -0.117132258536    -0.000305146383    -0.000120042398
    C            0.756105532461     1.228602488640     0.000950397427
    O           -1.292215924173     0.020971279873    -0.001195527326
    H            1.391592374994     1.232455677780     0.879357015401
    H            0.135734037415     2.109033380252     0.000554687879
    H            1.393227909449     1.232821235905    -0.876268889758

  Mulliken Charges: (a.u.)
   Center  Symbol    Alpha    Beta     Spin     Total
       1     H     0.38917  0.38917  0.00000  0.22166
       2     O     4.14248  4.14248  0.00000 -0.28497
       3     C     2.80889  2.80889  0.00000  0.38223
       4     C     3.15492  3.15492  0.00000 -0.30984
       5     O     4.17612  4.17612  0.00000 -0.35224
       6     H     0.44775  0.44775  0.00000  0.10449
       7     H     0.43291  0.43291  0.00000  0.13418
       8     H     0.44775  0.44775  0.00000  0.10449

   Total alpha = 16.00000, Total beta = 16.00000, Total charge =  0.00000

*** Psi4 exiting successfully. Buy a developer a beer!
