  ==> Input File <==

--------------------------------------------------------------------------
set {
	reference rhf
	basis 6-31G*
}

set_num_threads( 4 )
memory 2 gb

molecule MOL {
0 1

H	 -2.074013	 2.261891	 0.385027
C	 -1.694808	 1.270038	 0.224380
C	 -2.555177	 0.202469	 0.032001
C	 -0.334931	 1.045545	 0.207482
H	 -3.619110	 0.357057	 0.041579
C	 -2.053062	 -1.068868	 -0.173694
H	 0.356499	 1.849032	 0.352769
C	 0.154804	 -0.237046	 -0.000077
H	 -2.737114	 -1.883984	 -0.321190
C	 -0.686000	 -1.337526	 -0.197611
N	 1.611208	 -0.370857	 -0.000034
C	 -0.248004	 -2.766736	 -0.430951
O	 2.274126	 0.622059	 -0.008063
O	 2.068510	 -1.474748	 0.007823
H	 0.334090	 -3.144491	 0.398264
H	 -1.124600	 -3.390545	 -0.552678
H	 0.366000	 -2.854814	 -1.316595

	symmetry c1
}
set optking {
	frozen_dihedral = ("
		4 8 11 13
	")
}

ee = optimize('scf')
oeprop('DIPOLE', 'QUADRUPOLE', 'MULLIKEN_CHARGES')
f=open( 'psi4out.xyz', 'w' )
f.write( "17  " )
f.write( str(ee) + "\n" )
f.write( MOL.save_string_xyz() )
f.close()
--------------------------------------------------------------------------

    Molecular point group: c1
  Charge       = 0
  Multiplicity = 1
  Basis Set: 6-31G*
  Basis Set:
  @DF-RHF Final Energy:  -473.20642047507567
    Total Energy =                       -473.2064204750754470
    Molecular point group: c1
  Basis Set: 6-31G*
  Basis Set:
  Basis Set: 6-31G*
  Basis Set:
  @DF-RHF Final Energy:  -473.20652432592908
    Total Energy =                       -473.2065243259295357
  Basis Set: 6-31G*
  Basis Set:
  Basis Set: 6-31G*
  Basis Set:
  @DF-RHF Final Energy:  -473.20619404483841
    Total Energy =                       -473.2061940448379573
  Basis Set: 6-31G*
  Basis Set:
  Basis Set: 6-31G*
  Basis Set:
  @DF-RHF Final Energy:  -473.20657952753442
    Total Energy =                       -473.2065795275345863
  Basis Set: 6-31G*
  Basis Set:
  Basis Set: 6-31G*
  Basis Set:
  @DF-RHF Final Energy:  -473.20659828489875
    Total Energy =                       -473.2065982848985186
  Basis Set: 6-31G*
  Basis Set:
  Basis Set: 6-31G*
  Basis Set:
  @DF-RHF Final Energy:  -473.20660275962797
    Total Energy =                       -473.2066027596279127
  Basis Set: 6-31G*
  Basis Set:
  Charge       = 0
  Multiplicity = 1
  Basis Set: 6-31G*
  Basis Set:

    Orbital Energies (a.u.)
    -----------------------

    Doubly Occupied:

       1A    -20.598212     2A    -20.596074     3A    -15.853057
       4A    -11.300818     5A    -11.283146     6A    -11.265731
       7A    -11.264538     8A    -11.253784     9A    -11.252941
      10A    -11.232834    11A     -1.631577    12A     -1.413482
      13A     -1.199383    14A     -1.091313    15A     -1.071519
      16A     -0.979754    17A     -0.930430    18A     -0.846405
      19A     -0.822880    20A     -0.768558    21A     -0.731379
      22A     -0.725009    23A     -0.692996    24A     -0.663950
      25A     -0.637874    26A     -0.597760    27A     -0.588868
      28A     -0.561807    29A     -0.540944    30A     -0.519880
      31A     -0.518752    32A     -0.484515    33A     -0.476665
      34A     -0.447963    35A     -0.369884    36A     -0.353412

  @DF-RHF Final Energy:  -473.20660330759512

   => Energetics <=

    Nuclear Repulsion Energy =            509.7843817725700433
    One-Electron Energy =               -1654.8457772745252896
    Two-Electron Energy =                 671.8547921943599022
    DFT Exchange-Correlation Energy =       0.0000000000000000
    Empirical Dispersion Energy =           0.0000000000000000
    PCM Polarization Energy =               0.0000000000000000
    EFP Energy =                            0.0000000000000000
    Total Energy =                       -473.2066033075954010
    Molecular point group: c1
  Basis Set: 6-31G*
  Basis Set:

  -Total Gradient:
     Atom            X                  Y                   Z
    ------   -----------------  -----------------  -----------------
       1       -0.000000125830     0.000000800824     0.000000771111
       2        0.000004814704    -0.000002578968     0.000007459671
       3        0.000000061957     0.000001034338    -0.000000887784
       4        0.000008581900     0.000070762971    -0.000471361808
       5       -0.000000014033     0.000002132243     0.000001459738
       6       -0.000003165758    -0.000000726640     0.000016675848
       7        0.000002679987     0.000002534146     0.000006921779
       8       -0.000010987325    -0.000116227821     0.000854079792
       9        0.000002277573    -0.000000411928     0.000006753519
      10        0.000001849668     0.000015476661    -0.000080663547
      11        0.000011820003     0.000074835633    -0.000908874790
      12       -0.000001706216    -0.000012650396     0.000041743343
      13       -0.000018469779     0.000000346732     0.000539636511
      14       -0.000000326780    -0.000032210942    -0.000009282724
      15        0.000001158667    -0.000014797291    -0.000004933073
      16        0.000002414084     0.000002355761    -0.000000926095
      17       -0.000000862832     0.000009324677     0.000001428508

  **** Optimization is complete! (in 7 steps) ****
    Final optimized geometry and variables:
    Molecular point group: c1

    Geometry (in Angstrom), charge = 0, multiplicity = 1:

    H           -2.030302356335     2.703009227058     0.423916659303
    C           -1.651990086384     1.710669088862     0.264031979747
    C           -2.513731004521     0.641942207525     0.084179671864
    C           -0.292052169978     1.486998440176     0.233765167927
    H           -3.577487949209     0.796697333732     0.102019074644
    C           -2.013457770202    -0.629978948639    -0.123227228008
    H            0.401087015500     2.291740385473     0.364868644667
    C            0.194682138924     0.202309791869     0.034997766655
    H           -2.698452276040    -1.444855904574    -0.268152709101
    C           -0.646640670212    -0.898475144630    -0.153437579362
    N            1.650297423937     0.066052243485     0.028714511623
    C           -0.205738191627    -2.325259867652    -0.395471573110
    O            2.302020808370     1.067311952103     0.008504564100
    O            2.118300983257    -1.032079407435     0.054773667668
    H            0.305126139854    -2.731729016650     0.466679486674
    H           -1.075873324701    -2.935117433065    -0.603597372574
    H            0.475299179526    -2.397595100144    -1.232172689476

  Mulliken Charges: (a.u.)
   Center  Symbol    Alpha    Beta     Spin     Total
       1     H     0.38934  0.38934  0.00000  0.22133
       2     C     3.11200  3.11200  0.00000 -0.22400
       3     C     3.08044  3.08044  0.00000 -0.16089
       4     C     3.08415  3.08415  0.00000 -0.16829
       5     H     0.38941  0.38941  0.00000  0.22118
       6     C     3.12606  3.12606  0.00000 -0.25212
       7     H     0.36288  0.36288  0.00000  0.27423
       8     C     2.93627  2.93627  0.00000  0.12745
       9     H     0.39271  0.39271  0.00000  0.21457
      10     C     2.96299  2.96299  0.00000  0.07402
      11     N     3.24414  3.24414  0.00000  0.51173
      12     C     3.23583  3.23583  0.00000 -0.47166
      13     O     4.23640  4.23640  0.00000 -0.47281
      14     O     4.23678  4.23678  0.00000 -0.47356
      15     H     0.39616  0.39616  0.00000  0.20768
      16     H     0.41515  0.41515  0.00000  0.16970
      17     H     0.39928  0.39928  0.00000  0.20144

   Total alpha = 36.00000, Total beta = 36.00000, Total charge =  0.00000
