  ==> Input File <==

--------------------------------------------------------------------------
set {
	reference rhf
	basis cc-pvtz
}

set_num_threads( 4 )
memory 2 gb

molecule MOL {
0 1

O	 -1.278239	 1.034789	 -0.784693
C	 -1.204115	 0.062668	 -0.112312
C	 -2.386398	 -0.667698	 0.460323
O	 -0.068058	 -0.518372	 0.226882
H	 -2.382952	 -1.693172	 0.114333
H	 -3.296656	 -0.175702	 0.158400
H	 -2.312537	 -0.685191	 1.540100
C	 1.169086	 0.037484	 -0.230612
C	 1.817793	 -1.025413	 -1.094638
C	 2.024035	 0.440184	 0.957454
H	 0.941140	 0.909644	 -0.824301
H	 1.175298	 -1.287794	 -1.925365
H	 2.757306	 -0.659104	 -1.490676
H	 2.014758	 -1.921462	 -0.518237
H	 2.966304	 0.850040	 0.613002
H	 1.525431	 1.193093	 1.551736
H	 2.234065	 -0.419810	 1.583219

	symmetry c1
}
set optking {
	frozen_dihedral = ("
		11 8 4 2
	")
}

ee = optimize('scf')
oeprop('DIPOLE', 'QUADRUPOLE', 'MULLIKEN_CHARGES')
f=open( 'psi4out.xyz', 'w' )
f.write( "17  " )
f.write( str(ee) + "\n" )
f.write( MOL.save_string_xyz() )
f.close()
--------------------------------------------------------------------------

    Molecular point group: c1
  Charge       = 0
  Multiplicity = 1
  Basis Set: CC-PVTZ
  Basis Set:
  @DF-RHF Final Energy:  -345.04197689073186
    Total Energy =                       -345.0419768907318030
    Molecular point group: c1
  Basis Set: CC-PVTZ
  Basis Set:
  Basis Set: CC-PVTZ
  Basis Set:
  @DF-RHF Final Energy:  -345.04229532782870
    Total Energy =                       -345.0422953278284695
  Basis Set: CC-PVTZ
  Basis Set:
  Basis Set: CC-PVTZ
  Basis Set:
  @DF-RHF Final Energy:  -345.04241262323688
    Total Energy =                       -345.0424126232368280
  Basis Set: CC-PVTZ
  Basis Set:
  Basis Set: CC-PVTZ
  Basis Set:
  @DF-RHF Final Energy:  -345.04210957973226
    Total Energy =                       -345.0421095797321414
  Basis Set: CC-PVTZ
  Basis Set:
  Basis Set: CC-PVTZ
  Basis Set:
  @DF-RHF Final Energy:  -345.04242485397361
    Total Energy =                       -345.0424248539735572
  Basis Set: CC-PVTZ
  Basis Set:
  Charge       = 0
  Multiplicity = 1
  Basis Set: CC-PVTZ
  Basis Set:

    Orbital Energies (a.u.)
    -----------------------

    Doubly Occupied:

       1A    -20.590456     2A    -20.530994     3A    -11.367299
       4A    -11.286715     5A    -11.230199     6A    -11.217517
       7A    -11.217486     8A     -1.467056     9A     -1.364690
      10A     -1.080139    11A     -1.005499    12A     -0.949614
      13A     -0.849742    14A     -0.770317    15A     -0.695014
      16A     -0.665998    17A     -0.665045    18A     -0.614274
      19A     -0.587275    20A     -0.579268    21A     -0.568385
      22A     -0.551980    23A     -0.534920    24A     -0.525069
      25A     -0.504632    26A     -0.483005    27A     -0.446715
      28A     -0.440526

  @DF-RHF Final Energy:  -345.04242546868505

   => Energetics <=

    Nuclear Repulsion Energy =            322.2287461940802018
    One-Electron Energy =               -1108.9626851694913512
    Two-Electron Energy =                 441.6915135067259826
    DFT Exchange-Correlation Energy =       0.0000000000000000
    Empirical Dispersion Energy =           0.0000000000000000
    PCM Polarization Energy =               0.0000000000000000
    EFP Energy =                            0.0000000000000000
    Total Energy =                       -345.0424254686851100
    Molecular point group: c1
  Basis Set: CC-PVTZ
  Basis Set:

  -Total Gradient:
     Atom            X                  Y                   Z
    ------   -----------------  -----------------  -----------------
       1       -0.000100471470     0.000017884886    -0.000014092276
       2        0.000048784464     0.000022784257     0.000015800330
       3        0.000024194311    -0.000006613702    -0.000037737024
       4       -0.000012454167    -0.000072219871    -0.000019645310
       5        0.000007472501     0.000007862611     0.000004297261
       6       -0.000001628921     0.000007392364     0.000000017622
       7        0.000005917425     0.000012687471     0.000002981064
       8       -0.000002376010     0.000011146329     0.000025191734
       9       -0.000010489388    -0.000002370218     0.000000977032
      10        0.000027795523    -0.000004441244    -0.000014345458
      11        0.000019721315    -0.000017551753     0.000021735442
      12        0.000001478164    -0.000006039208    -0.000007948277
      13       -0.000018807221     0.000004120759     0.000009096741
      14       -0.000006254807     0.000002877454     0.000010831536
      15        0.000027064731     0.000014794916     0.000008804778
      16       -0.000006231981    -0.000002626618     0.000003418277
      17       -0.000003714473     0.000010311567    -0.000009383470

  **** Optimization is complete! (in 6 steps) ****
    Final optimized geometry and variables:
    Molecular point group: c1

    Geometry (in Angstrom), charge = 0, multiplicity = 1:

    O           -1.314483980834     1.131123793577    -0.703556569063
    C           -1.218922726714     0.163457270765    -0.028110493320
    C           -2.385894524722    -0.569125299408     0.572811622674
    O           -0.075748179500    -0.413832207867     0.296767683941
    H           -2.385249315269    -1.595831737628     0.230450558866
    H           -3.304417935143    -0.082171185601     0.288341258964
    H           -2.288773583709    -0.582539729342     1.650744678081
    C            1.166930004620     0.122466085722    -0.169786718270
    C            1.837333751330    -0.938011565718    -1.022503460812
    C            1.985612061946     0.518256852127     1.044473644899
    H            0.952474648740     0.992546153695    -0.767282541746
    H            1.218122319621    -1.191003985940    -1.873957192521
    H            2.788987683444    -0.573905451585    -1.391215033885
    H            2.014054368847    -1.838651230915    -0.446380462413
    H            2.941164477887     0.924529078108     0.734389206259
    H            1.468472138072     1.272576651932     1.624106617510
    H            2.167503380926    -0.339502072463     1.681200835306

  Mulliken Charges: (a.u.)
   Center  Symbol    Alpha    Beta     Spin     Total
       1     O     4.19930  4.19930  0.00000 -0.39859
       2     C     2.80222  2.80222  0.00000  0.39555
       3     C     3.14102  3.14102  0.00000 -0.28204
       4     O     4.16734  4.16734  0.00000 -0.33468
       5     H     0.44614  0.44614  0.00000  0.10773
       6     H     0.43849  0.43849  0.00000  0.12301
       7     H     0.44618  0.44618  0.00000  0.10765
       8     C     2.93776  2.93776  0.00000  0.12447
       9     C     3.14169  3.14169  0.00000 -0.28337
      10     C     3.14167  3.14167  0.00000 -0.28333
      11     H     0.43364  0.43364  0.00000  0.13272
      12     H     0.44649  0.44649  0.00000  0.10702
      13     H     0.45286  0.45286  0.00000  0.09428
      14     H     0.45293  0.45293  0.00000  0.09415
      15     H     0.45285  0.45285  0.00000  0.09429
      16     H     0.44651  0.44651  0.00000  0.10698
      17     H     0.45292  0.45292  0.00000  0.09416

   Total alpha = 28.00000, Total beta = 28.00000, Total charge = -0.00000
