  ==> Input File <==

--------------------------------------------------------------------------
set {
	reference rhf
	basis cc-pvtz
}

set_num_threads( 4 )
memory 2 gb

molecule MOL {
0 1

H	 2.570632	 -0.621407	 0.474944
O	 2.063695	 -0.083403	 -0.105237
C	 0.742924	 0.005675	 0.350750
H	 0.731380	 0.039219	 1.440080
C	 -0.064076	 -1.193495	 -0.124425
C	 -0.047832	 1.190568	 -0.194462
H	 0.194729	 -1.376165	 -1.161308
H	 0.163013	 -2.094508	 0.429933
C	 -1.533112	 -0.752002	 0.006102
H	 0.148003	 1.266545	 -1.259275
H	 0.226235	 2.136493	 0.259722
C	 -1.506634	 0.799189	 0.067162
H	 -2.124360	 -1.110499	 -0.826089
H	 -1.983103	 -1.158030	 0.903403
H	 -2.183808	 1.252169	 -0.644677
H	 -1.813926	 1.138698	 1.049457

	symmetry c1
}
set optking {
	frozen_dihedral = ("
		1 2 3 6
	")
}

ee = optimize('scf')
oeprop('DIPOLE', 'QUADRUPOLE', 'MULLIKEN_CHARGES')
f=open( 'psi4out.xyz', 'w' )
f.write( "16  " )
f.write( str(ee) + "\n" )
f.write( MOL.save_string_xyz() )
f.close()
--------------------------------------------------------------------------

    Molecular point group: c1
  Charge       = 0
  Multiplicity = 1
  Basis Set: CC-PVTZ
  Basis Set:
  @DF-RHF Final Energy:  -270.11506099911549
    Total Energy =                       -270.1150609991154852
    Molecular point group: c1
  Basis Set: CC-PVTZ
  Basis Set:
  Basis Set: CC-PVTZ
  Basis Set:
  @DF-RHF Final Energy:  -270.11643257553601
    Total Energy =                       -270.1164325755359528
  Basis Set: CC-PVTZ
  Basis Set:
  Basis Set: CC-PVTZ
  Basis Set:
  @DF-RHF Final Energy:  -270.11654389056696
    Total Energy =                       -270.1165438905667315
  Basis Set: CC-PVTZ
  Basis Set:
  Basis Set: CC-PVTZ
  Basis Set:
  @DF-RHF Final Energy:  -270.11654869683747
    Total Energy =                       -270.1165486968375262
  Basis Set: CC-PVTZ
  Basis Set:
  @DF-RHF Final Energy:  -270.11655083845682
    Total Energy =                       -270.1165508384566465
  @DF-RHF Final Energy:  -270.11655752627485
    Total Energy =                       -270.1165575262743914
  Basis Set: CC-PVTZ
  Basis Set:
  @DF-RHF Final Energy:  -270.11656472384482
    Total Energy =                       -270.1165647238448173
  Basis Set: CC-PVTZ
  Basis Set:
  Basis Set: CC-PVTZ
  Basis Set:
  @DF-RHF Final Energy:  -270.11656709268340
    Total Energy =                       -270.1165670926832831
  Basis Set: CC-PVTZ
  Basis Set:
  Basis Set: CC-PVTZ
  Basis Set:
  @DF-RHF Final Energy:  -270.11656879026651
    Total Energy =                       -270.1165687902667401
  Basis Set: CC-PVTZ
  Basis Set:
  Charge       = 0
  Multiplicity = 1
  Basis Set: CC-PVTZ
  Basis Set:

    Orbital Energies (a.u.)
    -----------------------

    Doubly Occupied:

       1A    -20.545799     2A    -11.267607     3A    -11.213788
       4A    -11.212743     5A    -11.208011     6A    -11.206606
       7A     -1.365599     8A     -1.114091     9A     -0.965618
      10A     -0.949154    11A     -0.785020    12A     -0.778819
      13A     -0.711651    14A     -0.655931    15A     -0.621655
      16A     -0.584226    17A     -0.561723    18A     -0.525745
      19A     -0.515101    20A     -0.480451    21A     -0.470128
      22A     -0.455044    23A     -0.452740    24A     -0.417842

  @DF-RHF Final Energy:  -270.11656921130066

   => Energetics <=

    Nuclear Repulsion Energy =            255.4512117145820582
    One-Electron Energy =                -873.0053775738713284
    Two-Electron Energy =                 347.4375966479882436
    DFT Exchange-Correlation Energy =       0.0000000000000000
    Empirical Dispersion Energy =           0.0000000000000000
    PCM Polarization Energy =               0.0000000000000000
    EFP Energy =                            0.0000000000000000
    Total Energy =                       -270.1165692113009982
    Molecular point group: c1
  Basis Set: CC-PVTZ
  Basis Set:

  -Total Gradient:
     Atom            X                  Y                   Z
    ------   -----------------  -----------------  -----------------
       1        0.000225786016     0.000929316280     0.000695365343
       2       -0.000199805426    -0.000990866219    -0.000630969036
       3       -0.000218514579    -0.000312747876    -0.000657659661
       4       -0.000002096476    -0.000002894850     0.000001072813
       5       -0.000005381547     0.000007450920     0.000004769429
       6        0.000197108271     0.000383602427     0.000592018493
       7        0.000000466205    -0.000015379992     0.000002335324
       8        0.000000743509     0.000006537013     0.000013678178
       9        0.000002912685    -0.000003796126     0.000005215971
      10       -0.000000271932    -0.000014312505    -0.000002870638
      11       -0.000001511219     0.000007742608    -0.000015542555
      12        0.000000337577     0.000003731240    -0.000009605848
      13        0.000018913784     0.000011533303    -0.000018410645
      14       -0.000021099819    -0.000009308755    -0.000014765218
      15       -0.000018710712     0.000013466041     0.000021477382
      16        0.000021123664    -0.000014073506     0.000013890667

  **** Optimization is complete! (in 10 steps) ****
    Final optimized geometry and variables:
    Molecular point group: c1

    Geometry (in Angstrom), charge = 0, multiplicity = 1:

    H            2.606007808707    -0.536817834902     0.442001137567
    O            2.065738776726     0.003110615688    -0.104154703432
    C            0.740755446344    -0.014722709724     0.351201815593
    H            0.725989547709     0.006013539278     1.440356678059
    C           -0.083146155067    -1.199815757481    -0.144845884016
    C           -0.028656732588     1.185635032806    -0.176716140532
    H            0.154780730675    -1.353873072656    -1.191721477842
    H            0.137758553704    -2.122654800045     0.379146782704
    C           -1.541953364377    -0.746021532422     0.025070568606
    H            0.198412669979     1.289688699583    -1.232533817813
    H            0.252095547046     2.110426797782     0.310118927375
    C           -1.500827645789     0.807183765410     0.033989031357
    H           -2.171158626411    -1.130948350055    -0.766439825632
    H           -1.953776839296    -1.116313634551     0.955976365784
    H           -2.139288714712     1.236979803274    -0.726283393799
    H           -1.854552290157     1.184031135664     0.986260897194

  Mulliken Charges: (a.u.)
   Center  Symbol    Alpha    Beta     Spin     Total
       1     H     0.39503  0.39503  0.00000  0.20995
       2     O     4.20046  4.20046  0.00000 -0.40092
       3     C     2.92205  2.92205  0.00000  0.15590
       4     H     0.46823  0.46823  0.00000  0.06355
       5     C     3.10187  3.10187  0.00000 -0.20374
       6     C     3.09794  3.09794  0.00000 -0.19588
       7     H     0.45309  0.45309  0.00000  0.09381
       8     H     0.45005  0.45005  0.00000  0.09990
       9     C     3.11394  3.11394  0.00000 -0.22788
      10     H     0.45226  0.45226  0.00000  0.09549
      11     H     0.44542  0.44542  0.00000  0.10916
      12     C     3.11117  3.11117  0.00000 -0.22234
      13     H     0.44454  0.44454  0.00000  0.11091
      14     H     0.44939  0.44939  0.00000  0.10122
      15     H     0.44431  0.44431  0.00000  0.11138
      16     H     0.45026  0.45026  0.00000  0.09949

   Total alpha = 24.00000, Total beta = 24.00000, Total charge =  0.00000
