  ==> Input File <==

--------------------------------------------------------------------------
set {
	reference rhf
	basis 6-31G*
}

set_num_threads( 1 )
memory 2 gb

molecule MOL {
0 1

O	 0.625848	 1.349995	 -0.000749
C	 0.486307	 0.169203	 0.000779
C	 1.608116	 -0.841643	 0.000302
O	 -0.698257	 -0.426125	 0.001050
C	 2.990107	 -0.200498	 -0.000684
H	 1.468623	 -1.481519	 -0.865924
H	 1.469683	 -1.481289	 0.866878
H	 3.129736	 0.423364	 -0.875135
H	 3.757882	 -0.966877	 -0.001197
H	 3.130964	 0.423383	 0.873533
C	 -1.777321	 0.255703	 -0.629927
C	 -3.005787	 -0.619520	 -0.498908
H	 -1.523238	 0.435494	 -1.665640
H	 -1.916838	 1.214990	 -0.150454
H	 -2.848051	 -1.578398	 -0.979357
H	 -3.855938	 -0.135639	 -0.968751
H	 -3.243934	 -0.794651	 0.544103

	symmetry c1
}
set optking {
	frozen_dihedral = ("
		2 4 11 13,
		4 2 3 6
	")
}

ee = energy('scf')
oeprop('DIPOLE', 'QUADRUPOLE', 'MULLIKEN_CHARGES')
f=open( 'psi4out.xyz', 'w' )
f.write( "17  " )
f.write( str(ee) + "\n" )
f.write( MOL.save_string_xyz() )
f.close()
--------------------------------------------------------------------------

    Molecular point group: c1

    Geometry (in Angstrom), charge = 0, multiplicity = 1:

       Center              X                  Y                   Z               Mass
    ------------   -----------------  -----------------  -----------------  -----------------
           O          0.606014142259     1.389535469561     0.163686320212    15.994914619560
           C          0.466473142259     0.208743469561     0.165214320212    12.000000000000
           C          1.588282142259    -0.802102530439     0.164737320212    12.000000000000
           O         -0.718090857741    -0.386584530439     0.165485320212    15.994914619560
           C          2.970273142259    -0.160957530439     0.163751320212    12.000000000000
           H          1.448789142259    -1.441978530439    -0.701488679788     1.007825032070
           H          1.449849142259    -1.441748530439     1.031313320212     1.007825032070
           H          3.109902142259     0.462904469561    -0.710699679788     1.007825032070
           H          3.738048142259    -0.927336530439     0.163238320212     1.007825032070
           H          3.111130142259     0.462923469561     1.037968320212     1.007825032070
           C         -1.797154857741     0.295243469561    -0.465491679788    12.000000000000
           C         -3.025620857741    -0.579979530439    -0.334472679788    12.000000000000
           H         -1.543071857741     0.475034469561    -1.501204679788     1.007825032070
           H         -1.936671857741     1.254530469561     0.013981320212     1.007825032070
           H         -2.867884857741    -1.538857530439    -0.814921679788     1.007825032070
           H         -3.875771857741    -0.096098530439    -0.804315679788     1.007825032070
           H         -3.263767857741    -0.755110530439     0.708538320212     1.007825032070

  Charge       = 0
  Multiplicity = 1
  Basis Set: 6-31G*
  Basis Set:

    Orbital Energies (a.u.)
    -----------------------

    Doubly Occupied:

       1A    -20.596228     2A    -20.546079     3A    -11.371630
       4A    -11.287104     5A    -11.237652     6A    -11.223121
       7A    -11.215656     8A     -1.466121     9A     -1.362316
      10A     -1.069334    11A     -1.032738    12A     -0.909837
      13A     -0.850259    14A     -0.772762    15A     -0.698335
      16A     -0.685658    17A     -0.663263    18A     -0.630462
      19A     -0.589987    20A     -0.566541    21A     -0.558565
      22A     -0.524229    23A     -0.519131    24A     -0.517419
      25A     -0.504157    26A     -0.492866    27A     -0.451614
      28A     -0.434102

  @DF-RHF Final Energy:  -344.90693143019831

   => Energetics <=

    Nuclear Repulsion Energy =            314.6879261543079451
    One-Electron Energy =               -1093.6354955409815375
    Two-Electron Energy =                 434.0406379564751091
    DFT Exchange-Correlation Energy =       0.0000000000000000
    Empirical Dispersion Energy =           0.0000000000000000
    PCM Polarization Energy =               0.0000000000000000
    EFP Energy =                            0.0000000000000000
    Total Energy =                       -344.9069314301985401

  Mulliken Charges: (a.u.)
   Center  Symbol    Alpha    Beta     Spin     Total
       1     O     4.28155  4.28155  0.00000 -0.56310
       2     C     2.60506  2.60506  0.00000  0.78987
       3     C     3.20599  3.20599  0.00000 -0.41198
       4     O     4.31460  4.31460  0.00000 -0.62920
       5     C     3.23919  3.23919  0.00000 -0.47838
       6     H     0.40279  0.40279  0.00000  0.19442
       7     H     0.39979  0.39979  0.00000  0.20041
       8     H     0.41058  0.41058  0.00000  0.17884
       9     H     0.41836  0.41836  0.00000  0.16327
      10     H     0.40949  0.40949  0.00000  0.18101
      11     C     3.00409  3.00409  0.00000 -0.00818
      12     C     3.24841  3.24841  0.00000 -0.49681
      13     H     0.41670  0.41670  0.00000  0.16660
      14     H     0.40448  0.40448  0.00000  0.19103
      15     H     0.41252  0.41252  0.00000  0.17495
      16     H     0.41648  0.41648  0.00000  0.16704
      17     H     0.40990  0.40990  0.00000  0.18020

   Total alpha = 28.00000, Total beta = 28.00000, Total charge =  0.00000
