  ==> Input File <==

--------------------------------------------------------------------------
set {
	reference rhf
	basis cc-pvtz
}

set_num_threads( 4 )
memory 2 gb

molecule MOL {
0 1

H	 -0.852584	 -1.208884	 1.115832
C	 -0.281863	 -0.289969	 1.186761
N	 0.526300	 -0.128137	 0.000000
H	 0.356247	 -0.366241	 2.057989
H	 -0.988383	 0.526385	 1.350982
C	 -0.247113	 0.037112	 -1.209233
H	 1.147634	 0.642931	 0.114271
H	 -0.996493	 -0.743733	 -1.271440
H	 0.397975	 -0.057351	 -2.073512
H	 -0.763794	 0.997171	 -1.271673

	symmetry c1
}
set optking {
	frozen_dihedral = ("
		2 3 6 8
	")
}

ee = optimize('scf')
oeprop('DIPOLE', 'QUADRUPOLE', 'MULLIKEN_CHARGES')
f=open( 'psi4out.xyz', 'w' )
f.write( "10  " )
f.write( str(ee) + "\n" )
f.write( MOL.save_string_xyz() )
f.close()
--------------------------------------------------------------------------

    Molecular point group: c1
  Charge       = 0
  Multiplicity = 1
  Basis Set: CC-PVTZ
  Basis Set:
  @DF-RHF Final Energy:  -134.29239885963244
    Total Energy =                       -134.2923988596324421
    Molecular point group: c1
  Basis Set: CC-PVTZ
  Basis Set:
  Basis Set: CC-PVTZ
  Basis Set:
  @DF-RHF Final Energy:  -134.29246362819998
    Total Energy =                       -134.2924636281999824
  Basis Set: CC-PVTZ
  Basis Set:
  Basis Set: CC-PVTZ
  Basis Set:
  @DF-RHF Final Energy:  -134.29247027355066
    Total Energy =                       -134.2924702735507196
  Basis Set: CC-PVTZ
  Basis Set:
  Charge       = 0
  Multiplicity = 1
  Basis Set: CC-PVTZ
  Basis Set:

    Orbital Energies (a.u.)
    -----------------------

    Doubly Occupied:

       1A    -15.531539     2A    -11.234378     3A    -11.234191
       4A     -1.200080     5A     -0.948080     6A     -0.855226
       7A     -0.662979     8A     -0.611463     9A     -0.592244
      10A     -0.538702    11A     -0.512885    12A     -0.508341
      13A     -0.361820

  @DF-RHF Final Energy:  -134.29247072751076

   => Energetics <=

    Nuclear Repulsion Energy =             84.7261677184062734
    One-Electron Energy =                -348.4534193084199387
    Two-Electron Energy =                 129.4347808625030041
    DFT Exchange-Correlation Energy =       0.0000000000000000
    Empirical Dispersion Energy =           0.0000000000000000
    PCM Polarization Energy =               0.0000000000000000
    EFP Energy =                            0.0000000000000000
    Total Energy =                       -134.2924707275106755
    Molecular point group: c1
  Basis Set: CC-PVTZ
  Basis Set:

  -Total Gradient:
     Atom            X                  Y                   Z
    ------   -----------------  -----------------  -----------------
       1        0.000017557186     0.000015795074    -0.000022840617
       2       -0.000036420788    -0.001882492287    -0.000183665817
       3       -0.000356148192     0.002971948930     0.000648201473
       4       -0.000002456694    -0.000001662790     0.000018341188
       5        0.000021912691    -0.000007154590    -0.000022176914
       6        0.001966951640    -0.002550250338    -0.001692669225
       7       -0.000020603892    -0.000000243174    -0.000013307362
       8       -0.001590114689     0.001436659771     0.001224734413
       9        0.000007328951     0.000015249318     0.000038875299
      10       -0.000008006213     0.000002150087     0.000004507563

  **** Optimization is complete! (in 4 steps) ****
    Final optimized geometry and variables:
    Molecular point group: c1

    Geometry (in Angstrom), charge = 0, multiplicity = 1:

    H           -0.835684423704    -1.096789685971     1.126780380452
    C           -0.268350672507    -0.175904695546     1.193991369865
    N            0.538768767579    -0.017313902959     0.006655578135
    H            0.371593271915    -0.246999615246     2.064392643766
    H           -0.976798133482     0.638883894061     1.359456586309
    C           -0.227644299647     0.148186132548    -1.207312793309
    H            1.178954697557     0.738019947104     0.118507750761
    H           -0.976666756234    -0.632399639321    -1.267834291346
    H            0.417705961721     0.069147392143    -2.072738443520
    H           -0.759219426739     1.100743320428    -1.262423653502

  Mulliken Charges: (a.u.)
   Center  Symbol    Alpha    Beta     Spin     Total
       1     H     0.45677  0.45677  0.00000  0.08647
       2     C     3.08040  3.08040  0.00000 -0.16081
       3     N     3.63034  3.63034  0.00000 -0.26069
       4     H     0.45251  0.45251  0.00000  0.09499
       5     H     0.47582  0.47582  0.00000  0.04836
       6     C     3.08209  3.08209  0.00000 -0.16419
       7     H     0.44004  0.44004  0.00000  0.11992
       8     H     0.45807  0.45807  0.00000  0.08385
       9     H     0.45151  0.45151  0.00000  0.09699
      10     H     0.47245  0.47245  0.00000  0.05510

   Total alpha = 13.00000, Total beta = 13.00000, Total charge = -0.00000
