                              Psi4 1.0.54 Driver

  ==> Input File <==

--------------------------------------------------------------------------
set {
	reference rhf
	basis cc-pvtz
}

set_num_threads( 4 )
memory 2 gb

molecule MOL {
0 1

H	 0.757804	 0.187144	 2.364397
C	 -0.205767	 0.206113	 1.876667
O	 0.000000	 0.000000	 0.518769
H	 -0.831726	 -0.572550	 2.307614
H	 -0.675625	 1.168861	 2.066943
C	 -1.165153	 0.000000	 -0.236961
H	 -1.229451	 0.882440	 -0.870223
H	 -2.002557	 0.000000	 0.445289
H	 -1.229451	 -0.882440	 -0.870223

	symmetry c1
}
set optking {
	frozen_dihedral = ("
		2 3 6 7
	")
}

ee,wfn = optimize('scf', return_wfn=True)
oeprop( wfn, 'DIPOLE', 'QUADRUPOLE', 'MULLIKEN_CHARGES')
f=open( 'psi4out.xyz', 'w' )
f.write( "9  " )
f.write( str(ee) + "\n" )
f.write( MOL.save_string_xyz() )
f.close()
--------------------------------------------------------------------------

    Molecular point group: c1
  Charge       = 0
  Multiplicity = 1
  Basis Set: CC-PVTZ
  Basis Set:
  @DF-RHF Final Energy:  -154.12256937332148
    Total Energy =                       -154.1225693733215962
    Molecular point group: c1
  Basis Set: CC-PVTZ
  Basis Set:
  Basis Set: CC-PVTZ
  Basis Set:
  @DF-RHF Final Energy:  -154.11321364844042
    Total Energy =                       -154.1132136484404782
  Basis Set: CC-PVTZ
  Basis Set:
  Basis Set: CC-PVTZ
  Basis Set:
  @DF-RHF Final Energy:  -154.12360733634000
    Total Energy =                       -154.1236073363399157
  Basis Set: CC-PVTZ
  Basis Set:
  Basis Set: CC-PVTZ
  Basis Set:
  @DF-RHF Final Energy:  -154.12372702988318
    Total Energy =                       -154.1237270298832414
  Basis Set: CC-PVTZ
  Basis Set:
  Charge       = 0
  Multiplicity = 1
  Basis Set: CC-PVTZ
  Basis Set:

    Orbital Energies (a.u.)
    -----------------------

    Doubly Occupied:

       1A    -20.546849     2A    -11.263574     3A    -11.262640
       4A     -1.378050     5A     -0.975869     6A     -0.872512
       7A     -0.659131     8A     -0.654954     9A     -0.644858
      10A     -0.558216    11A     -0.528180    12A     -0.475564
      13A     -0.414932

  @DF-RHF Final Energy:  -154.12372834450139

   => Energetics <=

    Nuclear Repulsion Energy =             84.5942858711134278
    One-Electron Energy =                -376.9653709892513689
    Two-Electron Energy =                 138.2473567736365396
    DFT Exchange-Correlation Energy =       0.0000000000000000
    Empirical Dispersion Energy =           0.0000000000000000
    PCM Polarization Energy =               0.0000000000000000
    EFP Energy =                            0.0000000000000000
    Total Energy =                       -154.1237283445014157
    Molecular point group: c1
  Basis Set: CC-PVTZ
  Basis Set:

  -Total Gradient:
     Atom            X                  Y                   Z
    ------   -----------------  -----------------  -----------------
       1        0.000031753437    -0.000011071987    -0.000005028959
       2       -0.000385926897    -0.001141413645     0.000369726223
       3        0.000606702473     0.001477088716    -0.000856564622
       4       -0.000023965032    -0.000028230049    -0.000051689632
       5       -0.000005879448    -0.000008529605    -0.000042829265
       6       -0.000900868928     0.000778611032     0.001541748473
       7        0.000707657255    -0.001057748278    -0.000964534713
       8       -0.000022816934     0.000016063723     0.000046323898
       9       -0.000006655925    -0.000024769905    -0.000037151402

  **** Optimization is complete! (in 5 steps) ****
    Final optimized geometry and variables:
    Molecular point group: c1

    Geometry (in Angstrom), charge = 0, multiplicity = 1:

    H            1.198161211327     0.088119424035     1.669568770256
    C            0.264559848039     0.238097786221     1.146529786703
    O            0.443497220001    -0.185344499397    -0.164783237340
    H           -0.511908451656    -0.334109119438     1.648835606970
    H            0.003783701010     1.292986313945     1.198350874936
    C           -0.669839207459    -0.067862006712    -0.996066444071
    H           -0.510559608964     0.713197585631    -1.732421251898
    H           -1.573135938448     0.157356549887    -0.438379018440
    H           -0.819371731042    -1.002967309890    -1.522266668876

  Mulliken Charges: (a.u.)
   Center  Symbol    Alpha    Beta     Spin     Total
       1     H     0.44977  0.44977  0.00000  0.10046
       2     C     3.02085  3.02085  0.00000 -0.04170
       3     O     4.17247  4.17247  0.00000 -0.34494
       4     H     0.47284  0.47284  0.00000  0.05431
       5     H     0.47329  0.47329  0.00000  0.05341
       6     C     3.01669  3.01669  0.00000 -0.03337
       7     H     0.46236  0.46236  0.00000  0.07528
       8     H     0.47458  0.47458  0.00000  0.05083
       9     H     0.45715  0.45715  0.00000  0.08571

   Total alpha = 13.00000, Total beta = 13.00000, Total charge =  0.00000

*** Psi4 exiting successfully. Buy a developer a beer!
