  ==> Input File <==

--------------------------------------------------------------------------
set {
	reference rhf
	basis 6-31G*
}

set_num_threads( 4 )
memory 2 gb

molecule MOL {
0 1

H	 -1.352445	 1.300131	 0.345257
C	 -0.790252	 0.431209	 0.000000
N	 0.538815	 0.649616	 0.000000
O	 -1.332048	 -0.581515	 -0.331746
C	 1.521968	 -0.411503	 0.000000
H	 0.852804	 1.592852	 0.000000
H	 2.150599	 -0.357004	 -0.881901
H	 0.999455	 -1.354525	 0.000000
H	 2.150599	 -0.357004	 0.881901

	symmetry c1
}
set optking {
	frozen_dihedral = ("
		1 2 3 6
	")
}

ee = optimize('scf')
oeprop('DIPOLE', 'QUADRUPOLE', 'MULLIKEN_CHARGES')
f=open( 'psi4out.xyz', 'w' )
f.write( "9  " )
f.write( str(ee) + "\n" )
f.write( MOL.save_string_xyz() )
f.close()
--------------------------------------------------------------------------

    Molecular point group: c1
  Charge       = 0
  Multiplicity = 1
  Basis Set: 6-31G*
  Basis Set:
  @DF-RHF Final Energy:  -207.95638224586861
    Total Energy =                       -207.9563822458685536
    Molecular point group: c1
  Basis Set: 6-31G*
  Basis Set:
  Basis Set: 6-31G*
  Basis Set:
  @DF-RHF Final Energy:  -207.95725086090721
    Total Energy =                       -207.9572508609072372
  Basis Set: 6-31G*
  Basis Set:
  Basis Set: 6-31G*
  Basis Set:
  @DF-RHF Final Energy:  -207.95882441044412
    Total Energy =                       -207.9588244104441799
  Basis Set: 6-31G*
  Basis Set:
  Basis Set: 6-31G*
  Basis Set:
  @DF-RHF Final Energy:  -207.96002200433551
    Total Energy =                       -207.9600220043355137
  Basis Set: 6-31G*
  Basis Set:
  @DF-RHF Final Energy:  -207.96012605080364
    Total Energy =                       -207.9601260508035807
  @DF-RHF Final Energy:  -207.96026605222679
    Total Energy =                       -207.9602660522267570
  @DF-RHF Final Energy:  -207.96052815582283
    Total Energy =                       -207.9605281558229137
  Basis Set: 6-31G*
  Basis Set:
  @DF-RHF Final Energy:  -207.96062725273407
    Total Energy =                       -207.9606272527340707
  Basis Set: 6-31G*
  Basis Set:
  Basis Set: 6-31G*
  Basis Set:
  @DF-RHF Final Energy:  -207.96063702698086
    Total Energy =                       -207.9606370269808053
  Basis Set: 6-31G*
  Basis Set:
  Basis Set: 6-31G*
  Basis Set:
  @DF-RHF Final Energy:  -207.96063887929796
    Total Energy =                       -207.9606388792979033
  Basis Set: 6-31G*
  Basis Set:
  Charge       = 0
  Multiplicity = 1
  Basis Set: 6-31G*
  Basis Set:

    Orbital Energies (a.u.)
    -----------------------

    Doubly Occupied:

       1A    -20.529986     2A    -15.589989     3A    -11.344305
       4A    -11.259928     5A     -1.392485     6A     -1.236087
       7A     -0.966111     8A     -0.806785     9A     -0.745485
      10A     -0.642592    11A     -0.628330    12A     -0.590759
      13A     -0.555507    14A     -0.534401    15A     -0.426684
      16A     -0.394240

  @DF-RHF Final Energy:  -207.96063899700164

   => Energetics <=

    Nuclear Repulsion Energy =            122.6936226487871551
    One-Electron Energy =                -526.0211769983699241
    Two-Electron Energy =                 195.3669153525812874
    DFT Exchange-Correlation Energy =       0.0000000000000000
    Empirical Dispersion Energy =           0.0000000000000000
    PCM Polarization Energy =               0.0000000000000000
    EFP Energy =                            0.0000000000000000
    Total Energy =                       -207.9606389970014959
    Molecular point group: c1
  Basis Set: 6-31G*
  Basis Set:

  -Total Gradient:
     Atom            X                  Y                   Z
    ------   -----------------  -----------------  -----------------
       1       -0.000467735963    -0.000722445819     0.001913891396
       2        0.000812863859     0.000935935489    -0.003280548584
       3       -0.000995860988    -0.000232041960     0.003649804611
       4        0.000004008498     0.000010890734     0.000002479248
       5       -0.000026084683     0.000013878259     0.000013423499
       6        0.000655887332     0.000009072676    -0.002286662588
       7        0.000007081659    -0.000005311313    -0.000006955057
       8        0.000007700899    -0.000006446335    -0.000002690478
       9        0.000002139387    -0.000003531732    -0.000002742047

  **** Optimization is complete! (in 11 steps) ****
    Final optimized geometry and variables:
    Molecular point group: c1

    Geometry (in Angstrom), charge = 0, multiplicity = 1:

    H           -1.387424548535     1.331063946777     0.182806032920
    C           -0.785224554864     0.440944310785    -0.005602436459
    N            0.504710256352     0.593750200409     0.366927642163
    O           -1.257755815614    -0.563454276586    -0.446629693567
    C            1.482370341726    -0.443201192717     0.105638852613
    H            0.836985423116     1.526351211939     0.466802105456
    H            1.743041901031    -0.506749372830    -0.946087652727
    H            1.079969794054    -1.395705346799     0.415623476094
    H            2.375508417527    -0.235433130826     0.679855733730

  Mulliken Charges: (a.u.)
   Center  Symbol    Alpha    Beta     Spin     Total
       1     H     0.42575  0.42575  0.00000  0.14850
       2     C     2.75009  2.75009  0.00000  0.49982
       3     N     3.86963  3.86963  0.00000 -0.73927
       4     O     4.27961  4.27961  0.00000 -0.55921
       5     C     3.14199  3.14199  0.00000 -0.28398
       6     H     0.31103  0.31103  0.00000  0.37794
       7     H     0.41241  0.41241  0.00000  0.17518
       8     H     0.39518  0.39518  0.00000  0.20964
       9     H     0.41431  0.41431  0.00000  0.17137

   Total alpha = 16.00000, Total beta = 16.00000, Total charge =  0.00000
