  ==> Input File <==

--------------------------------------------------------------------------
set {
	reference rhf
	basis cc-pvtz
}

set_num_threads( 4 )
memory 2 gb

molecule MOL {
0 1

H	 -2.266619	 1.169943	 0.000098
O	 -1.438073	 1.611259	 0.000041
C	 -0.408657	 0.734701	 0.000005
C	 -0.625638	 -0.483468	 0.616764
C	 0.815648	 1.029999	 -0.588203
H	 -1.583948	 -0.673254	 1.058979
C	 0.380520	 -1.425389	 0.654149
C	 1.808389	 0.064997	 -0.535648
C	 1.050845	 2.359809	 -1.260878
H	 0.204830	 -2.368882	 1.134704
C	 1.606194	 -1.155717	 0.076714
H	 2.760304	 0.277909	 -0.985642
H	 0.934199	 3.188323	 -0.567858
H	 2.053495	 2.413592	 -1.659928
H	 0.365001	 2.519991	 -2.088093
H	 2.393525	 -1.883621	 0.101947

	symmetry c1
}
set optking {
	frozen_dihedral = ("
		4 3 2 1
	")
}

ee = optimize('scf')
oeprop('DIPOLE', 'QUADRUPOLE', 'MULLIKEN_CHARGES')
f=open( 'psi4out.xyz', 'w' )
f.write( "16  " )
f.write( str(ee) + "\n" )
f.write( MOL.save_string_xyz() )
f.close()
--------------------------------------------------------------------------

    Molecular point group: c1
  Charge       = 0
  Multiplicity = 1
  Basis Set: CC-PVTZ
  Basis Set:
  @DF-RHF Final Energy:  -344.71707633649493
    Total Energy =                       -344.7170763364951540
    Molecular point group: c1
  Basis Set: CC-PVTZ
  Basis Set:
  Basis Set: CC-PVTZ
  Basis Set:
  @DF-RHF Final Energy:  -344.71908521405192
    Total Energy =                       -344.7190852140518587
  Basis Set: CC-PVTZ
  Basis Set:
  Basis Set: CC-PVTZ
  Basis Set:
  @DF-RHF Final Energy:  -344.71925126331655
    Total Energy =                       -344.7192512633166075
  Basis Set: CC-PVTZ
  Basis Set:
  Basis Set: CC-PVTZ
  Basis Set:
  @DF-RHF Final Energy:  -344.71926550083106
    Total Energy =                       -344.7192655008307156
  Basis Set: CC-PVTZ
  Basis Set:
  Charge       = 0
  Multiplicity = 1
  Basis Set: CC-PVTZ
  Basis Set:

    Orbital Energies (a.u.)
    -----------------------

    Doubly Occupied:

       1A    -20.579999     2A    -11.289490     3A    -11.229470
       4A    -11.228620     5A    -11.225884     6A    -11.223658
       7A    -11.218079     8A    -11.213180     9A     -1.409211
      10A     -1.152977    11A     -1.047404    12A     -1.006355
      13A     -0.932205    14A     -0.845936    15A     -0.802875
      16A     -0.734883    17A     -0.674525    18A     -0.654572
      19A     -0.615176    20A     -0.598007    21A     -0.577289
      22A     -0.562227    23A     -0.545684    24A     -0.540522
      25A     -0.502290    26A     -0.484992    27A     -0.475665
      28A     -0.333574    29A     -0.311289

  @DF-RHF Final Energy:  -344.71926921387700

   => Energetics <=

    Nuclear Repulsion Energy =            350.8765639851974925
    One-Electron Energy =               -1163.1595810634605641
    Two-Electron Energy =                 467.5637478643863005
    DFT Exchange-Correlation Energy =       0.0000000000000000
    Empirical Dispersion Energy =           0.0000000000000000
    PCM Polarization Energy =               0.0000000000000000
    EFP Energy =                            0.0000000000000000
    Total Energy =                       -344.7192692138768280
    Molecular point group: c1
  Basis Set: CC-PVTZ
  Basis Set:

  -Total Gradient:
     Atom            X                  Y                   Z
    ------   -----------------  -----------------  -----------------
       1        0.000016310117    -0.000066139846    -0.002340769542
       2        0.000234607957     0.000500905671     0.003717604782
       3       -0.000771079010    -0.001174819333    -0.002901245974
       4        0.000542397894     0.000763945972     0.001483498200
       5       -0.000092959727     0.000103133570     0.000059052346
       6        0.000037645997    -0.000011143844    -0.000011252790
       7       -0.000009229208    -0.000027758207     0.000010179275
       8        0.000016764016    -0.000122035639    -0.000010035223
       9        0.000062973837     0.000025307863    -0.000026895066
      10        0.000031720080    -0.000026126380    -0.000001915811
      11        0.000037593582     0.000085389928    -0.000025993303
      12       -0.000006991246     0.000012474131    -0.000001928495
      13       -0.000018024783    -0.000000252682     0.000004155891
      14       -0.000033768463    -0.000028007405     0.000020200705
      15       -0.000016554451    -0.000000487258    -0.000004949108
      16       -0.000031406592    -0.000034386537     0.000030294111

  **** Optimization is complete! (in 5 steps) ****
    Final optimized geometry and variables:
    Molecular point group: c1

    Geometry (in Angstrom), charge = 0, multiplicity = 1:

    H           -2.587024901830     0.871566624046     0.114961073030
    O           -1.731411531612     1.260437164940     0.104801583063
    C           -0.767439205096     0.305425761603     0.136918046123
    C           -0.975826912316    -0.906321525059     0.763398211556
    C            0.459592888487     0.613380768930    -0.441477241843
    H           -1.926216721248    -1.110028704772     1.222129615602
    C            0.035610633148    -1.849041831079     0.802911349675
    C            1.456322154292    -0.342313103644    -0.379005939060
    C            0.674993932364     1.947728089596    -1.106054550652
    H           -0.135580221104    -2.791810367777     1.286334116024
    C            1.257276286366    -1.569017954749     0.231938068436
    H            2.410150293514    -0.124125446049    -0.822071887322
    H            0.542888465445     2.761206796223    -0.402853565487
    H            1.673574215024     2.011319187423    -1.516728595137
    H           -0.035885581067     2.103228495334    -1.908473389384
    H            2.049930562342    -2.291214793520     0.260694002917

  Mulliken Charges: (a.u.)
   Center  Symbol    Alpha    Beta     Spin     Total
       1     H     0.38646  0.38646  0.00000  0.22707
       2     O     4.17888  4.17888  0.00000 -0.35777
       3     C     2.87017  2.87017  0.00000  0.25966
       4     C     3.12860  3.12860  0.00000 -0.25719
       5     C     2.99526  2.99526  0.00000  0.00947
       6     H     0.43259  0.43259  0.00000  0.13482
       7     C     3.07302  3.07302  0.00000 -0.14605
       8     C     3.08451  3.08451  0.00000 -0.16902
       9     C     3.14138  3.14138  0.00000 -0.28276
      10     H     0.42261  0.42261  0.00000  0.15478
      11     C     3.08821  3.08821  0.00000 -0.17643
      12     H     0.42503  0.42503  0.00000  0.14994
      13     H     0.44606  0.44606  0.00000  0.10788
      14     H     0.45411  0.45411  0.00000  0.09178
      15     H     0.44834  0.44834  0.00000  0.10332
      16     H     0.42476  0.42476  0.00000  0.15049

   Total alpha = 29.00000, Total beta = 29.00000, Total charge = -0.00000
