  ==> Input File <==

--------------------------------------------------------------------------
set {
	reference rhf
	basis cc-pvtz
}

set_num_threads( 4 )
memory 2 gb

molecule MOL {
0 1

H	 -3.162190	 0.493205	 -0.000107
C	 -2.363908	 -0.234727	 0.000005
O	 -1.158738	 0.454634	 -0.000087
H	 -2.464314	 -0.863616	 -0.882153
H	 -2.464327	 -0.863359	 0.882345
C	 -0.028611	 -0.359694	 0.000037
C	 1.212847	 0.509314	 -0.000053
H	 -0.034155	 -1.007047	 -0.877198
H	 -0.034195	 -1.006836	 0.877430
C	 1.593456	 0.980866	 -1.399026
H	 1.037743	 1.361878	 0.646784
H	 2.028797	 -0.054002	 0.439098
H	 0.799279	 1.568006	 -1.848066
H	 2.482353	 1.598951	 -1.369797
H	 1.797244	 0.142687	 -2.057050

	symmetry c1
}
set optking {
	frozen_dihedral = ("
		11 7 6 8
	")
}

ee = optimize('scf')
oeprop('DIPOLE', 'QUADRUPOLE', 'MULLIKEN_CHARGES')
f=open( 'psi4out.xyz', 'w' )
f.write( "15  " )
f.write( str(ee) + "\n" )
f.write( MOL.save_string_xyz() )
f.close()
--------------------------------------------------------------------------

    Molecular point group: c1
  Charge       = 0
  Multiplicity = 1
  Basis Set: CC-PVTZ
  Basis Set:
  @DF-RHF Final Energy:  -232.22641003845027
    Total Energy =                       -232.2264100384502399
    Molecular point group: c1
  Basis Set: CC-PVTZ
  Basis Set:
  Basis Set: CC-PVTZ
  Basis Set:
  @DF-RHF Final Energy:  -232.22673329475722
    Total Energy =                       -232.2267332947573095
  Basis Set: CC-PVTZ
  Basis Set:
  Basis Set: CC-PVTZ
  Basis Set:
  @DF-RHF Final Energy:  -232.22680057621352
    Total Energy =                       -232.2268005762132930
  Basis Set: CC-PVTZ
  Basis Set:
  Basis Set: CC-PVTZ
  Basis Set:
  @DF-RHF Final Energy:  -232.22680229003316
    Total Energy =                       -232.2268022900328788
  Basis Set: CC-PVTZ
  Basis Set:
  Charge       = 0
  Multiplicity = 1
  Basis Set: CC-PVTZ
  Basis Set:

    Orbital Energies (a.u.)
    -----------------------

    Doubly Occupied:

       1A    -20.547503     2A    -11.264788     3A    -11.261812
       4A    -11.213176     5A    -11.204019     6A     -1.381208
       7A     -1.055313     8A     -0.952176     9A     -0.883316
      10A     -0.803265    11A     -0.670770    12A     -0.663947
      13A     -0.633388    14A     -0.587027    15A     -0.576009
      16A     -0.546501    17A     -0.496323    18A     -0.484173
      19A     -0.483029    20A     -0.461504    21A     -0.415771

  @DF-RHF Final Energy:  -232.22680251191309

   => Energetics <=

    Nuclear Repulsion Energy =            192.4097561281427602
    One-Electron Energy =                -696.1030808160992365
    Two-Electron Energy =                 271.4665221760433838
    DFT Exchange-Correlation Energy =       0.0000000000000000
    Empirical Dispersion Energy =           0.0000000000000000
    PCM Polarization Energy =               0.0000000000000000
    EFP Energy =                            0.0000000000000000
    Total Energy =                       -232.2268025119130925
    Molecular point group: c1
  Basis Set: CC-PVTZ
  Basis Set:

  -Total Gradient:
     Atom            X                  Y                   Z
    ------   -----------------  -----------------  -----------------
       1        0.000007046191     0.000001910506     0.000002831491
       2       -0.000019101827    -0.000012391471    -0.000000839694
       3        0.000013978959    -0.000006427399    -0.000001607582
       4        0.000001277741     0.000002139838     0.000001515436
       5       -0.000003162219     0.000000865397    -0.000000401282
       6        0.002044375732    -0.002909359635     0.001799671808
       7        0.001277832039    -0.001662492038     0.003111709601
       8       -0.001897580949     0.002667940363    -0.001945628272
       9        0.000004170539    -0.000003533441    -0.000004614350
      10       -0.000009089030     0.000006356953    -0.000021250643
      11       -0.001405901629     0.001911243325    -0.002936787749
      12       -0.000020852230     0.000001757842    -0.000003013101
      13        0.000000442696    -0.000002712465    -0.000006352536
      14        0.000004455296    -0.000002852207     0.000000947647
      15        0.000002108692     0.000007554431     0.000003819224

  **** Optimization is complete! (in 5 steps) ****
    Final optimized geometry and variables:
    Molecular point group: c1

    Geometry (in Angstrom), charge = 0, multiplicity = 1:

    H           -2.965944137144     0.258351301892     0.244685981532
    C           -2.176297338681    -0.479097561360     0.255390217581
    O           -0.963361258475     0.194647093772     0.289676991609
    H           -2.264786262171    -1.098597564481    -0.634749923619
    H           -2.304665626086    -1.115145964624     1.129007801195
    C            0.159373108923    -0.636704134383     0.317607557882
    C            1.409317382943     0.227487412537     0.280903427049
    H            0.129798423092    -1.295867951262    -0.549681511054
    H            0.139984282543    -1.252751412884     1.214489975744
    C            1.747514937592     0.728401956413    -1.120868110859
    H            1.236423615957     1.082944348671     0.923750682223
    H            2.245084853264    -0.332973900306     0.685918381835
    H            0.915746617835     1.279727168460    -1.542245177839
    H            2.609125923397     1.385760768442    -1.101988632708
    H            1.975784223303    -0.096588744470    -1.787842405642

  Mulliken Charges: (a.u.)
   Center  Symbol    Alpha    Beta     Spin     Total
       1     H     0.44727  0.44727  0.00000  0.10546
       2     C     3.03231  3.03231  0.00000 -0.06463
       3     O     4.17601  4.17601  0.00000 -0.35203
       4     H     0.47218  0.47218  0.00000  0.05564
       5     H     0.47181  0.47181  0.00000  0.05637
       6     C     2.96740  2.96740  0.00000  0.06521
       7     C     3.07959  3.07959  0.00000 -0.15918
       8     H     0.47577  0.47577  0.00000  0.04846
       9     H     0.46527  0.46527  0.00000  0.06945
      10     C     3.15121  3.15121  0.00000 -0.30243
      11     H     0.45126  0.45126  0.00000  0.09748
      12     H     0.45403  0.45403  0.00000  0.09193
      13     H     0.44786  0.44786  0.00000  0.10429
      14     H     0.45000  0.45000  0.00000  0.10001
      15     H     0.45802  0.45802  0.00000  0.08397

   Total alpha = 21.00000, Total beta = 21.00000, Total charge = -0.00000
