  ==> Input File <==

--------------------------------------------------------------------------
set {
	reference rhf
	basis 6-31G*
}

set_num_threads( 4 )
memory 2 gb

molecule MOL {
0 1

O	 1.178160	 1.259368	 -0.340544
C	 1.122059	 0.121804	 -0.000188
C	 -0.118406	 -0.590706	 0.480925
O	 2.172624	 -0.688929	 0.000216
C	 -1.358517	 0.297587	 0.500941
H	 -0.264528	 -1.456357	 -0.159428
H	 0.097702	 -0.987448	 1.469180
C	 -2.600104	 -0.448335	 0.992296
H	 -1.534949	 0.689231	 -0.496050
H	 -1.172006	 1.159125	 1.134558
C	 -3.846998	 0.434650	 1.016727
H	 -2.781975	 -1.311005	 0.354487
H	 -2.416974	 -0.840857	 1.990524
H	 -4.076671	 0.815189	 0.025720
H	 -4.712538	 -0.118054	 1.368343
H	 -3.709289	 1.288340	 1.673910
C	 3.452279	 -0.082609	 0.000533
H	 3.583069	 0.529321	 -0.880332
H	 4.163299	 -0.894027	 0.001117
H	 3.582335	 0.529955	 0.881077

	symmetry c1
}
set optking {
	frozen_dihedral = ("
		1 2 4 17
	")
}

ee = optimize('scf')
oeprop('DIPOLE', 'QUADRUPOLE', 'MULLIKEN_CHARGES')
f=open( 'psi4out.xyz', 'w' )
f.write( "20  " )
f.write( str(ee) + "\n" )
f.write( MOL.save_string_xyz() )
f.close()
--------------------------------------------------------------------------

    Molecular point group: c1
  Charge       = 0
  Multiplicity = 1
  Basis Set: 6-31G*
  Basis Set:
  @DF-RHF Final Energy:  -383.93908497300890
    Total Energy =                       -383.9390849730090167
    Molecular point group: c1
  Basis Set: 6-31G*
  Basis Set:
  Basis Set: 6-31G*
  Basis Set:
  @DF-RHF Final Energy:  -383.93570743626532
    Total Energy =                       -383.9357074362654885
  Basis Set: 6-31G*
  Basis Set:
  Basis Set: 6-31G*
  Basis Set:
  @DF-RHF Final Energy:  -383.93931727560948
    Total Energy =                       -383.9393172756094827
  Basis Set: 6-31G*
  Basis Set:
  Basis Set: 6-31G*
  Basis Set:
  @DF-RHF Final Energy:  -383.93936863781386
    Total Energy =                       -383.9393686378136863
  Basis Set: 6-31G*
  Basis Set:
  Basis Set: 6-31G*
  Basis Set:
  @DF-RHF Final Energy:  -383.93937559674760
    Total Energy =                       -383.9393755967474817
  Basis Set: 6-31G*
  Basis Set:
  Basis Set: 6-31G*
  Basis Set:
  @DF-RHF Final Energy:  -383.93937868480452
    Total Energy =                       -383.9393786848041827
  Basis Set: 6-31G*
  Basis Set:
  Basis Set: 6-31G*
  Basis Set:
  @DF-RHF Final Energy:  -383.93938081766811
    Total Energy =                       -383.9393808176681659
  Basis Set: 6-31G*
  Basis Set:
  Charge       = 0
  Multiplicity = 1
  Basis Set: 6-31G*
  Basis Set:

    Orbital Energies (a.u.)
    -----------------------

    Doubly Occupied:

       1A    -20.601796     2A    -20.546598     3A    -11.372742
       4A    -11.281986     5A    -11.235854     6A    -11.220432
       7A    -11.219436     8A    -11.210734     9A     -1.468057
      10A     -1.363274    11A     -1.088757    12A     -1.023990
      13A     -0.969171    14A     -0.886617    15A     -0.804244
      16A     -0.767395    17A     -0.696519    18A     -0.682702
      19A     -0.672100    20A     -0.645837    21A     -0.598879
      22A     -0.592323    23A     -0.579412    24A     -0.541619
      25A     -0.535966    26A     -0.522195    27A     -0.501191
      28A     -0.478469    29A     -0.473903    30A     -0.470447
      31A     -0.455136    32A     -0.436388

  @DF-RHF Final Energy:  -383.93938099899844

   => Energetics <=

    Nuclear Repulsion Energy =            380.9247151157869666
    One-Electron Energy =               -1277.8398546344735678
    Two-Electron Energy =                 512.9757585196882701
    DFT Exchange-Correlation Energy =       0.0000000000000000
    Empirical Dispersion Energy =           0.0000000000000000
    PCM Polarization Energy =               0.0000000000000000
    EFP Energy =                            0.0000000000000000
    Total Energy =                       -383.9393809989983311
    Molecular point group: c1
  Basis Set: 6-31G*
  Basis Set:

  -Total Gradient:
     Atom            X                  Y                   Z
    ------   -----------------  -----------------  -----------------
       1       -0.001781090514    -0.001386477524    -0.006218238173
       2        0.002807010512     0.001887517977     0.011841657389
       3       -0.000025910843    -0.000001565162    -0.000092617875
       4       -0.001307877467    -0.000135618733    -0.010663235031
       5       -0.000000125267    -0.000012244372     0.000010132085
       6        0.000002843351    -0.000003622786     0.000002915645
       7       -0.000000520006    -0.000001902268    -0.000003825958
       8       -0.000001262019     0.000009939798     0.000010525827
       9       -0.000004121664     0.000009564498     0.000001315577
      10        0.000004125147    -0.000006182844     0.000004173914
      11       -0.000006699997    -0.000007850589    -0.000015160617
      12        0.000004396388    -0.000002968333     0.000007282722
      13       -0.000002633498     0.000006375990     0.000004741394
      14       -0.000000480823     0.000005960506     0.000000055779
      15       -0.000003749427    -0.000000537338    -0.000006043298
      16        0.000001568445    -0.000006006981     0.000002265750
      17        0.000294981601    -0.000373717844     0.005151669523
      18        0.000000372382     0.000004663418    -0.000011472409
      19        0.000005618099     0.000005825789    -0.000012375427
      20        0.000013555596     0.000008846797    -0.000013766818

  **** Optimization is complete! (in 8 steps) ****
    Final optimized geometry and variables:
    Molecular point group: c1

    Geometry (in Angstrom), charge = 0, multiplicity = 1:

    O            1.166434005216     1.256272147473    -0.523606519798
    C            1.097712749834     0.100105331786    -0.258985121551
    C           -0.148633542118    -0.624852576705     0.185839398404
    O            2.125124355610    -0.735343978847    -0.379176061768
    C           -1.397725853794     0.250796756232     0.175800095210
    H           -0.267846456245    -1.493184995862    -0.455658834889
    H            0.046296738551    -1.017819019007     1.180782621389
    C           -2.642924847506    -0.506454270426     0.639908577959
    H           -1.555434983306     0.638051738551    -0.826334594832
    H           -1.234184504995     1.115638555214     0.810880506791
    C           -3.899761870404     0.362582810806     0.628406983360
    H           -2.799220138341    -1.374474739153     0.002648215478
    H           -2.480413763433    -0.891556388911     1.644618506845
    H           -4.108669124818     0.735513622397    -0.370060094660
    H           -4.767704024188    -0.198034539469     0.961084617772
    H           -3.788041630390     1.221062682986     1.284291586085
    C            3.419613201011    -0.162060088770    -0.416422964368
    H            3.550992705497     0.433363716682    -1.308020194760
    H            4.110764909314    -0.990473455062    -0.415805189093
    H            3.581900547670     0.458960829524     0.453760325914

  Mulliken Charges: (a.u.)
   Center  Symbol    Alpha    Beta     Spin     Total
       1     O     4.28301  4.28301  0.00000 -0.56602
       2     C     2.60506  2.60506  0.00000  0.78988
       3     C     3.20914  3.20914  0.00000 -0.41827
       4     O     4.30823  4.30823  0.00000 -0.61646
       5     C     3.15129  3.15129  0.00000 -0.30258
       6     H     0.39952  0.39952  0.00000  0.20097
       7     H     0.40210  0.40210  0.00000  0.19579
       8     C     3.15421  3.15421  0.00000 -0.30842
       9     H     0.41263  0.41263  0.00000  0.17474
      10     H     0.41118  0.41118  0.00000  0.17763
      11     C     3.23931  3.23931  0.00000 -0.47862
      12     H     0.42279  0.42279  0.00000  0.15442
      13     H     0.42312  0.42312  0.00000  0.15376
      14     H     0.41993  0.41993  0.00000  0.16014
      15     H     0.41873  0.41873  0.00000  0.16254
      16     H     0.41996  0.41996  0.00000  0.16007
      17     C     3.09274  3.09274  0.00000 -0.18548
      18     H     0.40631  0.40631  0.00000  0.18738
      19     H     0.40797  0.40797  0.00000  0.18406
      20     H     0.41277  0.41277  0.00000  0.17446

   Total alpha = 32.00000, Total beta = 32.00000, Total charge =  0.00000
