  ==> Input File <==

--------------------------------------------------------------------------
set {
	reference rhf
	basis cc-pvtz
}

set_num_threads( 4 )
memory 2 gb

molecule MOL {
0 1

H	 2.211839	 1.002192	 -2.262312
O	 1.376117	 1.163166	 -1.865183
C	 1.391238	 0.750324	 -0.523040
C	 0.027642	 1.012027	 0.090274
H	 2.142931	 1.303525	 0.034360
H	 1.646116	 -0.303546	 -0.453354
C	 -1.138737	 0.285728	 -0.581921
H	 -0.155663	 2.080988	 0.055217
H	 0.075319	 0.735483	 1.140733
C	 -1.933983	 -0.631436	 0.343653
H	 -0.763151	 -0.285569	 -1.422081
H	 -1.808359	 1.035291	 -0.992333
H	 -2.789188	 -1.049673	 -0.174718
H	 -1.335629	 -1.461368	 0.700418
H	 -2.305435	 -0.092167	 1.209725

	symmetry c1
}
set optking {
	frozen_dihedral = ("
		8 4 7 11
	")
}

ee = optimize('scf')
oeprop('DIPOLE', 'QUADRUPOLE', 'MULLIKEN_CHARGES')
f=open( 'psi4out.xyz', 'w' )
f.write( "15  " )
f.write( str(ee) + "\n" )
f.write( MOL.save_string_xyz() )
f.close()
--------------------------------------------------------------------------

    Molecular point group: c1
  Charge       = 0
  Multiplicity = 1
  Basis Set: CC-PVTZ
  Basis Set:
  @DF-RHF Final Energy:  -232.23322281066007
    Total Energy =                       -232.2332228106602088
    Molecular point group: c1
  Basis Set: CC-PVTZ
  Basis Set:
  Basis Set: CC-PVTZ
  Basis Set:
  @DF-RHF Final Energy:  -232.23380479065230
    Total Energy =                       -232.2338047906523002
  Basis Set: CC-PVTZ
  Basis Set:
  Basis Set: CC-PVTZ
  Basis Set:
  @DF-RHF Final Energy:  -232.23384693557651
    Total Energy =                       -232.2338469355765938
  Basis Set: CC-PVTZ
  Basis Set:
  Basis Set: CC-PVTZ
  Basis Set:
  @DF-RHF Final Energy:  -232.23384878754680
    Total Energy =                       -232.2338487875467194
  Basis Set: CC-PVTZ
  Basis Set:
  Charge       = 0
  Multiplicity = 1
  Basis Set: CC-PVTZ
  Basis Set:

    Orbital Energies (a.u.)
    -----------------------

    Doubly Occupied:

       1A    -20.546372     2A    -11.266265     3A    -11.210350
       4A    -11.207889     5A    -11.204556     6A     -1.364439
       7A     -1.064028     8A     -0.975027     9A     -0.859283
      10A     -0.786663    11A     -0.706158    12A     -0.649565
      13A     -0.603006    14A     -0.585918    15A     -0.557696
      16A     -0.537802    17A     -0.503481    18A     -0.476264
      19A     -0.471117    20A     -0.453433    21A     -0.432623

  @DF-RHF Final Energy:  -232.23384925188370

   => Energetics <=

    Nuclear Repulsion Energy =            189.0662951309070934
    One-Electron Energy =                -689.6764186023301590
    Two-Electron Energy =                 268.3762742195393116
    DFT Exchange-Correlation Energy =       0.0000000000000000
    Empirical Dispersion Energy =           0.0000000000000000
    PCM Polarization Energy =               0.0000000000000000
    EFP Energy =                            0.0000000000000000
    Total Energy =                       -232.2338492518837825
    Molecular point group: c1
  Basis Set: CC-PVTZ
  Basis Set:

  -Total Gradient:
     Atom            X                  Y                   Z
    ------   -----------------  -----------------  -----------------
       1        0.000002563999     0.000003940752     0.000011065366
       2       -0.000011212304     0.000028642536     0.000013684056
       3        0.000036957105    -0.000035931743    -0.000022369684
       4       -0.000128667327     0.000018971473     0.000167620016
       5        0.000009986248    -0.000003389957    -0.000029575075
       6        0.000003670334    -0.000001674293     0.000032879644
       7        0.000087983658    -0.000187777177     0.000117965638
       8        0.000072204924     0.000017786925    -0.000169374685
       9       -0.000009132283     0.000002253111    -0.000019414436
      10       -0.000036143858    -0.000022024570    -0.000022424383
      11       -0.000031578365     0.000154547262    -0.000100143752
      12        0.000000901547     0.000018869288     0.000015902431
      13        0.000001438376    -0.000014176240     0.000019199402
      14        0.000002569763     0.000008816505    -0.000007516221
      15       -0.000001541816     0.000011146129    -0.000007498317

  **** Optimization is complete! (in 5 steps) ****
    Final optimized geometry and variables:
    Molecular point group: c1

    Geometry (in Angstrom), charge = 0, multiplicity = 1:

    H            2.213686817509     0.478370464183    -1.721419310725
    O            1.400047913248     0.690461161547    -1.303105485634
    C            1.389422036388     0.200679142086     0.012405448762
    C            0.035986525423     0.489500749905     0.631256259731
    H            2.170365823623     0.677610079587     0.599466765365
    H            1.578767180836    -0.871314785119     0.020404086758
    C           -1.133539934506    -0.242450055666    -0.057181788987
    H           -0.120569508348     1.561833790400     0.605126428971
    H            0.085723470957     0.209322563756     1.679149017641
    C           -1.908965686950    -1.160573920166     0.883266044904
    H           -0.756113221167    -0.819071001231    -0.893451699266
    H           -1.815263055622     0.482158773658    -0.486462327660
    H           -2.720010531054    -1.659849726148     0.365157065787
    H           -1.264212606627    -1.926221920424     1.303383761622
    H           -2.337653088988    -0.603245543241     1.709862502086

  Mulliken Charges: (a.u.)
   Center  Symbol    Alpha    Beta     Spin     Total
       1     H     0.39547  0.39547  0.00000  0.20907
       2     O     4.19954  4.19954  0.00000 -0.39909
       3     C     2.97318  2.97318  0.00000  0.05363
       4     C     3.09292  3.09292  0.00000 -0.18583
       5     H     0.46514  0.46514  0.00000  0.06973
       6     H     0.47371  0.47371  0.00000  0.05258
       7     C     3.08623  3.08623  0.00000 -0.17247
       8     H     0.44867  0.44867  0.00000  0.10266
       9     H     0.45516  0.45516  0.00000  0.08968
      10     C     3.14811  3.14811  0.00000 -0.29621
      11     H     0.44935  0.44935  0.00000  0.10130
      12     H     0.44961  0.44961  0.00000  0.10077
      13     H     0.44968  0.44968  0.00000  0.10064
      14     H     0.45766  0.45766  0.00000  0.08469
      15     H     0.45558  0.45558  0.00000  0.08885

   Total alpha = 21.00000, Total beta = 21.00000, Total charge = -0.00000
