  ==> Input File <==

--------------------------------------------------------------------------
set {
	reference rhf
	basis 6-31G*
}

set_num_threads( 1 )
memory 2 gb

molecule MOL {
0 1

O	 -2.455965	 -0.957223	 -0.340367
C	 -1.929740	 0.052958	 -0.001408
C	 -2.632055	 1.370071	 0.189154
O	 -0.632575	 0.154573	 0.251549
H	 -2.199717	 2.114341	 -0.469704
H	 -3.684218	 1.254043	 -0.023745
H	 -2.494881	 1.714102	 1.207772
C	 0.160891	 -1.019931	 0.106212
C	 1.589627	 -0.672828	 0.480843
H	 0.089836	 -1.367806	 -0.916050
H	 -0.238459	 -1.792301	 0.749618
C	 2.246377	 0.346236	 -0.452210
H	 2.163194	 -1.597435	 0.473358
H	 1.604769	 -0.303424	 1.502885
C	 3.691736	 0.652107	 -0.061850
H	 2.219579	 -0.032311	 -1.472055
H	 1.666466	 1.263317	 -0.447249
H	 4.134505	 1.377213	 -0.737283
H	 4.305508	 -0.243868	 -0.089969
H	 3.748266	 1.059562	 0.943567

	symmetry c1
}
set optking {
	frozen_dihedral = ("
		16 12 9 8,
		12 9 8 10,
		1 2 4 8
	")
}

ee = energy('scf')
oeprop('DIPOLE', 'QUADRUPOLE', 'MULLIKEN_CHARGES')
f=open( 'psi4out.xyz', 'w' )
f.write( "20  " )
f.write( str(ee) + "\n" )
f.write( MOL.save_string_xyz() )
f.close()
--------------------------------------------------------------------------

    Molecular point group: c1

    Geometry (in Angstrom), charge = 0, multiplicity = 1:

       Center              X                  Y                   Z               Mass
    ------------   -----------------  -----------------  -----------------  -----------------
           O         -2.451868693376    -0.951859900471    -0.361343614586    15.994914619560
           C         -1.925643693376     0.058321099529    -0.022384614586    12.000000000000
           C         -2.627958693376     1.375434099529     0.168177385414    12.000000000000
           O         -0.628478693376     0.159936099529     0.230572385414    15.994914619560
           H         -2.195620693376     2.119704099529    -0.490680614586     1.007825032070
           H         -3.680121693376     1.259406099529    -0.044721614586     1.007825032070
           H         -2.490784693376     1.719465099529     1.186795385414     1.007825032070
           C          0.164987306624    -1.014567900471     0.085235385414    12.000000000000
           C          1.593723306624    -0.667464900471     0.459866385414    12.000000000000
           H          0.093932306624    -1.362442900471    -0.937026614586     1.007825032070
           H         -0.234362693376    -1.786937900471     0.728641385414     1.007825032070
           C          2.250473306624     0.351599099529    -0.473186614586    12.000000000000
           H          2.167290306624    -1.592071900471     0.452381385414     1.007825032070
           H          1.608865306624    -0.298060900471     1.481908385414     1.007825032070
           C          3.695832306624     0.657470099529    -0.082826614586    12.000000000000
           H          2.223675306624    -0.026947900471    -1.493031614586     1.007825032070
           H          1.670562306624     1.268680099529    -0.468225614586     1.007825032070
           H          4.138601306624     1.382576099529    -0.758259614586     1.007825032070
           H          4.309604306624    -0.238504900471    -0.110945614586     1.007825032070
           H          3.752362306624     1.064925099529     0.922590385414     1.007825032070

  Charge       = 0
  Multiplicity = 1
  Basis Set: 6-31G*
  Basis Set:

    Orbital Energies (a.u.)
    -----------------------

    Doubly Occupied:

       1A    -20.601818     2A    -20.544148     3A    -11.374563
       4A    -11.282344     5A    -11.233480     6A    -11.225518
       7A    -11.220577     8A    -11.213437     9A     -1.468007
      10A     -1.362266    11A     -1.086054    12A     -1.028283
      13A     -0.981437    14A     -0.880167    15A     -0.811576
      16A     -0.774991    17A     -0.689708    18A     -0.683741
      19A     -0.666887    20A     -0.631482    21A     -0.600988
      22A     -0.592577    23A     -0.572240    24A     -0.550927
      25A     -0.544811    26A     -0.531188    27A     -0.512091
      28A     -0.483613    29A     -0.474859    30A     -0.471663
      31A     -0.449100    32A     -0.438795

  @DF-RHF Final Energy:  -383.94568227352698

   => Energetics <=

    Nuclear Repulsion Energy =            385.0911297963701259
    One-Electron Energy =               -1286.1068384629079446
    Two-Electron Energy =                 517.0700263930108349
    DFT Exchange-Correlation Energy =       0.0000000000000000
    Empirical Dispersion Energy =           0.0000000000000000
    PCM Polarization Energy =               0.0000000000000000
    EFP Energy =                            0.0000000000000000
    Total Energy =                       -383.9456822735270407

  Mulliken Charges: (a.u.)
   Center  Symbol    Alpha    Beta     Spin     Total
       1     O     4.28330  4.28330  0.00000 -0.56659
       2     C     2.61920  2.61920  0.00000  0.76161
       3     C     3.28168  3.28168  0.00000 -0.56336
       4     O     4.30866  4.30866  0.00000 -0.61732
       5     H     0.40067  0.40067  0.00000  0.19866
       6     H     0.39685  0.39685  0.00000  0.20629
       7     H     0.40068  0.40068  0.00000  0.19865
       8     C     3.00265  3.00265  0.00000 -0.00530
       9     C     3.16467  3.16467  0.00000 -0.32933
      10     H     0.41116  0.41116  0.00000  0.17769
      11     H     0.40776  0.40776  0.00000  0.18448
      12     C     3.15508  3.15508  0.00000 -0.31017
      13     H     0.41827  0.41827  0.00000  0.16346
      14     H     0.41458  0.41458  0.00000  0.17084
      15     C     3.24039  3.24039  0.00000 -0.48077
      16     H     0.42281  0.42281  0.00000  0.15438
      17     H     0.41180  0.41180  0.00000  0.17640
      18     H     0.41756  0.41756  0.00000  0.16488
      19     H     0.42166  0.42166  0.00000  0.15668
      20     H     0.42058  0.42058  0.00000  0.15885

   Total alpha = 32.00000, Total beta = 32.00000, Total charge = -0.00000
