                              Psi4 1.0.54 Driver

  ==> Input File <==

--------------------------------------------------------------------------
set {
	reference rhf
	basis cc-pvtz
}

set_num_threads( 4 )
memory 2 gb

molecule MOL {
0 1

H	 -0.941806	 3.064186	 -1.794043
C	 -0.156096	 3.071357	 -1.026257
C	 -0.571989	 2.521422	 0.311089
O	 0.915716	 3.499965	 -1.280860
C	 -1.216901	 1.136108	 0.207794
H	 0.291660	 2.511929	 0.963282
H	 -1.294658	 3.222109	 0.723510
C	 -0.247837	 0.040196	 -0.230469
H	 -1.636738	 0.880438	 1.174598
H	 -2.055343	 1.180113	 -0.483054
C	 1.181757	 0.280428	 0.247371
H	 -0.259600	 -0.030819	 -1.314870
H	 -0.591284	 -0.923375	 0.136958
C	 2.151032	 -0.811012	 -0.202643
H	 1.515939	 1.247397	 -0.115449
H	 1.191514	 0.341223	 1.333422
C	 3.580021	 -0.656538	 0.320835
H	 2.170545	 -0.847575	 -1.289412
H	 1.766632	 -1.772905	 0.124928
C	 4.327657	 0.562694	 -0.213579
H	 4.138806	 -1.549270	 0.057813
H	 3.561991	 -0.620783	 1.406976
H	 4.355973	 0.557257	 -1.298551
H	 3.867136	 1.491650	 0.100501
H	 5.351524	 0.571613	 0.142204

	symmetry c1
}
set optking {
	frozen_dihedral = ("
		3 5 8 12
	")
}

ee,wfn = optimize('scf', return_wfn=True)
oeprop( wfn, 'DIPOLE', 'QUADRUPOLE', 'MULLIKEN_CHARGES')
f=open( 'psi4out.xyz', 'w' )
f.write( "25  " )
f.write( str(ee) + "\n" )
f.write( MOL.save_string_xyz() )
f.close()
--------------------------------------------------------------------------

    Molecular point group: c1
  Charge       = 0
  Multiplicity = 1
  Basis Set: CC-PVTZ
  Basis Set:
  @DF-RHF Final Energy:  -387.25238140499692
    Total Energy =                       -387.2523814049966404
    Molecular point group: c1
  Basis Set: CC-PVTZ
  Basis Set:
  Basis Set: CC-PVTZ
  Basis Set:
  @DF-RHF Final Energy:  -387.25326209906609
    Total Energy =                       -387.2532620990662053
  Basis Set: CC-PVTZ
  Basis Set:
  Basis Set: CC-PVTZ
  Basis Set:
  @DF-RHF Final Energy:  -387.25531430768604
    Total Energy =                       -387.2553143076856941
  Basis Set: CC-PVTZ
  Basis Set:
  Basis Set: CC-PVTZ
  Basis Set:
  @DF-RHF Final Energy:  -387.25545247949748
    Total Energy =                       -387.2554524794975350
  Basis Set: CC-PVTZ
  Basis Set:
  @DF-RHF Final Energy:  -387.25549103092931
    Total Energy =                       -387.2554910309290790
  @DF-RHF Final Energy:  -387.25557618260177
    Total Energy =                       -387.2555761826019989
  Basis Set: CC-PVTZ
  Basis Set:
  @DF-RHF Final Energy:  -387.25560078828318
    Total Energy =                       -387.2556007882833455
  Basis Set: CC-PVTZ
  Basis Set:
  Basis Set: CC-PVTZ
  Basis Set:
  @DF-RHF Final Energy:  -387.25562598324024
    Total Energy =                       -387.2556259832406340
  Basis Set: CC-PVTZ
  Basis Set:
  Basis Set: CC-PVTZ
  Basis Set:
  @DF-RHF Final Energy:  -387.25563297636029
    Total Energy =                       -387.2556329763600615
  Basis Set: CC-PVTZ
  Basis Set:
  Charge       = 0
  Multiplicity = 1
  Basis Set: CC-PVTZ
  Basis Set:

    Orbital Energies (a.u.)
    -----------------------

    Doubly Occupied:

       1A    -20.552362     2A    -11.321461     3A    -11.233934
       4A    -11.233213     5A    -11.220946     6A    -11.212990
       7A    -11.212064     8A    -11.211455     9A    -11.202120
      10A     -1.406940    11A     -1.102293    12A     -1.066462
      13A     -1.009085    14A     -0.943599    15A     -0.878968
      16A     -0.819292    17A     -0.786742    18A     -0.770945
      19A     -0.669857    20A     -0.659447    21A     -0.636321
      22A     -0.620240    23A     -0.604603    24A     -0.597370
      25A     -0.566707    26A     -0.548990    27A     -0.539084
      28A     -0.523266    29A     -0.513512    30A     -0.499656
      31A     -0.476787    32A     -0.475101    33A     -0.460814
      34A     -0.452362    35A     -0.443164    36A     -0.411091

  @DF-RHF Final Energy:  -387.25563347384735

   => Energetics <=

    Nuclear Repulsion Energy =            455.8103192120282188
    One-Electron Energy =               -1428.3654212132664725
    Two-Electron Energy =                 585.2994685273904452
    DFT Exchange-Correlation Energy =       0.0000000000000000
    Empirical Dispersion Energy =           0.0000000000000000
    PCM Polarization Energy =               0.0000000000000000
    EFP Energy =                            0.0000000000000000
    Total Energy =                       -387.2556334738478654
    Molecular point group: c1
  Basis Set: CC-PVTZ
  Basis Set:

  -Total Gradient:
     Atom            X                  Y                   Z
    ------   -----------------  -----------------  -----------------
       1       -0.000020029585    -0.000004095697    -0.000029121622
       2       -0.000053136497     0.000066053869    -0.000026754523
       3        0.001081727623    -0.000934004938     0.004330685667
       4        0.000075100897     0.000041987062     0.000002671170
       5       -0.002546838684     0.000058123178    -0.006144868078
       6       -0.000002419901     0.000018599079    -0.000002012133
       7       -0.000006105953     0.000062911500     0.000019120776
       8        0.005679639806     0.005147101761     0.001578275795
       9       -0.000013691391    -0.000025374352    -0.000007448905
      10       -0.000008450047     0.000001555129    -0.000014687539
      11        0.000009491591    -0.000090853422    -0.000000241717
      12       -0.004210705170    -0.004397662781     0.000324046346
      13        0.000011884131    -0.000031086365    -0.000002406934
      14        0.000011869518     0.000026261229    -0.000024344546
      15       -0.000033217452     0.000021960284    -0.000032767773
      16        0.000007137732     0.000022282587    -0.000000333702
      17       -0.000043419026     0.000038903032     0.000051988086
      18       -0.000002407769     0.000023317038    -0.000007562451
      19       -0.000002111951    -0.000012487097    -0.000017064776
      20        0.000023837455    -0.000020399218    -0.000020339990
      21       -0.000001368290    -0.000023013797     0.000009264570
      22       -0.000000726105     0.000015723815     0.000029273814
      23        0.000000986411     0.000007916844    -0.000018199479
      24        0.000038532704    -0.000003726919     0.000011127666
      25        0.000004419955    -0.000009991819    -0.000008299719

  **** Optimization is complete! (in 10 steps) ****
    Final optimized geometry and variables:
    Molecular point group: c1

    Geometry (in Angstrom), charge = 0, multiplicity = 1:

    H           -2.239070672611     2.049091112290    -1.606927162552
    C           -1.454938508555     2.090395364571    -0.838743439563
    C           -1.833608434020     1.486048285325     0.485913789034
    O           -0.411091728251     2.588209651916    -1.086807127032
    C           -2.311242293757     0.032892548928     0.362942570816
    H           -1.001303316899     1.584641504047     1.166823177315
    H           -2.655080512037     2.083448770268     0.875090925228
    C           -1.258980315520    -1.001028370391    -0.076175589686
    H           -2.690881189391    -0.252444917948     1.338155631049
    H           -3.160426575468    -0.013983076725    -0.311477560759
    C            0.157877611456    -0.800823816822     0.454808542678
    H           -1.254205944676    -1.084532598269    -1.159896717845
    H           -1.615430685229    -1.971313341098     0.259653466416
    C            1.082265312022    -1.959365860691     0.083845713059
    H            0.565845293179     0.127861172806     0.077120456192
    H            0.125451848432    -0.707547122790     1.538624661778
    C            2.503347019370    -1.845100939550     0.638614361621
    H            1.128197929690    -2.048280067547    -0.999163280403
    H            0.643885744984    -2.885479297011     0.445663443857
    C            3.330043691634    -0.706490772182     0.045821623918
    H            3.019179243502    -2.782277771274     0.452878812368
    H            2.458238187658    -1.734650727978     1.719099554712
    H            3.391738856394    -0.792496804016    -1.034210224158
    H            2.909640118243     0.264995525536     0.274623379358
    H            4.341386584210    -0.724001214172     0.435830139289

  Mulliken Charges: (a.u.)
   Center  Symbol    Alpha    Beta     Spin     Total
       1     H     0.46009  0.46009  0.00000  0.07981
       2     C     2.90495  2.90495  0.00000  0.19010
       3     C     3.10184  3.10184  0.00000 -0.20368
       4     O     4.16825  4.16825  0.00000 -0.33650
       5     C     3.11783  3.11783  0.00000 -0.23566
       6     H     0.43917  0.43917  0.00000  0.12166
       7     H     0.43449  0.43449  0.00000  0.13101
       8     C     3.10358  3.10358  0.00000 -0.20717
       9     H     0.44273  0.44273  0.00000  0.11454
      10     H     0.44307  0.44307  0.00000  0.11386
      11     C     3.09725  3.09725  0.00000 -0.19451
      12     H     0.44766  0.44766  0.00000  0.10469
      13     H     0.44691  0.44691  0.00000  0.10619
      14     C     3.09669  3.09669  0.00000 -0.19339
      15     H     0.43839  0.43839  0.00000  0.12322
      16     H     0.45443  0.45443  0.00000  0.09114
      17     C     3.09000  3.09000  0.00000 -0.17999
      18     H     0.45343  0.45343  0.00000  0.09315
      19     H     0.44971  0.44971  0.00000  0.10057
      20     C     3.15281  3.15281  0.00000 -0.30562
      21     H     0.44891  0.44891  0.00000  0.10218
      22     H     0.45577  0.45577  0.00000  0.08846
      23     H     0.45444  0.45444  0.00000  0.09113
      24     H     0.45039  0.45039  0.00000  0.09922
      25     H     0.44720  0.44720  0.00000  0.10560

   Total alpha = 36.00000, Total beta = 36.00000, Total charge = -0.00000

*** Psi4 exiting successfully. Buy a developer a beer!
