  ==> Input File <==

--------------------------------------------------------------------------
set {
	reference rhf
	basis 6-31G*
}

set_num_threads( 4 )
memory 2 gb

molecule MOL {
0 1

H	 -2.695746	 0.091566	 -1.502706
O	 -3.452007	 0.283848	 -0.965577
C	 -3.181085	 -0.079926	 0.364119
C	 -1.765924	 0.277073	 0.805136
H	 -3.327791	 -1.152017	 0.410903
H	 -3.905698	 0.375695	 1.036898
C	 -0.677594	 -0.417312	 -0.014550
H	 -1.637766	 1.358238	 0.744969
H	 -1.659588	 0.017670	 1.857098
C	 0.738335	 -0.034840	 0.421385
H	 -0.814977	 -0.178223	 -1.064632
H	 -0.802730	 -1.495410	 0.071702
C	 1.822265	 -0.738362	 -0.399735
H	 0.853533	 1.043532	 0.342250
H	 0.871597	 -0.279636	 1.474438
C	 3.258060	 -0.455774	 0.057203
H	 1.718003	 -0.459167	 -1.447053
H	 1.651028	 -1.811884	 -0.354513
C	 3.709143	 0.994797	 -0.123830
H	 3.930637	 -1.101717	 -0.501982
H	 3.365259	 -0.739518	 1.102287
H	 3.601178	 1.310569	 -1.158127
H	 4.753787	 1.110486	 0.148516
H	 3.135362	 1.678896	 0.492569

	symmetry c1
}
set optking {
	frozen_dihedral = ("
		1 2 3 5
	")
}

ee = optimize('scf')
oeprop('DIPOLE', 'QUADRUPOLE', 'MULLIKEN_CHARGES')
f=open( 'psi4out.xyz', 'w' )
f.write( "24  " )
f.write( str(ee) + "\n" )
f.write( MOL.save_string_xyz() )
f.close()
--------------------------------------------------------------------------

    Molecular point group: c1
  Charge       = 0
  Multiplicity = 1
  Basis Set: 6-31G*
  Basis Set:
  @DF-RHF Final Energy:  -349.24373134116712
    Total Energy =                       -349.2437313411666082
    Molecular point group: c1
  Basis Set: 6-31G*
  Basis Set:
  Basis Set: 6-31G*
  Basis Set:
  @DF-RHF Final Energy:  -349.24548210081031
    Total Energy =                       -349.2454821008105910
  Basis Set: 6-31G*
  Basis Set:
  Basis Set: 6-31G*
  Basis Set:
  @DF-RHF Final Energy:  -349.24608335376399
    Total Energy =                       -349.2460833537639360
  Basis Set: 6-31G*
  Basis Set:
  Basis Set: 6-31G*
  Basis Set:
  @DF-RHF Final Energy:  -349.24609581445759
    Total Energy =                       -349.2460958144579308
  Basis Set: 6-31G*
  Basis Set:
  Basis Set: 6-31G*
  Basis Set:
  @DF-RHF Final Energy:  -349.24610281487747
    Total Energy =                       -349.2461028148773039
  Basis Set: 6-31G*
  Basis Set:
  Basis Set: 6-31G*
  Basis Set:
  @DF-RHF Final Energy:  -349.24610474171436
    Total Energy =                       -349.2461047417144755
  Basis Set: 6-31G*
  Basis Set:
  Charge       = 0
  Multiplicity = 1
  Basis Set: 6-31G*
  Basis Set:

    Orbital Energies (a.u.)
    -----------------------

    Doubly Occupied:

       1A    -20.550232     2A    -11.266216     3A    -11.225276
       4A    -11.220116     5A    -11.219775     6A    -11.218566
       7A    -11.217784     8A    -11.210729     9A     -1.357600
      10A     -1.095573    11A     -1.052762    12A     -0.989496
      13A     -0.921106    14A     -0.856125    15A     -0.801849
      16A     -0.782589    17A     -0.682929    18A     -0.656601
      19A     -0.629308    20A     -0.614824    21A     -0.605587
      22A     -0.590997    23A     -0.562343    24A     -0.537793
      25A     -0.528462    26A     -0.513910    27A     -0.494112
      28A     -0.485147    29A     -0.479357    30A     -0.464873
      31A     -0.459262    32A     -0.439579    33A     -0.427776

  @DF-RHF Final Energy:  -349.24610407045088

   => Energetics <=

    Nuclear Repulsion Energy =            384.2722267465851473
    One-Electron Energy =               -1234.7193495432084092
    Two-Electron Energy =                 501.2010187261722649
    DFT Exchange-Correlation Energy =       0.0000000000000000
    Empirical Dispersion Energy =           0.0000000000000000
    PCM Polarization Energy =               0.0000000000000000
    EFP Energy =                            0.0000000000000000
    Total Energy =                       -349.2461040704509969
    Molecular point group: c1
  Basis Set: 6-31G*
  Basis Set:

  -Total Gradient:
     Atom            X                  Y                   Z
    ------   -----------------  -----------------  -----------------
       1        0.000928810790     0.002116643036     0.000295813016
       2       -0.001616439902    -0.002538398793    -0.000271564173
       3        0.002610032155     0.000127985370    -0.000695311100
       4       -0.000007760340     0.000029318633    -0.000000637212
       5       -0.001899268659     0.000346077431     0.000649603435
       6        0.000005123649    -0.000040008817     0.000033913685
       7       -0.000023603703    -0.000009856000    -0.000056767736
       8        0.000015364286    -0.000017274465    -0.000001441167
       9       -0.000035681674    -0.000012296796     0.000005047963
      10        0.000031371013     0.000006231835     0.000019856925
      11       -0.000029400809     0.000012067417    -0.000020736606
      12        0.000021331837    -0.000011861905     0.000021563389
      13       -0.000009026722    -0.000020998413     0.000024722662
      14        0.000037543304     0.000032524839     0.000007399304
      15        0.000011112203    -0.000001924612    -0.000003060385
      16        0.000013146362    -0.000001119706    -0.000037456370
      17        0.000000473337    -0.000021636873     0.000001883781
      18       -0.000009159410    -0.000002904528     0.000021546278
      19       -0.000018895232     0.000000708622     0.000015574356
      20        0.000001677514     0.000013868908    -0.000015192334
      21        0.000007417431    -0.000016358974    -0.000012342180
      22        0.000008124961    -0.000008340226     0.000004051501
      23       -0.000002482693     0.000006120038     0.000011499090
      24       -0.000039809696     0.000011433980     0.000002033881

  **** Optimization is complete! (in 7 steps) ****
    Final optimized geometry and variables:
    Molecular point group: c1

    Geometry (in Angstrom), charge = 0, multiplicity = 1:

    H           -2.866409804929     0.090796116749    -1.521846391991
    O           -3.558971614741     0.289732632083    -0.908955016894
    C           -3.179275710775    -0.094085195935     0.387415901539
    C           -1.756980897874     0.308289395723     0.761490333203
    H           -3.319187116466    -1.166468422399     0.519588183075
    H           -3.879200388124     0.396695492139     1.052105339665
    C           -0.664979803410    -0.400262182535    -0.045777113606
    H           -1.659123089218     1.385184369070     0.647764492830
    H           -1.614337002729     0.088961829940     1.817663018666
    C            0.748816000534    -0.025506261969     0.404962195737
    H           -0.763528126475    -0.159720194694    -1.103844839664
    H           -0.797255505302    -1.477742918602     0.037031006340
    C            1.839252058280    -0.725652701615    -0.410127474627
    H            0.865619650836     1.052792207742     0.336423889030
    H            0.867238355218    -0.280539432605     1.456846962379
    C            3.270076605372    -0.450154331383     0.066222886468
    H            1.748827993468    -0.436620487628    -1.456185566363
    H            1.664872110289    -1.799184670845    -0.376075833020
    C            3.723024452836     1.002710706553    -0.089427834128
    H            3.947872293844    -1.088681476104    -0.494872290606
    H            3.365528583914    -0.748960500685     1.108136141330
    H            3.628302168194     1.332654224058    -1.120545679233
    H            4.764070838204     1.114123648209     0.197577413641
    H            3.141794356655     1.678530612893     0.529039850314

  Mulliken Charges: (a.u.)
   Center  Symbol    Alpha    Beta     Spin     Total
       1     H     0.27885  0.27885  0.00000  0.44229
       2     O     4.37505  4.37505  0.00000 -0.75010
       3     C     2.98706  2.98706  0.00000  0.02588
       4     C     3.17260  3.17260  0.00000 -0.34521
       5     H     0.43169  0.43169  0.00000  0.13662
       6     H     0.41613  0.41613  0.00000  0.16774
       7     C     3.16049  3.16049  0.00000 -0.32098
       8     H     0.41492  0.41492  0.00000  0.17016
       9     H     0.42076  0.42076  0.00000  0.15849
      10     C     3.15259  3.15259  0.00000 -0.30517
      11     H     0.43049  0.43049  0.00000  0.13902
      12     H     0.42039  0.42039  0.00000  0.15921
      13     C     3.15297  3.15297  0.00000 -0.30595
      14     H     0.41936  0.41936  0.00000  0.16128
      15     H     0.42260  0.42260  0.00000  0.15481
      16     C     3.15265  3.15265  0.00000 -0.30530
      17     H     0.42416  0.42416  0.00000  0.15168
      18     H     0.42194  0.42194  0.00000  0.15612
      19     C     3.24152  3.24152  0.00000 -0.48304
      20     H     0.42034  0.42034  0.00000  0.15932
      21     H     0.42295  0.42295  0.00000  0.15409
      22     H     0.42202  0.42202  0.00000  0.15595
      23     H     0.41859  0.41859  0.00000  0.16283
      24     H     0.41987  0.41987  0.00000  0.16026

   Total alpha = 33.00000, Total beta = 33.00000, Total charge = -0.00000
