  ==> Input File <==

--------------------------------------------------------------------------
set {
	reference rhf
	basis 6-31G*
}

set_num_threads( 4 )
memory 2 gb

molecule MOL {
0 1

H	 1.766166	 0.764500	 1.169695
O	 0.979603	 0.231121	 1.229331
C	 0.489431	 0.077273	 0.000046
C	 -0.764129	 -0.759190	 0.000191
O	 1.008567	 0.558199	 -0.953774
C	 -2.038368	 0.075731	 -0.000248
H	 -0.717284	 -1.412404	 -0.866059
H	 -0.717458	 -1.411724	 0.866967
H	 -2.086483	 0.712501	 -0.875098
H	 -2.908485	 -0.571682	 -0.000042
H	 -2.086576	 0.713280	 0.874068

	symmetry c1
}
set optking {
	frozen_dihedral = ("
		2 3 4 7
	")
}

ee = optimize('scf')
oeprop('DIPOLE', 'QUADRUPOLE', 'MULLIKEN_CHARGES')
f=open( 'psi4out.xyz', 'w' )
f.write( "11  " )
f.write( str(ee) + "\n" )
f.write( MOL.save_string_xyz() )
f.close()
--------------------------------------------------------------------------

    Molecular point group: c1
  Charge       = 0
  Multiplicity = 1
  Basis Set: 6-31G*
  Basis Set:
  @DF-RHF Final Energy:  -266.84336387860361
    Total Energy =                       -266.8433638786036681
    Molecular point group: c1
  Basis Set: 6-31G*
  Basis Set:
  Basis Set: 6-31G*
  Basis Set:
  @DF-RHF Final Energy:  -266.84384281645339
    Total Energy =                       -266.8438428164533320
  Basis Set: 6-31G*
  Basis Set:
  Basis Set: 6-31G*
  Basis Set:
  @DF-RHF Final Energy:  -266.84395638001536
    Total Energy =                       -266.8439563800154701
  Basis Set: 6-31G*
  Basis Set:
  Basis Set: 6-31G*
  Basis Set:
  @DF-RHF Final Energy:  -266.84405151785052
    Total Energy =                       -266.8440515178506303
  Basis Set: 6-31G*
  Basis Set:
  Basis Set: 6-31G*
  Basis Set:
  @DF-RHF Final Energy:  -266.84406647266360
    Total Energy =                       -266.8440664726633713
  Basis Set: 6-31G*
  Basis Set:
  Charge       = 0
  Multiplicity = 1
  Basis Set: 6-31G*
  Basis Set:

    Orbital Energies (a.u.)
    -----------------------

    Doubly Occupied:

       1A    -20.615241     2A    -20.549638     3A    -11.381187
       4A    -11.242560     5A    -11.230594     6A     -1.475488
       7A     -1.365458     8A     -1.067285     9A     -0.913897
      10A     -0.813114    11A     -0.702740    12A     -0.686901
      13A     -0.642345    14A     -0.615793    15A     -0.592631
      16A     -0.540987    17A     -0.526889    18A     -0.512610
      19A     -0.474544    20A     -0.441497

  @DF-RHF Final Energy:  -266.84406707223735

   => Energetics <=

    Nuclear Repulsion Energy =            179.8711690005064838
    One-Electron Energy =                -720.6476710695477550
    Two-Electron Energy =                 273.9324349968038064
    DFT Exchange-Correlation Energy =       0.0000000000000000
    Empirical Dispersion Energy =           0.0000000000000000
    PCM Polarization Energy =               0.0000000000000000
    EFP Energy =                            0.0000000000000000
    Total Energy =                       -266.8440670722374648
    Molecular point group: c1
  Basis Set: 6-31G*
  Basis Set:

  -Total Gradient:
     Atom            X                  Y                   Z
    ------   -----------------  -----------------  -----------------
       1       -0.000048983310     0.000048489337    -0.000001016983
       2        0.000166440858    -0.000249227233    -0.000010267851
       3       -0.000135097817     0.000207589645    -0.000027107741
       4       -0.000162044782     0.000233590526    -0.000119310354
       5        0.000030721543    -0.000017442094     0.000016131593
       6       -0.000006266556    -0.000036356426    -0.000003946159
       7        0.000145323469    -0.000170979276     0.000151364884
       8        0.000000800114    -0.000032220628    -0.000001058281
       9        0.000000683890     0.000014406419    -0.000001003283
      10        0.000004026558    -0.000002457912    -0.000001893379
      11        0.000004396029     0.000004607642    -0.000001892448

  **** Optimization is complete! (in 6 steps) ****
    Final optimized geometry and variables:
    Molecular point group: c1

    Geometry (in Angstrom), charge = 0, multiplicity = 1:

    H            1.811544101463     0.734865482743     1.067528926304
    O            1.059059956700     0.155880317190     1.144094577307
    C            0.522424261708     0.014265601510    -0.065910073104
    C           -0.714016084501    -0.847676852480    -0.060334188317
    O            0.975080803614     0.548237415473    -1.026388196312
    C           -1.977430269659     0.022224603084    -0.086052705107
    H           -0.675944298509    -1.471316380374    -0.944817876859
    H           -0.708861277225    -1.484595436820     0.814592102663
    H           -1.986435024330     0.658217712887    -0.963214267122
    H           -2.861083325845    -0.605137158913    -0.109816006961
    H           -2.036335715337     0.651766844343     0.795425048690

  Mulliken Charges: (a.u.)
   Center  Symbol    Alpha    Beta     Spin     Total
       1     H     0.26807  0.26807  0.00000  0.46387
       2     O     4.34686  4.34686  0.00000 -0.69372
       3     C     2.63152  2.63152  0.00000  0.73696
       4     C     3.19926  3.19926  0.00000 -0.39853
       5     O     4.27917  4.27917  0.00000 -0.55834
       6     C     3.25109  3.25109  0.00000 -0.50219
       7     H     0.39781  0.39781  0.00000  0.20438
       8     H     0.40039  0.40039  0.00000  0.19922
       9     H     0.40420  0.40420  0.00000  0.19160
      10     H     0.41066  0.41066  0.00000  0.17867
      11     H     0.41096  0.41096  0.00000  0.17807

   Total alpha = 20.00000, Total beta = 20.00000, Total charge =  0.00000
