  ==> Input File <==

--------------------------------------------------------------------------
set {
	reference rhf
	basis cc-pvtz
}

set_num_threads( 4 )
memory 2 gb

molecule MOL {
0 1

H	 2.190573	 -0.629143	 -0.208718
O	 1.355408	 -0.529451	 0.208662
C	 0.700177	 0.619554	 -0.266242
C	 -0.713111	 0.588314	 0.266177
H	 0.678680	 0.627133	 -1.351786
H	 1.199747	 1.521489	 0.077736
O	 -1.421673	 -0.521378	 -0.196983
H	 -1.244794	 1.469161	 -0.069059
H	 -0.685100	 0.604721	 1.352683
H	 -2.153343	 -0.669859	 0.376286

	symmetry c1
}
set optking {
	frozen_dihedral = ("
		10 7 4 3
	")
}

ee = optimize('scf')
oeprop('DIPOLE', 'QUADRUPOLE', 'MULLIKEN_CHARGES')
f=open( 'psi4out.xyz', 'w' )
f.write( "10  " )
f.write( str(ee) + "\n" )
f.write( MOL.save_string_xyz() )
f.close()
--------------------------------------------------------------------------

    Molecular point group: c1
  Charge       = 0
  Multiplicity = 1
  Basis Set: CC-PVTZ
  Basis Set:
  @DF-RHF Final Energy:  -229.02226605292532
    Total Energy =                       -229.0222660529252607
    Molecular point group: c1
  Basis Set: CC-PVTZ
  Basis Set:
  Basis Set: CC-PVTZ
  Basis Set:
  @DF-RHF Final Energy:  -229.02392579732410
    Total Energy =                       -229.0239257973241251
  Basis Set: CC-PVTZ
  Basis Set:
  Basis Set: CC-PVTZ
  Basis Set:
  @DF-RHF Final Energy:  -229.02417313761126
    Total Energy =                       -229.0241731376112284
  Basis Set: CC-PVTZ
  Basis Set:
  Basis Set: CC-PVTZ
  Basis Set:
  @DF-RHF Final Energy:  -229.02419210463276
    Total Energy =                       -229.0241921046328457
  Basis Set: CC-PVTZ
  Basis Set:
  Basis Set: CC-PVTZ
  Basis Set:
  @DF-RHF Final Energy:  -229.02419697356268
    Total Energy =                       -229.0241969735627663
  Basis Set: CC-PVTZ
  Basis Set:
  Basis Set: CC-PVTZ
  Basis Set:
  @DF-RHF Final Energy:  -229.02419855245893
    Total Energy =                       -229.0241985524588699
  Basis Set: CC-PVTZ
  Basis Set:
  Charge       = 0
  Multiplicity = 1
  Basis Set: CC-PVTZ
  Basis Set:

    Orbital Energies (a.u.)
    -----------------------

    Doubly Occupied:

       1A    -20.546141     2A    -20.545754     3A    -11.268336
       4A    -11.267652     5A     -1.375118     6A     -1.355199
       7A     -1.003838     8A     -0.831932     9A     -0.717590
      10A     -0.711615    11A     -0.613074    12A     -0.602527
      13A     -0.594151    14A     -0.529765    15A     -0.473499
      16A     -0.445216    17A     -0.444050

  @DF-RHF Final Energy:  -229.02419884028978

   => Energetics <=

    Nuclear Repulsion Energy =            133.5117222278208828
    One-Electron Energy =                -578.4209320682566613
    Two-Electron Energy =                 215.8850110001460507
    DFT Exchange-Correlation Energy =       0.0000000000000000
    Empirical Dispersion Energy =           0.0000000000000000
    PCM Polarization Energy =               0.0000000000000000
    EFP Energy =                            0.0000000000000000
    Total Energy =                       -229.0241988402897277
    Molecular point group: c1
  Basis Set: CC-PVTZ
  Basis Set:

  -Total Gradient:
     Atom            X                  Y                   Z
    ------   -----------------  -----------------  -----------------
       1       -0.000004016988     0.000009135720    -0.000001067005
       2       -0.000005995723    -0.000024375051     0.000020215440
       3        0.000045923730    -0.000059000755     0.000053809468
       4       -0.000004322324     0.000111579650    -0.000050925939
       5       -0.000002631307     0.000001129971     0.000002953447
       6       -0.000014236073    -0.000006423550    -0.000001760585
       7       -0.000123828576     0.000106235767    -0.000123294172
       8       -0.000000093317    -0.000014200566    -0.000002484787
       9       -0.000003479581    -0.000004270785    -0.000005056850
      10        0.000112680161    -0.000119810403     0.000107610982

  **** Optimization is complete! (in 7 steps) ****
    Final optimized geometry and variables:
    Molecular point group: c1

    Geometry (in Angstrom), charge = 0, multiplicity = 1:

    H            2.213157042166    -0.643792112404    -0.206741117398
    O            1.424077150556    -0.494552866943     0.279577897824
    C            0.697404433849     0.558223989316    -0.287859218174
    C           -0.700985884523     0.558360078821     0.276676292479
    H            0.637741515931     0.457734815258    -1.367379064510
    H            1.164864784084     1.513668197568    -0.059846999776
    O           -1.423722124776    -0.506905419143    -0.272720598199
    H           -1.175258680718     1.506609048276     0.033912905135
    H           -0.639561427777     0.476006304876     1.357378590583
    H           -2.163934030828    -0.711331723263     0.266998545135

  Mulliken Charges: (a.u.)
   Center  Symbol    Alpha    Beta     Spin     Total
       1     H     0.39411  0.39411  0.00000  0.21178
       2     O     4.19646  4.19646  0.00000 -0.39293
       3     C     2.96069  2.96069  0.00000  0.07861
       4     C     2.96179  2.96179  0.00000  0.07643
       5     H     0.47079  0.47079  0.00000  0.05842
       6     H     0.47779  0.47779  0.00000  0.04443
       7     O     4.19738  4.19738  0.00000 -0.39476
       8     H     0.47717  0.47717  0.00000  0.04566
       9     H     0.47056  0.47056  0.00000  0.05888
      10     H     0.39326  0.39326  0.00000  0.21348

   Total alpha = 17.00000, Total beta = 17.00000, Total charge = -0.00000
