  ==> Input File <==

--------------------------------------------------------------------------
set {
	reference rhf
	basis 6-31G*
}

set_num_threads( 4 )
memory 2 gb

molecule MOL {
0 1

H	 -2.798360	 -0.862255	 -0.071053
N	 -1.863561	 -0.715187	 0.256814
C	 -1.344686	 0.554728	 -0.219830
H	 -1.300452	 -1.461917	 -0.101532
C	 0.081427	 0.741154	 0.254071
H	 -1.362155	 0.656231	 -1.305829
H	 -1.952773	 1.354456	 0.191809
O	 0.353613	 2.112713	 0.296825
H	 0.209766	 0.303016	 1.243617
H	 0.762813	 0.242478	 -0.431691
C	 1.666162	 2.427359	 0.637095
H	 1.755192	 3.505212	 0.638989
H	 1.921733	 2.052040	 1.626439
H	 2.372538	 2.016150	 -0.081063

	symmetry c1
}
set optking {
	frozen_dihedral = ("
		8 5 3 6
	")
}

ee = optimize('scf')
oeprop('DIPOLE', 'QUADRUPOLE', 'MULLIKEN_CHARGES')
f=open( 'psi4out.xyz', 'w' )
f.write( "14  " )
f.write( str(ee) + "\n" )
f.write( MOL.save_string_xyz() )
f.close()
--------------------------------------------------------------------------

    Molecular point group: c1
  Charge       = 0
  Multiplicity = 1
  Basis Set: 6-31G*
  Basis Set:
  @DF-RHF Final Energy:  -248.12030260302765
    Total Energy =                       -248.1203026030274827
    Molecular point group: c1
  Basis Set: 6-31G*
  Basis Set:
  Basis Set: 6-31G*
  Basis Set:
  @DF-RHF Final Energy:  -248.12081954895061
    Total Energy =                       -248.1208195489505215
  Basis Set: 6-31G*
  Basis Set:
  Basis Set: 6-31G*
  Basis Set:
  @DF-RHF Final Energy:  -248.12091555490824
    Total Energy =                       -248.1209155549083789
  Basis Set: 6-31G*
  Basis Set:
  Basis Set: 6-31G*
  Basis Set:
  @DF-RHF Final Energy:  -248.12093936072679
    Total Energy =                       -248.1209393607266520
  Basis Set: 6-31G*
  Basis Set:
  Basis Set: 6-31G*
  Basis Set:
  @DF-RHF Final Energy:  -248.12094178538948
    Total Energy =                       -248.1209417853895047
  Basis Set: 6-31G*
  Basis Set:
  Charge       = 0
  Multiplicity = 1
  Basis Set: 6-31G*
  Basis Set:

    Orbital Energies (a.u.)
    -----------------------

    Doubly Occupied:

       1A    -20.554117     2A    -15.537844     3A    -11.263887
       4A    -11.263302     5A    -11.241083     6A     -1.378564
       7A     -1.179763     8A     -0.997803     9A     -0.899274
      10A     -0.822873    11A     -0.680405    12A     -0.669592
      13A     -0.645631    14A     -0.621854    15A     -0.602101
      16A     -0.548708    17A     -0.518380    18A     -0.498917
      19A     -0.468530    20A     -0.413463    21A     -0.387462

  @DF-RHF Final Energy:  -248.12094196676014

   => Energetics <=

    Nuclear Repulsion Energy =            190.7270539974030044
    One-Electron Energy =                -715.3088899962244795
    Two-Electron Energy =                 276.4608940320611623
    DFT Exchange-Correlation Energy =       0.0000000000000000
    Empirical Dispersion Energy =           0.0000000000000000
    PCM Polarization Energy =               0.0000000000000000
    EFP Energy =                            0.0000000000000000
    Total Energy =                       -248.1209419667603129
    Molecular point group: c1
  Basis Set: 6-31G*
  Basis Set:

  -Total Gradient:
     Atom            X                  Y                   Z
    ------   -----------------  -----------------  -----------------
       1        0.000002850618    -0.000008224818    -0.000003417915
       2       -0.000033176667    -0.000031779588     0.000021046820
       3       -0.001347297539     0.006199818235     0.001547277061
       4       -0.000003357178     0.000002702181    -0.000003531357
       5        0.001768119133    -0.001395847692    -0.004851805781
       6        0.000818145739    -0.004935439989    -0.000397244322
       7       -0.000008368255    -0.000013202859    -0.000004183196
       8       -0.001213330892     0.000168478427     0.003697205052
       9        0.000007240649    -0.000005434899    -0.000006474890
      10       -0.000004073851    -0.000011458167     0.000000680428
      11        0.000008884023     0.000033664870    -0.000003747549
      12        0.000012534716     0.000002624684     0.000004172704
      13       -0.000003860694    -0.000003728353    -0.000003525783
      14       -0.000004309802    -0.000002172032     0.000003548728

  **** Optimization is complete! (in 6 steps) ****
    Final optimized geometry and variables:
    Molecular point group: c1

    Geometry (in Angstrom), charge = 0, multiplicity = 1:

    H           -2.615443850595    -1.837049834814    -0.164616532300
    N           -1.634240440194    -1.755648283139     0.018308626569
    C           -1.133439669373    -0.470743311293    -0.458289038356
    H           -1.191117037138    -2.511954832963    -0.468468350756
    C            0.300992316573    -0.266139485636     0.008387128291
    H           -1.177854112031    -0.391744295021    -1.544418347186
    H           -1.740983666358     0.316083712909    -0.031446142585
    O            0.570270018151     1.104113328781     0.028484985103
    H            0.407021156663    -0.684444349939     1.006696722684
    H            1.003573548189    -0.784076355828    -0.645506941017
    C            1.867710219691     1.424913899683     0.415155189171
    H            1.954864702073     2.502854491357     0.407410364460
    H            2.085607383768     1.060956230760     1.417562972534
    H            2.603744352680     1.007619194875    -0.269954347923

  Mulliken Charges: (a.u.)
   Center  Symbol    Alpha    Beta     Spin     Total
       1     H     0.32977  0.32977  0.00000  0.34046
       2     N     3.92568  3.92568  0.00000 -0.85135
       3     C     3.07621  3.07621  0.00000 -0.15241
       4     H     0.33501  0.33501  0.00000  0.32999
       5     C     2.98502  2.98502  0.00000  0.02996
       6     H     0.42756  0.42756  0.00000  0.14488
       7     H     0.40688  0.40688  0.00000  0.18623
       8     O     4.30774  4.30774  0.00000 -0.61547
       9     H     0.41943  0.41943  0.00000  0.16113
      10     H     0.43542  0.43542  0.00000  0.12917
      11     C     3.07943  3.07943  0.00000 -0.15885
      12     H     0.41228  0.41228  0.00000  0.17543
      13     H     0.42896  0.42896  0.00000  0.14208
      14     H     0.43062  0.43062  0.00000  0.13876

   Total alpha = 21.00000, Total beta = 21.00000, Total charge = -0.00000
