  ==> Input File <==

--------------------------------------------------------------------------
set {
	reference rhf
	basis cc-pvtz
}

set_num_threads( 4 )
memory 2 gb

molecule MOL {
0 1

H	 -3.817075	 -2.302848	 -0.154665
C	 -2.746876	 -2.220321	 -0.160808
C	 -1.969101	 -3.346436	 -0.362242
C	 -2.149933	 -0.988967	 0.032605
H	 -2.433137	 -4.301869	 -0.512300
C	 -0.593958	 -3.239594	 -0.370004
H	 -2.753989	 -0.116263	 0.188735
C	 -0.773108	 -0.880363	 0.025105
H	 0.023273	 -4.101110	 -0.524520
C	 0.009121	 -2.006428	 -0.176404
H	 -0.307649	 0.071757	 0.174587
C	 1.498651	 -1.943786	 -0.193624
O	 1.968286	 -0.725612	 -0.000027
O	 2.196404	 -2.886960	 -0.363161
C	 3.373556	 -0.568203	 0.000011
H	 3.695416	 -0.031588	 -0.879663
H	 3.782700	 -1.565294	 -0.000152
H	 3.695405	 -0.031851	 0.879862

	symmetry c1
}
set optking {
	frozen_dihedral = ("
		12 13 15 16
	")
}

ee = optimize('scf')
oeprop('DIPOLE', 'QUADRUPOLE', 'MULLIKEN_CHARGES')
f=open( 'psi4out.xyz', 'w' )
f.write( "18  " )
f.write( str(ee) + "\n" )
f.write( MOL.save_string_xyz() )
f.close()
--------------------------------------------------------------------------

    Molecular point group: c1
  Charge       = 0
  Multiplicity = 1
  Basis Set: CC-PVTZ
  Basis Set:
  @DF-RHF Final Energy:  -457.50616156397666
    Total Energy =                       -457.5061615639763204
    Molecular point group: c1
  Basis Set: CC-PVTZ
  Basis Set:
  Basis Set: CC-PVTZ
  Basis Set:
  @DF-RHF Final Energy:  -457.50718523009419
    Total Energy =                       -457.5071852300941373
  Basis Set: CC-PVTZ
  Basis Set:
  Basis Set: CC-PVTZ
  Basis Set:
  @DF-RHF Final Energy:  -457.50817342601641
    Total Energy =                       -457.5081734260164694
  Basis Set: CC-PVTZ
  Basis Set:
  Basis Set: CC-PVTZ
  Basis Set:
  @DF-RHF Final Energy:  -457.50784240748459
    Total Energy =                       -457.5078424074848726
  Basis Set: CC-PVTZ
  Basis Set:
  Basis Set: CC-PVTZ
  Basis Set:
  @DF-RHF Final Energy:  -457.50824005705704
    Total Energy =                       -457.5082400570569234
  Basis Set: CC-PVTZ
  Basis Set:
  Charge       = 0
  Multiplicity = 1
  Basis Set: CC-PVTZ
  Basis Set:

    Orbital Energies (a.u.)
    -----------------------

    Doubly Occupied:

       1A    -20.599969     2A    -20.533666     3A    -11.373181
       4A    -11.279945     5A    -11.244618     6A    -11.243202
       7A    -11.242290     8A    -11.239656     9A    -11.235714
      10A    -11.234948    11A     -1.474586    12A     -1.369052
      13A     -1.170359    14A     -1.051554    15A     -1.028676
      16A     -0.981588    17A     -0.862755    18A     -0.838062
      19A     -0.780393    20A     -0.745069    21A     -0.688375
      22A     -0.679300    23A     -0.676107    24A     -0.634307
      25A     -0.629753    26A     -0.600896    27A     -0.587616
      28A     -0.570893    29A     -0.526729    30A     -0.520035
      31A     -0.510067    32A     -0.501553    33A     -0.460309
      34A     -0.449868    35A     -0.350024    36A     -0.345879

  @DF-RHF Final Energy:  -457.50824434257743

   => Energetics <=

    Nuclear Repulsion Energy =            493.6027727082284855
    One-Electron Energy =               -1601.7000472483503017
    Two-Electron Energy =                 650.5890301975446164
    DFT Exchange-Correlation Energy =       0.0000000000000000
    Empirical Dispersion Energy =           0.0000000000000000
    PCM Polarization Energy =               0.0000000000000000
    EFP Energy =                            0.0000000000000000
    Total Energy =                       -457.5082443425771999
    Molecular point group: c1
  Basis Set: CC-PVTZ
  Basis Set:

  -Total Gradient:
     Atom            X                  Y                   Z
    ------   -----------------  -----------------  -----------------
       1       -0.000000562564     0.000000809176     0.000000682405
       2       -0.000002273631    -0.000009869372    -0.000001673230
       3       -0.000021273562     0.000002708486     0.000001141734
       4        0.000000659926    -0.000002622888    -0.000002412399
       5       -0.000004687795     0.000000530467    -0.000000103684
       6       -0.000002531029     0.000009940609     0.000005500986
       7       -0.000005278848    -0.000001137133    -0.000000632803
       8       -0.000025542496     0.000013843872     0.000005571768
       9       -0.000001727563     0.000004572245    -0.000000448230
      10       -0.000036768399    -0.000020585438    -0.000034030547
      11       -0.000012781027    -0.000015710670    -0.000003133723
      12       -0.000023931538    -0.000149614838     0.000801021372
      13        0.000083535483     0.000360358595    -0.000990457702
      14        0.000062399365     0.000102761634    -0.000021584627
      15        0.000061966627    -0.000959622246    -0.000156876151
      16       -0.000129609661     0.000694111029     0.000403239012
      17        0.000047344829    -0.000030608378     0.000002078373
      18        0.000011061886     0.000000134857    -0.000007882555

  **** Optimization is complete! (in 6 steps) ****
    Final optimized geometry and variables:
    Molecular point group: c1

    Geometry (in Angstrom), charge = 0, multiplicity = 1:

    H           -4.027527686093    -0.406950483471     0.015971333502
    C           -2.956441971711    -0.336806822154     0.004900895496
    C           -2.192630065865    -1.471294225685    -0.203120139108
    C           -2.344081449703     0.886864592215     0.198416968654
    H           -2.668331350000    -2.421007339061    -0.353411714387
    C           -0.816385656653    -1.380299863317    -0.217306388791
    H           -2.936972808219     1.766335510802     0.359590090967
    C           -0.965982594580     0.979535615131     0.184589144722
    H           -0.210274114368    -2.248690109098    -0.377162282218
    C           -0.197616968762    -0.154812067874    -0.023412480386
    H           -0.489268273496     1.925975848119     0.334049468251
    C            1.293951261770    -0.111628153536    -0.047894476369
    O            1.771109589437     1.104625872900     0.144620178309
    O            1.972259316961    -1.067315031298    -0.222895943795
    C            3.171569786923     1.308131278993     0.165970567795
    H            3.454557220329     1.853252781910    -0.723131245161
    H            3.697936211862     0.370930059626     0.209489043660
    H            3.394745333753     1.905602535153     1.036959449674

  Mulliken Charges: (a.u.)
   Center  Symbol    Alpha    Beta     Spin     Total
       1     H     0.42034  0.42034  0.00000  0.15932
       2     C     3.06971  3.06971  0.00000 -0.13943
       3     C     3.07554  3.07554  0.00000 -0.15108
       4     C     3.07482  3.07482  0.00000 -0.14964
       5     H     0.42049  0.42049  0.00000  0.15903
       6     C     3.07596  3.07596  0.00000 -0.15192
       7     H     0.42199  0.42199  0.00000  0.15603
       8     C     3.08188  3.08188  0.00000 -0.16375
       9     H     0.40636  0.40636  0.00000  0.18728
      10     C     3.01851  3.01851  0.00000 -0.03701
      11     H     0.41125  0.41125  0.00000  0.17751
      12     C     2.77461  2.77461  0.00000  0.45077
      13     O     4.15010  4.15010  0.00000 -0.30021
      14     O     4.21149  4.21149  0.00000 -0.42298
      15     C     3.04230  3.04230  0.00000 -0.08460
      16     H     0.45390  0.45390  0.00000  0.09220
      17     H     0.43997  0.43997  0.00000  0.12006
      18     H     0.45079  0.45079  0.00000  0.09842

   Total alpha = 36.00000, Total beta = 36.00000, Total charge = -0.00000
