  ==> Input File <==

--------------------------------------------------------------------------
set {
	reference rhf
	basis 6-31G*
}

set_num_threads( 1 )
memory 2 gb

molecule MOL {
0 1

O	 1.846825	 1.296220	 0.000415
C	 1.705091	 0.115954	 0.001797
C	 0.381791	 -0.609817	 0.001258
O	 2.721346	 -0.737485	 -0.000216
C	 -0.823008	 0.326187	 0.001381
H	 0.371250	 -1.265087	 -0.865474
H	 0.370908	 -1.265746	 0.867490
C	 -1.180315	 0.812501	 -1.403927
H	 -0.615640	 1.175844	 0.644241
H	 -1.673046	 -0.185094	 0.442217
C	 -2.386306	 1.753304	 -1.422256
H	 -0.322760	 1.321161	 -1.841948
H	 -1.384832	 -0.044193	 -2.044342
C	 -2.743584	 2.237912	 -2.826805
H	 -2.182581	 2.610929	 -0.784984
H	 -3.243987	 1.246313	 -0.985815
H	 -1.916617	 2.779697	 -3.277147
H	 -3.601883	 2.902271	 -2.806785
H	 -2.986029	 1.404122	 -3.479740
C	 4.024888	 -0.184556	 -0.001949
H	 4.179030	 0.422472	 -0.882452
H	 4.701782	 -1.024608	 -0.003642
H	 4.181981	 0.421185	 0.878906

	symmetry c1
}
set optking {
	frozen_dihedral = ("
		15 11 8 12,
		9 5 8 12,
		1 2 3 6,
		1 2 4 20
	")
}

ee = energy('scf')
oeprop('DIPOLE', 'QUADRUPOLE', 'MULLIKEN_CHARGES')
f=open( 'psi4out.xyz', 'w' )
f.write( "23  " )
f.write( str(ee) + "\n" )
f.write( MOL.save_string_xyz() )
f.close()
--------------------------------------------------------------------------

    Molecular point group: c1

    Geometry (in Angstrom), charge = 0, multiplicity = 1:

       Center              X                  Y                   Z               Mass
    ------------   -----------------  -----------------  -----------------  -----------------
           O          1.411346313258     0.735601172393     0.631109366522    15.994914619560
           C          1.269612313258    -0.444664827607     0.632491366522    12.000000000000
           C         -0.053687686742    -1.170435827607     0.631952366522    12.000000000000
           O          2.285867313258    -1.298103827607     0.630478366522    15.994914619560
           C         -1.258486686742    -0.234431827607     0.632075366522    12.000000000000
           H         -0.064228686742    -1.825705827607    -0.234779633478     1.007825032070
           H         -0.064570686742    -1.826364827607     1.498184366522     1.007825032070
           C         -1.615793686742     0.251882172393    -0.773232633478    12.000000000000
           H         -1.051118686742     0.615225172393     1.274935366522     1.007825032070
           H         -2.108524686742    -0.745712827607     1.072911366522     1.007825032070
           C         -2.821784686742     1.192685172393    -0.791561633478    12.000000000000
           H         -0.758238686742     0.760542172393    -1.211253633478     1.007825032070
           H         -1.820310686742    -0.604811827607    -1.413647633478     1.007825032070
           C         -3.179062686742     1.677293172393    -2.196110633478    12.000000000000
           H         -2.618059686742     2.050310172393    -0.154289633478     1.007825032070
           H         -3.679465686742     0.685694172393    -0.355120633478     1.007825032070
           H         -2.352095686742     2.219078172393    -2.646452633478     1.007825032070
           H         -4.037361686742     2.341652172393    -2.176090633478     1.007825032070
           H         -3.421507686742     0.843503172393    -2.849045633478     1.007825032070
           C          3.589409313258    -0.745174827607     0.628745366522    12.000000000000
           H          3.743551313258    -0.138146827607    -0.251757633478     1.007825032070
           H          4.266303313258    -1.585226827607     0.627052366522     1.007825032070
           H          3.746502313258    -0.139433827607     1.509600366522     1.007825032070

  Charge       = 0
  Multiplicity = 1
  Basis Set: 6-31G*
  Basis Set:

    Orbital Energies (a.u.)
    -----------------------

    Doubly Occupied:

       1A    -20.604528     2A    -20.546611     3A    -11.373128
       4A    -11.281416     5A    -11.235074     6A    -11.218156
       7A    -11.212603     8A    -11.211897     9A    -11.206071
      10A     -1.470292    11A     -1.363989    12A     -1.091118
      13A     -1.041205    14A     -0.986059    15A     -0.929583
      16A     -0.843253    17A     -0.793360    18A     -0.766686
      19A     -0.703377    20A     -0.680947    21A     -0.672342
      22A     -0.638026    23A     -0.613690    24A     -0.598941
      25A     -0.568531    26A     -0.556113    27A     -0.551809
      28A     -0.531929    29A     -0.522540    30A     -0.500096
      31A     -0.490210    32A     -0.466385    33A     -0.464676
      34A     -0.455191    35A     -0.449209    36A     -0.437938

  @DF-RHF Final Energy:  -422.97508384350880

   => Energetics <=

    Nuclear Repulsion Energy =            461.6590480198142927
    One-Electron Energy =               -1491.1142449744686473
    Two-Electron Energy =                 606.4801131111445329
    DFT Exchange-Correlation Energy =       0.0000000000000000
    Empirical Dispersion Energy =           0.0000000000000000
    PCM Polarization Energy =               0.0000000000000000
    EFP Energy =                            0.0000000000000000
    Total Energy =                       -422.9750838435098785

  Mulliken Charges: (a.u.)
   Center  Symbol    Alpha    Beta     Spin     Total
       1     O     4.28626  4.28626  0.00000 -0.57252
       2     C     2.60664  2.60664  0.00000  0.78672
       3     C     3.20995  3.20995  0.00000 -0.41991
       4     O     4.30659  4.30659  0.00000 -0.61319
       5     C     3.15721  3.15721  0.00000 -0.31443
       6     H     0.39966  0.39966  0.00000  0.20067
       7     H     0.39783  0.39783  0.00000  0.20434
       8     C     3.15543  3.15543  0.00000 -0.31085
       9     H     0.40462  0.40462  0.00000  0.19075
      10     H     0.41903  0.41903  0.00000  0.16193
      11     C     3.15227  3.15227  0.00000 -0.30454
      12     H     0.41250  0.41250  0.00000  0.17501
      13     H     0.42664  0.42664  0.00000  0.14671
      14     C     3.23961  3.23961  0.00000 -0.47922
      15     H     0.41962  0.41962  0.00000  0.16076
      16     H     0.42460  0.42460  0.00000  0.15079
      17     H     0.42027  0.42027  0.00000  0.15947
      18     H     0.41957  0.41957  0.00000  0.16086
      19     H     0.42290  0.42290  0.00000  0.15419
      20     C     3.09239  3.09239  0.00000 -0.18478
      21     H     0.40906  0.40906  0.00000  0.18188
      22     H     0.40832  0.40832  0.00000  0.18337
      23     H     0.40901  0.40901  0.00000  0.18197

   Total alpha = 36.00000, Total beta = 36.00000, Total charge =  0.00000
