  ==> Input File <==

--------------------------------------------------------------------------
set {
	reference rhf
	basis 6-31G*
}

set_num_threads( 4 )
memory 2 gb

molecule MOL {
0 1

O	 3.282449	 1.253911	 0.178939
C	 2.735283	 0.222379	 0.401676
C	 1.245376	 -0.013843	 0.345420
O	 3.384152	 -0.885448	 0.738302
C	 0.455112	 1.231400	 -0.050772
H	 1.079343	 -0.836788	 -0.341885
H	 0.938761	 -0.377113	 1.323029
C	 -0.998893	 1.219485	 0.433193
H	 0.482531	 1.345121	 -1.130325
H	 0.957290	 2.103070	 0.354729
C	 -1.883438	 0.145884	 -0.207175
H	 -1.431207	 2.195402	 0.224832
H	 -1.019646	 1.105716	 1.516076
C	 -3.347647	 0.245583	 0.225435
H	 -1.822183	 0.231698	 -1.291012
H	 -1.510341	 -0.844814	 0.042401
C	 -4.239992	 -0.825570	 -0.404234
H	 -3.732888	 1.230466	 -0.033079
H	 -3.408585	 0.170602	 1.310038
C	 -5.701275	 -0.716658	 0.029921
H	 -4.179496	 -0.752714	 -1.488058
H	 -3.859041	 -1.810759	 -0.143352
H	 -6.308102	 -1.488908	 -0.432678
H	 -6.122175	 0.245478	 -0.248167
H	 -5.799072	 -0.820114	 1.106957
C	 4.794658	 -0.801410	 0.829385
H	 5.220681	 -0.516814	 -0.121938
H	 5.131561	 -1.787179	 1.110031
H	 5.084849	 -0.079076	 1.578757

	symmetry c1
}
set optking {
	frozen_dihedral = ("
		6 3 5 9
	")
}

ee = optimize('scf')
oeprop('DIPOLE', 'QUADRUPOLE', 'MULLIKEN_CHARGES')
f=open( 'psi4out.xyz', 'w' )
f.write( "29  " )
f.write( str(ee) + "\n" )
f.write( MOL.save_string_xyz() )
f.close()
--------------------------------------------------------------------------

    Molecular point group: c1
  Charge       = 0
  Multiplicity = 1
  Basis Set: 6-31G*
  Basis Set:
  @DF-RHF Final Energy:  -501.04289724018349
    Total Energy =                       -501.0428972401837200
    Molecular point group: c1
  Basis Set: 6-31G*
  Basis Set:
  Basis Set: 6-31G*
  Basis Set:
  @DF-RHF Final Energy:  -501.04288551776142
    Total Energy =                       -501.0428855177618743
  Basis Set: 6-31G*
  Basis Set:
  Basis Set: 6-31G*
  Basis Set:
  @DF-RHF Final Energy:  -501.04304758344040
    Total Energy =                       -501.0430475834397157
  Basis Set: 6-31G*
  Basis Set:
  Basis Set: 6-31G*
  Basis Set:
  @DF-RHF Final Energy:  -501.04310639921835
    Total Energy =                       -501.0431063992183454
  Basis Set: 6-31G*
  Basis Set:
  Basis Set: 6-31G*
  Basis Set:
  @DF-RHF Final Energy:  -501.04300746999490
    Total Energy =                       -501.0430074699943361
  Basis Set: 6-31G*
  Basis Set:
  Basis Set: 6-31G*
  Basis Set:
  @DF-RHF Final Energy:  -501.04310784540007
    Total Energy =                       -501.0431078454007547
  Basis Set: 6-31G*
  Basis Set:
  Charge       = 0
  Multiplicity = 1
  Basis Set: 6-31G*
  Basis Set:

    Orbital Energies (a.u.)
    -----------------------

    Doubly Occupied:

       1A    -20.603371     2A    -20.545402     3A    -11.372114
       4A    -11.280680     5A    -11.235132     6A    -11.218498
       7A    -11.217172     8A    -11.215933     9A    -11.215818
      10A    -11.214380    11A    -11.209080    12A     -1.469171
      13A     -1.362566    14A     -1.097977    15A     -1.066423
      16A     -1.019413    17A     -0.976917    18A     -0.928411
      19A     -0.861566    20A     -0.799305    21A     -0.790549
      22A     -0.763360    23A     -0.700119    24A     -0.682431
      25A     -0.672267    26A     -0.652069    27A     -0.628101
      28A     -0.604258    29A     -0.594398    30A     -0.580926
      31A     -0.567202    32A     -0.550174    33A     -0.532032
      34A     -0.528786    35A     -0.514522    36A     -0.513226
      37A     -0.497594    38A     -0.477061    39A     -0.470094
      40A     -0.462185    41A     -0.458809    42A     -0.455714
      43A     -0.440148    44A     -0.436179

  @DF-RHF Final Energy:  -501.04310855295432

   => Energetics <=

    Nuclear Repulsion Energy =            610.1884348754366556
    One-Electron Energy =               -1891.5000179292203484
    Two-Electron Energy =                 780.2684745008294840
    DFT Exchange-Correlation Energy =       0.0000000000000000
    Empirical Dispersion Energy =           0.0000000000000000
    PCM Polarization Energy =               0.0000000000000000
    EFP Energy =                            0.0000000000000000
    Total Energy =                       -501.0431085529540951
    Molecular point group: c1
  Basis Set: 6-31G*
  Basis Set:

  -Total Gradient:
     Atom            X                  Y                   Z
    ------   -----------------  -----------------  -----------------
       1       -0.000010663536    -0.000018576954     0.000139833890
       2        0.000013487835    -0.000084649994    -0.000360454194
       3       -0.003334672150    -0.001391873296     0.002023864573
       4        0.000047348458     0.000045726893     0.000111294819
       5        0.003396958234     0.002023155235    -0.000114392350
       6        0.002213883119     0.000814608804    -0.001564596333
       7       -0.000040849945    -0.000001933349    -0.000023662810
       8       -0.000008651351     0.000077244505    -0.000087929056
       9       -0.002355996236    -0.001471447434    -0.000143155751
      10       -0.000013471052     0.000046647694    -0.000010585470
      11        0.000041657689    -0.000035211805     0.000022476426
      12       -0.000020572971     0.000030846551     0.000010781159
      13        0.000056101624    -0.000019183470    -0.000031613482
      14        0.000002402759     0.000004042157     0.000003052731
      15        0.000013461533    -0.000007523753     0.000014487360
      16        0.000004682815    -0.000017595862     0.000012706992
      17       -0.000006601706     0.000014802909    -0.000013943504
      18       -0.000001326225     0.000004473426     0.000010859211
      19       -0.000003990520    -0.000011320312     0.000000018836
      20       -0.000002721670    -0.000000886057    -0.000003859256
      21        0.000000480077    -0.000003902535    -0.000004156854
      22       -0.000001187908     0.000006661337     0.000002964084
      23       -0.000001858114    -0.000000743423     0.000001265735
      24       -0.000000271940    -0.000001399231    -0.000000888176
      25        0.000001070921     0.000001350447     0.000000180787
      26        0.000001449785    -0.000007809135     0.000003996819
      27       -0.000001261458     0.000000464587    -0.000002781091
      28        0.000005939289     0.000003070512     0.000001421269
      29        0.000005172633     0.000000961557     0.000002813633

  **** Optimization is complete! (in 7 steps) ****
    Final optimized geometry and variables:
    Molecular point group: c1

    Geometry (in Angstrom), charge = 0, multiplicity = 1:

    O            3.279342810133     1.149503632297    -0.063214085103
    C            2.703812873891     0.136061655615     0.170495040359
    C            1.204905698504    -0.058520287426     0.148680468295
    O            3.325115120535    -0.991860898586     0.492749147485
    C            0.436736564433     1.200835283067    -0.259047192168
    H            1.018784548122    -0.882512893637    -0.532370157893
    H            0.913016537013    -0.403780704403     1.136654645363
    C           -1.027224015082     1.193415588650     0.195037542512
    H            0.465068904917     1.301864648882    -1.340434177790
    H            0.935921522637     2.069883759979     0.150935859323
    C           -1.881843723218     0.086188168804    -0.427669855424
    H           -1.466245361981     2.156986786070    -0.053520567968
    H           -1.067193941999     1.113388038984     1.280367242953
    C           -3.353410473372     0.164203333523    -0.016526047516
    H           -1.808184773632     0.145446296931    -1.512657213327
    H           -1.488364209956    -0.889008615326    -0.148333043236
    C           -4.215289462352    -0.937570342470    -0.635729758566
    H           -3.755063401910     1.135561222434    -0.300101188025
    H           -3.427454998180     0.109949926413     1.068480055052
    C           -5.684024686415    -0.850710940228    -0.222223674814
    H           -4.142298179268    -0.884959318317    -1.719972017188
    H           -3.817445754979    -1.909211286273    -0.350401356775
    H           -6.268668531782    -1.644691089965    -0.676548030212
    H           -6.121166429558     0.096592634587    -0.525071811588
    H           -5.793571282897    -0.934517470611     0.855384127948
    C            4.739151396182    -0.951969682194     0.554130206924
    H            5.153716991120    -0.680443978727    -0.406037856591
    H            5.050897493034    -1.947912899164     0.827843316285
    H            5.067549982425    -0.239416315366     1.297068484575

  Mulliken Charges: (a.u.)
   Center  Symbol    Alpha    Beta     Spin     Total
       1     O     4.28549  4.28549  0.00000 -0.57097
       2     C     2.60814  2.60814  0.00000  0.78373
       3     C     3.20931  3.20931  0.00000 -0.41862
       4     O     4.30677  4.30677  0.00000 -0.61354
       5     C     3.15580  3.15580  0.00000 -0.31159
       6     H     0.39848  0.39848  0.00000  0.20304
       7     H     0.40039  0.40039  0.00000  0.19921
       8     C     3.15734  3.15734  0.00000 -0.31467
       9     H     0.41683  0.41683  0.00000  0.16633
      10     H     0.40138  0.40138  0.00000  0.19725
      11     C     3.15520  3.15520  0.00000 -0.31039
      12     H     0.41874  0.41874  0.00000  0.16252
      13     H     0.42359  0.42359  0.00000  0.15282
      14     C     3.15021  3.15021  0.00000 -0.30042
      15     H     0.42336  0.42336  0.00000  0.15328
      16     H     0.42290  0.42290  0.00000  0.15419
      17     C     3.15142  3.15142  0.00000 -0.30285
      18     H     0.42336  0.42336  0.00000  0.15328
      19     H     0.42397  0.42397  0.00000  0.15207
      20     C     3.23934  3.23934  0.00000 -0.47868
      21     H     0.42295  0.42295  0.00000  0.15409
      22     H     0.42341  0.42341  0.00000  0.15318
      23     H     0.41926  0.41926  0.00000  0.16148
      24     H     0.42156  0.42156  0.00000  0.15688
      25     H     0.42179  0.42179  0.00000  0.15641
      26     C     3.09225  3.09225  0.00000 -0.18451
      27     H     0.40907  0.40907  0.00000  0.18186
      28     H     0.40854  0.40854  0.00000  0.18291
      29     H     0.40915  0.40915  0.00000  0.18169

   Total alpha = 44.00000, Total beta = 44.00000, Total charge =  0.00000
