  ==> Input File <==

--------------------------------------------------------------------------
set {
	reference rhf
	basis cc-pvtz
}

set_num_threads( 4 )
memory 2 gb

molecule MOL {
0 1

O	 0.074770	 1.259872	 0.000487
C	 0.029490	 0.077183	 0.000078
C	 -1.232113	 -0.748027	 0.000015
O	 1.106773	 -0.690081	 -0.000204
C	 -2.501422	 0.088592	 -0.000052
H	 -1.188777	 -1.400384	 -0.865133
H	 -1.188857	 -1.400312	 0.865225
H	 -2.548170	 0.725504	 -0.873205
H	 -3.371613	 -0.556398	 -0.000040
H	 -2.548215	 0.725571	 0.873047
C	 1.761925	 -0.889206	 1.236229
H	 2.104399	 0.051180	 1.641965
H	 2.601336	 -1.532608	 1.028265
H	 1.099002	 -1.359298	 1.947420

	symmetry c1
}
set optking {
	frozen_dihedral = ("
		11 4 2 3
	")
}

ee = optimize('scf')
oeprop('DIPOLE', 'QUADRUPOLE', 'MULLIKEN_CHARGES')
f=open( 'psi4out.xyz', 'w' )
f.write( "14  " )
f.write( str(ee) + "\n" )
f.write( MOL.save_string_xyz() )
f.close()
--------------------------------------------------------------------------

    Molecular point group: c1
  Charge       = 0
  Multiplicity = 1
  Basis Set: CC-PVTZ
  Basis Set:
  @DF-RHF Final Energy:  -305.96837899175000
    Total Energy =                       -305.9683789917500008
    Molecular point group: c1
  Basis Set: CC-PVTZ
  Basis Set:
  Basis Set: CC-PVTZ
  Basis Set:
  @DF-RHF Final Energy:  -305.96913525043499
    Total Energy =                       -305.9691352504347606
  Basis Set: CC-PVTZ
  Basis Set:
  Basis Set: CC-PVTZ
  Basis Set:
  @DF-RHF Final Energy:  -305.96852138017101
    Total Energy =                       -305.9685213801708414
  Basis Set: CC-PVTZ
  Basis Set:
  Basis Set: CC-PVTZ
  Basis Set:
  @DF-RHF Final Energy:  -305.96938995546657
    Total Energy =                       -305.9693899554666814
  Basis Set: CC-PVTZ
  Basis Set:
  Basis Set: CC-PVTZ
  Basis Set:
  @DF-RHF Final Energy:  -305.96940268095591
    Total Energy =                       -305.9694026809559091
  Basis Set: CC-PVTZ
  Basis Set:
  Charge       = 0
  Multiplicity = 1
  Basis Set: CC-PVTZ
  Basis Set:

    Orbital Energies (a.u.)
    -----------------------

    Doubly Occupied:

       1A    -20.578595     2A    -20.546694     3A    -11.368658
       4A    -11.288397     5A    -11.241657     6A    -11.217948
       7A     -1.463130     8A     -1.370285     9A     -1.064508
      10A     -0.976168    11A     -0.891726    12A     -0.767574
      13A     -0.702713    14A     -0.680843    15A     -0.674116
      16A     -0.621960    17A     -0.617530    18A     -0.556895
      19A     -0.545334    20A     -0.525769    21A     -0.511600
      22A     -0.496154    23A     -0.459004    24A     -0.440491

  @DF-RHF Final Energy:  -305.96940337758735

   => Energetics <=

    Nuclear Repulsion Energy =            247.1318819651101819
    One-Electron Energy =                -906.9870749087924651
    Two-Electron Energy =                 353.8857895660948429
    DFT Exchange-Correlation Energy =       0.0000000000000000
    Empirical Dispersion Energy =           0.0000000000000000
    PCM Polarization Energy =               0.0000000000000000
    EFP Energy =                            0.0000000000000000
    Total Energy =                       -305.9694033775874118
    Molecular point group: c1
  Basis Set: CC-PVTZ
  Basis Set:

  -Total Gradient:
     Atom            X                  Y                   Z
    ------   -----------------  -----------------  -----------------
       1       -0.000022193978     0.000023768629    -0.000004159028
       2       -0.001012297753    -0.001529194279    -0.004895963780
       3        0.000058210421     0.000004428979     0.003643213643
       4        0.003221672391     0.004765735534     0.000585459173
       5       -0.000009987908     0.000000640381    -0.000009235979
       6       -0.000000531732    -0.000006812301    -0.000001546301
       7        0.000006738289    -0.000010640170    -0.000003686980
       8       -0.000000025452    -0.000000178744     0.000003115997
       9       -0.000005439159     0.000002865667     0.000000818260
      10       -0.000000115900    -0.000001132353    -0.000001103189
      11       -0.002260211853    -0.003235110858     0.000685186755
      12        0.000005818751    -0.000008183803    -0.000010873316
      13        0.000006184867     0.000001377253     0.000000698285
      14        0.000012179014    -0.000007563929     0.000008076457

  **** Optimization is complete! (in 6 steps) ****
    Final optimized geometry and variables:
    Molecular point group: c1

    Geometry (in Angstrom), charge = 0, multiplicity = 1:

    O            0.181711182592     1.395746973138    -0.194072894480
    C            0.126606916826     0.220858058367    -0.217439834347
    C           -1.144872586510    -0.586556427979    -0.218962116071
    O            1.238544190848    -0.544066487318    -0.231803205151
    C           -2.410354303259     0.255099244671    -0.236242189372
    H           -1.099390068464    -1.255416535881    -1.071758455053
    H           -1.110275383109    -1.228724917271     0.656045975740
    H           -2.447045211167     0.880921756038    -1.117906981349
    H           -3.284729972757    -0.384159910009    -0.234205651166
    H           -2.458677463365     0.903776107901     0.628178118360
    C            1.888517580497    -0.733807552057     1.004954601742
    H            2.192617578017     0.214486666324     1.427712793852
    H            2.759441304750    -1.337766799826     0.809021637446
    H            1.245311127878    -1.255698084148     1.705111573743

  Mulliken Charges: (a.u.)
   Center  Symbol    Alpha    Beta     Spin     Total
       1     O     4.17068  4.17068  0.00000 -0.34136
       2     C     2.79030  2.79030  0.00000  0.41939
       3     C     3.10287  3.10287  0.00000 -0.20574
       4     O     4.16979  4.16979  0.00000 -0.33958
       5     C     3.13883  3.13883  0.00000 -0.27766
       6     H     0.43903  0.43903  0.00000  0.12193
       7     H     0.44595  0.44595  0.00000  0.10810
       8     H     0.44670  0.44670  0.00000  0.10660
       9     H     0.45046  0.45046  0.00000  0.09908
      10     H     0.44855  0.44855  0.00000  0.10290
      11     C     3.03377  3.03377  0.00000 -0.06755
      12     H     0.45201  0.45201  0.00000  0.09599
      13     H     0.44333  0.44333  0.00000  0.11333
      14     H     0.46772  0.46772  0.00000  0.06456

   Total alpha = 24.00000, Total beta = 24.00000, Total charge = -0.00000
