  ==> Input File <==

--------------------------------------------------------------------------
set {
	reference rhf
	basis cc-pvtz
}

set_num_threads( 4 )
memory 2 gb

molecule MOL {
0 1

H	 1.651322	 -0.822465	 0.000000
O	 0.729993	 -1.034364	 0.000000
C	 0.037305	 0.100061	 0.000000
C	 0.337526	 0.942007	 -1.203774
O	 -0.718456	 0.380156	 0.864388
H	 1.394386	 1.174259	 -1.227736
H	 -0.242976	 1.848742	 -1.164092
H	 0.102395	 0.385360	 -2.101731

	symmetry c1
}
set optking {
	frozen_dihedral = ("
		4 3 2 1
	")
}

ee = optimize('scf')
oeprop('DIPOLE', 'QUADRUPOLE', 'MULLIKEN_CHARGES')
f=open( 'psi4out.xyz', 'w' )
f.write( "8  " )
f.write( str(ee) + "\n" )
f.write( MOL.save_string_xyz() )
f.close()
--------------------------------------------------------------------------

    Molecular point group: c1
  Charge       = 0
  Multiplicity = 1
  Basis Set: CC-PVTZ
  Basis Set:
  @DF-RHF Final Energy:  -227.88498423088669
    Total Energy =                       -227.8849842308865163
    Molecular point group: c1
  Basis Set: CC-PVTZ
  Basis Set:
  Basis Set: CC-PVTZ
  Basis Set:
  @DF-RHF Final Energy:  -227.88501114567211
    Total Energy =                       -227.8850111456720811
  Basis Set: CC-PVTZ
  Basis Set:
  Basis Set: CC-PVTZ
  Basis Set:
  @DF-RHF Final Energy:  -227.88638353652806
    Total Energy =                       -227.8863835365282569
  Basis Set: CC-PVTZ
  Basis Set:
  Basis Set: CC-PVTZ
  Basis Set:
  @DF-RHF Final Energy:  -227.88700551472709
    Total Energy =                       -227.8870055147268658
  Basis Set: CC-PVTZ
  Basis Set:
  @DF-RHF Final Energy:  -227.88706905581353
    Total Energy =                       -227.8870690558135834
  Basis Set: CC-PVTZ
  Basis Set:
  @DF-RHF Final Energy:  -227.88708429056658
    Total Energy =                       -227.8870842905665199
  Basis Set: CC-PVTZ
  Basis Set:
  Basis Set: CC-PVTZ
  Basis Set:
  @DF-RHF Final Energy:  -227.88709271689385
    Total Energy =                       -227.8870927168939318
  Basis Set: CC-PVTZ
  Basis Set:
  Basis Set: CC-PVTZ
  Basis Set:
  @DF-RHF Final Energy:  -227.88709323981402
    Total Energy =                       -227.8870932398140781
  Basis Set: CC-PVTZ
  Basis Set:
  Charge       = 0
  Multiplicity = 1
  Basis Set: CC-PVTZ
  Basis Set:

    Orbital Energies (a.u.)
    -----------------------

    Doubly Occupied:

       1A    -20.595205     2A    -20.547959     3A    -11.378420
       4A    -11.245427     5A     -1.467946     6A     -1.375256
       7A     -1.024929     8A     -0.834945     9A     -0.716622
      10A     -0.670944    11A     -0.664711    12A     -0.598709
      13A     -0.577272    14A     -0.528663    15A     -0.495598
      16A     -0.452611

  @DF-RHF Final Energy:  -227.88709368369746

   => Energetics <=

    Nuclear Repulsion Energy =            122.2183470428046661
    One-Electron Energy =                -553.8604453340968803
    Two-Electron Energy =                 203.7550046075946284
    DFT Exchange-Correlation Energy =       0.0000000000000000
    Empirical Dispersion Energy =           0.0000000000000000
    PCM Polarization Energy =               0.0000000000000000
    EFP Energy =                            0.0000000000000000
    Total Energy =                       -227.8870936836975716
    Molecular point group: c1
  Basis Set: CC-PVTZ
  Basis Set:

  -Total Gradient:
     Atom            X                  Y                   Z
    ------   -----------------  -----------------  -----------------
       1       -0.000115407918     0.000192849697     0.006099873476
       2       -0.000973049689    -0.000928863147    -0.008431817102
       3        0.003427461673     0.002263029633     0.003929726383
       4       -0.002678258644    -0.001734884225    -0.001841890474
       5        0.000309888669     0.000172643122     0.000210419860
       6        0.000002490056     0.000004129746     0.000028596778
       7        0.000005441357     0.000009307931     0.000010088530
       8        0.000021434499     0.000021787240    -0.000004997451

  **** Optimization is complete! (in 9 steps) ****
    Final optimized geometry and variables:
    Molecular point group: c1

    Geometry (in Angstrom), charge = 0, multiplicity = 1:

    H            1.567593830710    -0.960097082940     0.147459800360
    O            0.637725832734    -1.112965215608     0.136667402038
    C           -0.067975765243     0.038636636070     0.091490572649
    C            0.209864110065     0.893057700854    -1.115696265680
    O           -0.895515399651     0.268809952521     0.890602970099
    H            1.268720639422     1.107078153685    -1.207205668185
    H           -0.345081468285     1.814573867947    -1.049975477668
    H           -0.089365715606     0.342276819551    -1.998763208274

  Mulliken Charges: (a.u.)
   Center  Symbol    Alpha    Beta     Spin     Total
       1     H     0.38900  0.38900  0.00000  0.22200
       2     O     4.16150  4.16150  0.00000 -0.32300
       3     C     2.80969  2.80969  0.00000  0.38063
       4     C     3.14101  3.14101  0.00000 -0.28201
       5     O     4.16359  4.16359  0.00000 -0.32718
       6     H     0.45705  0.45705  0.00000  0.08590
       7     H     0.43678  0.43678  0.00000  0.12644
       8     H     0.44139  0.44139  0.00000  0.11722

   Total alpha = 16.00000, Total beta = 16.00000, Total charge =  0.00000
