                              Psi4 1.0.54 Driver

  ==> Input File <==

--------------------------------------------------------------------------
set {
	reference rhf
	basis cc-pvtz
}

set_num_threads( 4 )
memory 2 gb

molecule MOL {
0 1

H	 2.421347	 -1.587156	 -0.933404
N	 1.441837	 -1.404824	 -0.948374
C	 1.187370	 0.015581	 -1.080803
C	 0.800851	 -1.953253	 0.229848
H	 1.660190	 0.377255	 -1.985781
H	 1.586846	 0.588009	 -0.241538
C	 -0.309564	 0.253778	 -1.161575
H	 0.993589	 -3.018241	 0.274597
H	 1.175906	 -1.505217	 1.151920
C	 -0.695578	 -1.712477	 0.147358
H	 -0.690274	 -0.187399	 -2.087325
H	 -0.504520	 1.318924	 -1.201246
N	 -0.976577	 -0.298712	 -0.000000
H	 -1.169645	 -2.069055	 1.054128
H	 -1.102880	 -2.289112	 -0.688218
C	 -2.391156	 -0.021003	 -0.000000
H	 -2.853954	 -0.458728	 -0.875714
H	 -2.853954	 -0.458728	 0.875714
H	 -2.614037	 1.049773	 -0.000000

	symmetry c1
}
set optking {
	frozen_dihedral = ("
		7 13 16 19
	")
}

ee,wfn = optimize('scf', return_wfn=True)
oeprop( wfn, 'DIPOLE', 'QUADRUPOLE', 'MULLIKEN_CHARGES')
f=open( 'psi4out.xyz', 'w' )
f.write( "19  " )
f.write( str(ee) + "\n" )
f.write( MOL.save_string_xyz() )
f.close()
--------------------------------------------------------------------------

    Molecular point group: c1
  Charge       = 0
  Multiplicity = 1
  Basis Set: CC-PVTZ
  Basis Set:
  @DF-RHF Final Energy:  -305.30834163401641
    Total Energy =                       -305.3083416340160738
    Molecular point group: c1
  Basis Set: CC-PVTZ
  Basis Set:
  Basis Set: CC-PVTZ
  Basis Set:
  @DF-RHF Final Energy:  -305.30899201344522
    Total Energy =                       -305.3089920134449358
  Basis Set: CC-PVTZ
  Basis Set:
  Basis Set: CC-PVTZ
  Basis Set:
  @DF-RHF Final Energy:  -305.30907078042554
    Total Energy =                       -305.3090707804257136
  Basis Set: CC-PVTZ
  Basis Set:
  Charge       = 0
  Multiplicity = 1
  Basis Set: CC-PVTZ
  Basis Set:

    Orbital Energies (a.u.)
    -----------------------

    Doubly Occupied:

       1A    -15.536712     2A    -15.531266     3A    -11.237317
       4A    -11.237297     5A    -11.235865     6A    -11.235843
       7A    -11.233218     8A     -1.249545     9A     -1.187922
      10A     -1.024020    11A     -0.965850    12A     -0.861805
      13A     -0.858262    14A     -0.757635    15A     -0.692868
      16A     -0.635317    17A     -0.627590    18A     -0.609678
      19A     -0.605333    20A     -0.581541    21A     -0.543622
      22A     -0.529239    23A     -0.512314    24A     -0.490604
      25A     -0.467812    26A     -0.458364    27A     -0.366106
      28A     -0.348479

  @DF-RHF Final Energy:  -305.30907123632744

   => Energetics <=

    Nuclear Repulsion Energy =            340.3497121018318694
    One-Electron Energy =               -1088.0747174714751964
    Two-Electron Energy =                 442.4159341333160000
    DFT Exchange-Correlation Energy =       0.0000000000000000
    Empirical Dispersion Energy =           0.0000000000000000
    PCM Polarization Energy =               0.0000000000000000
    EFP Energy =                            0.0000000000000000
    Total Energy =                       -305.3090712363273269
    Molecular point group: c1
  Basis Set: CC-PVTZ
  Basis Set:

  -Total Gradient:
     Atom            X                  Y                   Z
    ------   -----------------  -----------------  -----------------
       1        0.000008352682     0.000006797475    -0.000011953633
       2        0.000027087788    -0.000012408844    -0.000025421262
       3        0.000001028309     0.000000968753    -0.000025886145
       4       -0.000018605968     0.000085864686     0.000010641754
       5        0.000010036828    -0.000007141754    -0.000000597200
       6       -0.000008901827    -0.000004071728    -0.000001450485
       7       -0.000089560845    -0.000327130430    -0.000165270825
       8       -0.000035321133     0.000017114499    -0.000002768937
       9        0.000012263862    -0.000004480458     0.000017766951
      10       -0.000080281907    -0.000041898077     0.000024542182
      11        0.000010843388    -0.000005504125     0.000011831171
      12        0.000007706633     0.000015487813    -0.000024044093
      13        0.000127287337     0.000472812589     0.000411381608
      14       -0.000013545580    -0.000013897804     0.000010007471
      15        0.000000041189     0.000012342218    -0.000005328731
      16       -0.000017959623    -0.000193782919    -0.000798304816
      17        0.000014165304    -0.000003512521    -0.000004494729
      18        0.000018132228    -0.000003602149     0.000006723659
      19        0.000027231336     0.000006042777     0.000572626060

  **** Optimization is complete! (in 4 steps) ****
    Final optimized geometry and variables:
    Molecular point group: c1

    Geometry (in Angstrom), charge = 0, multiplicity = 1:

    H            2.559800413997    -0.862446064120    -0.546989773351
    N            1.580481195082    -0.678276058299    -0.555284660900
    C            1.327199311458     0.742022286307    -0.689533198748
    C            0.946373145110    -1.223179650317     0.628149699934
    H            1.793381341710     1.100918240707    -1.599148401653
    H            1.734014405456     1.316167762806     0.145107158645
    C           -0.170117066927     0.982065460711    -0.758873903179
    H            1.137126724501    -2.288541472287     0.673938481665
    H            1.328433122216    -0.774124458966     1.546965234357
    C           -0.550304948519    -0.979781067068     0.555861247627
    H           -0.558885838834     0.537610359729    -1.679687505940
    H           -0.364224229270     2.047426170254    -0.801521075722
    N           -0.829182261434     0.434698767310     0.409715292914
    H           -1.018591961062    -1.335026846139     1.466177730294
    H           -0.964178620165    -1.556321879098    -0.276627811172
    C           -2.243249225857     0.715074561131     0.416350265365
    H           -2.766226267803     0.286610913101    -0.443234060497
    H           -2.694194415058     0.314166659165     1.315616467916
    H           -2.408377211335     1.785496937226     0.412703775152

  Mulliken Charges: (a.u.)
   Center  Symbol    Alpha    Beta     Spin     Total
       1     H     0.43995  0.43995  0.00000  0.12009
       2     N     3.64289  3.64289  0.00000 -0.28579
       3     C     3.04065  3.04065  0.00000 -0.08130
       4     C     3.04081  3.04081  0.00000 -0.08161
       5     H     0.45242  0.45242  0.00000  0.09516
       6     H     0.46534  0.46534  0.00000  0.06933
       7     C     3.03467  3.03467  0.00000 -0.06935
       8     H     0.45244  0.45244  0.00000  0.09512
       9     H     0.46535  0.46535  0.00000  0.06930
      10     C     3.03430  3.03430  0.00000 -0.06859
      11     H     0.46819  0.46819  0.00000  0.06362
      12     H     0.45410  0.45410  0.00000  0.09179
      13     N     3.61439  3.61439  0.00000 -0.22878
      14     H     0.45401  0.45401  0.00000  0.09197
      15     H     0.46856  0.46856  0.00000  0.06288
      16     C     3.09694  3.09694  0.00000 -0.19387
      17     H     0.47016  0.47016  0.00000  0.05967
      18     H     0.45267  0.45267  0.00000  0.09467
      19     H     0.45215  0.45215  0.00000  0.09570

   Total alpha = 28.00000, Total beta = 28.00000, Total charge =  0.00000

*** Psi4 exiting successfully. Buy a developer a beer!
