  ==> Input File <==

--------------------------------------------------------------------------
set {
	reference rhf
	basis cc-pvtz
}

set_num_threads( 4 )
memory 2 gb

molecule MOL {
0 1

H	 2.867672	 -0.456275	 0.875795
C	 2.403497	 -0.020426	 0.000000
N	 0.989899	 -0.304564	 0.000000
H	 2.867672	 -0.456275	 -0.875795
H	 2.620366	 1.051270	 0.000000
C	 0.218958	 0.722753	 0.669205
C	 0.687781	 -1.609662	 0.550465
H	 0.508546	 0.818944	 1.720218
H	 0.403989	 1.676845	 0.189413
C	 -1.260410	 0.398211	 0.589283
H	 1.216804	 -2.366940	 -0.016449
H	 1.012632	 -1.688904	 1.592548
C	 -0.803632	 -1.874275	 0.473595
H	 -1.836446	 1.109793	 1.164140
H	 -1.587767	 0.446510	 -0.447348
O	 -1.528538	 -0.867574	 1.115630
H	 -1.049493	 -2.805333	 0.964828
H	 -1.107352	 -1.943571	 -0.569023

	symmetry c1
}
set optking {
	frozen_dihedral = ("
		6 3 2 5
	")
}

ee = optimize('scf')
oeprop('DIPOLE', 'QUADRUPOLE', 'MULLIKEN_CHARGES')
f=open( 'psi4out.xyz', 'w' )
f.write( "18  " )
f.write( str(ee) + "\n" )
f.write( MOL.save_string_xyz() )
f.close()
--------------------------------------------------------------------------

    Molecular point group: c1
  Charge       = 0
  Multiplicity = 1
  Basis Set: CC-PVTZ
  Basis Set:
  @DF-RHF Final Energy:  -325.14248045332295
    Total Energy =                       -325.1424804533230031
    Molecular point group: c1
  Basis Set: CC-PVTZ
  Basis Set:
  Basis Set: CC-PVTZ
  Basis Set:
  @DF-RHF Final Energy:  -325.14334805330697
    Total Energy =                       -325.1433480533070224
  Basis Set: CC-PVTZ
  Basis Set:
  Basis Set: CC-PVTZ
  Basis Set:
  @DF-RHF Final Energy:  -325.14345246341310
    Total Energy =                       -325.1434524634129843
  Basis Set: CC-PVTZ
  Basis Set:
  Basis Set: CC-PVTZ
  Basis Set:
  @DF-RHF Final Energy:  -325.14345813645144
    Total Energy =                       -325.1434581364519545
  Basis Set: CC-PVTZ
  Basis Set:
  Charge       = 0
  Multiplicity = 1
  Basis Set: CC-PVTZ
  Basis Set:

    Orbital Energies (a.u.)
    -----------------------

    Doubly Occupied:

       1A    -20.547426     2A    -15.541987     3A    -11.264101
       4A    -11.264040     5A    -11.242793     6A    -11.242474
       7A    -11.239201     8A     -1.386249     9A     -1.232095
      10A     -1.039393    11A     -0.981820    12A     -0.884463
      13A     -0.869834    14A     -0.773534    15A     -0.684927
      16A     -0.646601    17A     -0.645295    18A     -0.634828
      19A     -0.629167    20A     -0.573461    21A     -0.558107
      22A     -0.543424    23A     -0.527291    24A     -0.500753
      25A     -0.486627    26A     -0.453966    27A     -0.410693
      28A     -0.349994

  @DF-RHF Final Energy:  -325.14345883836006

   => Energetics <=

    Nuclear Repulsion Energy =            341.6838095169126746
    One-Electron Energy =               -1119.3454467983683571
    Two-Electron Energy =                 452.5181784430952803
    DFT Exchange-Correlation Energy =       0.0000000000000000
    Empirical Dispersion Energy =           0.0000000000000000
    PCM Polarization Energy =               0.0000000000000000
    EFP Energy =                            0.0000000000000000
    Total Energy =                       -325.1434588383604023
    Molecular point group: c1
  Basis Set: CC-PVTZ
  Basis Set:

  -Total Gradient:
     Atom            X                  Y                   Z
    ------   -----------------  -----------------  -----------------
       1        0.000017358517    -0.000004385703     0.000006970590
       2       -0.000274319048     0.000471759845    -0.006659160136
       3        0.000558333699    -0.002138801128     0.005220926235
       4       -0.000024815949    -0.000008602049     0.000034223504
       5        0.000121473629     0.000141194698     0.004326692535
       6       -0.000394358345     0.001552465603    -0.002892897235
       7        0.000007414438    -0.000007539252    -0.000022516067
       8        0.000011415786    -0.000010251469    -0.000014857410
       9       -0.000005675322    -0.000003947627    -0.000001557082
      10       -0.000018829893    -0.000004085282    -0.000019240494
      11        0.000004114398     0.000001495798     0.000002000324
      12       -0.000006414751     0.000011202844    -0.000014084564
      13        0.000001242003    -0.000014798593     0.000026847884
      14       -0.000008105351    -0.000005862562     0.000004133302
      15        0.000002412381     0.000010509099    -0.000003390337
      16        0.000017476434     0.000012610795    -0.000004290323
      17       -0.000016815532    -0.000010108126     0.000000961904
      18        0.000008092905     0.000007143108     0.000009237370

  **** Optimization is complete! (in 5 steps) ****
    Final optimized geometry and variables:
    Molecular point group: c1

    Geometry (in Angstrom), charge = 0, multiplicity = 1:

    H            2.832104498217     0.112093089072     0.379650937369
    C            2.309986295700     0.476937979446    -0.508371988394
    N            0.892136575044     0.207234467697    -0.459166678971
    H            2.761709065118     0.011461565390    -1.375962772331
    H            2.484961456943     1.543907752467    -0.547169666372
    C            0.114507138047     1.239187884677     0.190694405923
    C            0.582493104683    -1.105964862798     0.057863419318
    H            0.384877487176     1.350920103372     1.245856043204
    H            0.300621737302     2.187654419418    -0.298525393250
    C           -1.362910984657     0.908334937308     0.092175551511
    H            1.113718141142    -1.852779745231    -0.521885376733
    H            0.902052258849    -1.209704627988     1.099641670855
    C           -0.909208254901    -1.364561098789    -0.033238375350
    H           -1.949126805000     1.616882761365     0.660618715427
    H           -1.676365688089     0.957415483682    -0.948848410083
    O           -1.633929660625    -0.359646063517     0.611732809005
    H           -1.162926060973    -2.298708170173     0.448253549608
    H           -1.205573756798    -1.423562662969    -1.078642360391

  Mulliken Charges: (a.u.)
   Center  Symbol    Alpha    Beta     Spin     Total
       1     H     0.46823  0.46823  0.00000  0.06353
       2     C     3.09334  3.09334  0.00000 -0.18668
       3     N     3.61751  3.61751  0.00000 -0.23503
       4     H     0.44931  0.44931  0.00000  0.10138
       5     H     0.45422  0.45422  0.00000  0.09156
       6     C     3.03893  3.03893  0.00000 -0.07786
       7     C     3.04064  3.04064  0.00000 -0.08128
       8     H     0.47034  0.47034  0.00000  0.05933
       9     H     0.45414  0.45414  0.00000  0.09172
      10     C     2.98409  2.98409  0.00000  0.03182
      11     H     0.45448  0.45448  0.00000  0.09103
      12     H     0.46863  0.46863  0.00000  0.06274
      13     C     2.98359  2.98359  0.00000  0.03282
      14     H     0.44992  0.44992  0.00000  0.10015
      15     H     0.46813  0.46813  0.00000  0.06373
      16     O     4.18649  4.18649  0.00000 -0.37299
      17     H     0.45001  0.45001  0.00000  0.09998
      18     H     0.46798  0.46798  0.00000  0.06403

   Total alpha = 28.00000, Total beta = 28.00000, Total charge =  0.00000
