  ==> Input File <==

--------------------------------------------------------------------------
set {
	reference rhf
	basis 6-31G*
}

set_num_threads( 4 )
memory 2 gb

molecule MOL {
0 1

H	 2.087597	 -3.623424	 -0.916819
C	 2.264624	 -2.644346	 -0.483439
C	 1.010706	 -1.774330	 -0.559107
H	 2.578602	 -2.791650	 0.546098
H	 3.093558	 -2.191175	 -1.019865
C	 1.217350	 -0.386724	 0.039429
H	 0.188327	 -2.256022	 -0.039439
H	 0.704174	 -1.674451	 -1.599037
N	 0.000003	 0.397874	 -0.023260
H	 1.497975	 -0.485373	 1.084648
H	 2.057334	 0.106635	 -0.460973
C	 -1.217365	 -0.386708	 0.039277
H	 -0.000031	 1.072115	 0.718656
C	 -2.452633	 0.504241	 -0.042481
H	 -1.215291	 -1.074557	 -0.802042
H	 -1.269739	 -1.003477	 0.942735
C	 -3.758029	 -0.289423	 -0.010781
H	 -2.394220	 1.093569	 -0.952170
H	 -2.440793	 1.210787	 0.785871
H	 -3.816659	 -0.981993	 -0.845726
H	 -4.617837	 0.370165	 -0.069296
H	 -3.847478	 -0.867502	 0.904682

	symmetry c1
}
set optking {
	frozen_dihedral = ("
		10 6 9 12
	")
}

ee = optimize('scf')
oeprop('DIPOLE', 'QUADRUPOLE', 'MULLIKEN_CHARGES')
f=open( 'psi4out.xyz', 'w' )
f.write( "22  " )
f.write( str(ee) + "\n" )
f.write( MOL.save_string_xyz() )
f.close()
--------------------------------------------------------------------------

    Molecular point group: c1
  Charge       = 0
  Multiplicity = 1
  Basis Set: 6-31G*
  Basis Set:
  @DF-RHF Final Energy:  -290.36817922600864
    Total Energy =                       -290.3681792260086922
    Molecular point group: c1
  Basis Set: 6-31G*
  Basis Set:
  Basis Set: 6-31G*
  Basis Set:
  @DF-RHF Final Energy:  -290.36915113238166
    Total Energy =                       -290.3691511323813188
  Basis Set: 6-31G*
  Basis Set:
  Basis Set: 6-31G*
  Basis Set:
  @DF-RHF Final Energy:  -290.37428920950953
    Total Energy =                       -290.3742892095096977
  Basis Set: 6-31G*
  Basis Set:
  Basis Set: 6-31G*
  Basis Set:
  @DF-RHF Final Energy:  -290.37560948396509
    Total Energy =                       -290.3756094839654907
  Basis Set: 6-31G*
  Basis Set:
  Basis Set: 6-31G*
  Basis Set:
  @DF-RHF Final Energy:  -290.37574371778106
    Total Energy =                       -290.3757437177807788
  Basis Set: 6-31G*
  Basis Set:
  Basis Set: 6-31G*
  Basis Set:
  @DF-RHF Final Energy:  -290.37579937949977
    Total Energy =                       -290.3757993794999379
  Basis Set: 6-31G*
  Basis Set:
  Basis Set: 6-31G*
  Basis Set:
  @DF-RHF Final Energy:  -290.37580057126831
    Total Energy =                       -290.3758005712685417
  Basis Set: 6-31G*
  Basis Set:
  Charge       = 0
  Multiplicity = 1
  Basis Set: 6-31G*
  Basis Set:

    Orbital Energies (a.u.)
    -----------------------

    Doubly Occupied:

       1A    -15.529419     2A    -11.238440     3A    -11.236765
       4A    -11.215699     5A    -11.213064     6A    -11.210622
       7A    -11.209282     8A     -1.198554     9A     -1.057377
      10A     -1.027881    11A     -0.929368    12A     -0.875240
      13A     -0.813919    14A     -0.779542    15A     -0.661723
      16A     -0.633715    17A     -0.620461    18A     -0.612336
      19A     -0.569467    20A     -0.555850    21A     -0.548346
      22A     -0.528923    23A     -0.504036    24A     -0.486394
      25A     -0.478536    26A     -0.472801    27A     -0.462611
      28A     -0.461818    29A     -0.347207

  @DF-RHF Final Energy:  -290.37580096148577

   => Energetics <=

    Nuclear Repulsion Energy =            318.1195954125548724
    One-Electron Energy =               -1022.0319979414141471
    Two-Electron Energy =                 413.5366015673734523
    DFT Exchange-Correlation Energy =       0.0000000000000000
    Empirical Dispersion Energy =           0.0000000000000000
    PCM Polarization Energy =               0.0000000000000000
    EFP Energy =                            0.0000000000000000
    Total Energy =                       -290.3758009614858224
    Molecular point group: c1
  Basis Set: 6-31G*
  Basis Set:

  -Total Gradient:
     Atom            X                  Y                   Z
    ------   -----------------  -----------------  -----------------
       1        0.000001105501    -0.000001812563     0.000002721534
       2       -0.000004967769    -0.000014627828     0.000011882215
       3        0.000012962192     0.000019374719    -0.000039365215
       4        0.000003533028     0.000002449226     0.000000982962
       5       -0.000008312813    -0.000000738510    -0.000003220447
       6       -0.004224482760    -0.006980020705    -0.001431796348
       7        0.000009197634     0.000001206771     0.000003922802
       8       -0.000009171409    -0.000010730806    -0.000009145949
       9        0.000914329535     0.002506281464     0.006997806688
      10        0.003327669346     0.005196420281    -0.000678485942
      11       -0.000025611247    -0.000011273151    -0.000004641299
      12        0.000040653172    -0.000674408004    -0.004887956652
      13       -0.000032216044    -0.000028148941     0.000035710697
      14       -0.000000902336    -0.000003779793    -0.000000469309
      15        0.000001766356    -0.000000353972     0.000002494769
      16       -0.000004352346     0.000000009819    -0.000001395076
      17       -0.000000728177     0.000002251790     0.000001117652
      18        0.000001369667    -0.000000936089     0.000000168866
      19       -0.000000081706    -0.000000514298    -0.000000630746
      20        0.000000164532     0.000000559934     0.000000107178
      21       -0.000001696524    -0.000000782596     0.000000322962
      22       -0.000000227828    -0.000000426742    -0.000000131341

  **** Optimization is complete! (in 8 steps) ****
    Final optimized geometry and variables:
    Molecular point group: c1

    Geometry (in Angstrom), charge = 0, multiplicity = 1:

    H            2.872973164921    -2.881390408980    -0.839885201873
    C            2.917547438402    -1.895325221973    -0.388895562201
    C            1.546357780683    -1.219727918620    -0.413136585400
    H            3.280222529359    -2.013989440986     0.628249762492
    H            3.653047880077    -1.313855329126    -0.936967678362
    C            1.590430148150     0.164395149731     0.226351924334
    H            0.829440863073    -1.853188378109     0.100133609220
    H            1.205355656100    -1.124815266889    -1.440368138726
    N            0.359787183069     0.936969713126     0.111164056172
    H            1.927309468947     0.087000495721     1.264020059264
    H            2.368438450684     0.735944464196    -0.275434399214
    C           -0.911999193912     0.247307546956     0.197195453385
    H            0.382739122821     1.702591019838     0.753621439543
    C           -2.062059272269     1.244935628283     0.092588337707
    H           -0.985426325775    -0.455853183612    -0.623903513361
    H           -1.025812113434    -0.334447388937     1.118695500685
    C           -3.433778816126     0.573107093330     0.134450051336
    H           -1.948129202748     1.807241008401    -0.829100475452
    H           -1.989577936492     1.964652359256     0.906511628610
    H           -3.552507745843    -0.128548926009    -0.686378060341
    H           -4.230235669463     1.306398446047     0.058279653966
    H           -3.577760543734     0.024882525892     1.061219591268

  Mulliken Charges: (a.u.)
   Center  Symbol    Alpha    Beta     Spin     Total
       1     H     0.41759  0.41759  0.00000  0.16482
       2     C     3.24236  3.24236  0.00000 -0.48472
       3     C     3.16639  3.16639  0.00000 -0.33277
       4     H     0.42114  0.42114  0.00000  0.15772
       5     H     0.41988  0.41988  0.00000  0.16024
       6     C     3.03795  3.03795  0.00000 -0.07590
       7     H     0.41894  0.41894  0.00000  0.16212
       8     H     0.41532  0.41532  0.00000  0.16935
       9     N     3.86775  3.86775  0.00000 -0.73550
      10     H     0.43549  0.43549  0.00000  0.12903
      11     H     0.42136  0.42136  0.00000  0.15728
      12     C     3.04547  3.04547  0.00000 -0.09094
      13     H     0.33247  0.33247  0.00000  0.33506
      14     C     3.15679  3.15679  0.00000 -0.31358
      15     H     0.41944  0.41944  0.00000  0.16113
      16     H     0.43792  0.43792  0.00000  0.12416
      17     C     3.24292  3.24292  0.00000 -0.48584
      18     H     0.41326  0.41326  0.00000  0.17348
      19     H     0.42718  0.42718  0.00000  0.14564
      20     H     0.42083  0.42083  0.00000  0.15834
      21     H     0.41791  0.41791  0.00000  0.16418
      22     H     0.42165  0.42165  0.00000  0.15670

   Total alpha = 29.00000, Total beta = 29.00000, Total charge = -0.00000
