                              Psi4 1.0.54 Driver

  ==> Input File <==

--------------------------------------------------------------------------
set {
	reference rhf
	basis cc-pvtz
}

set_num_threads( 4 )
memory 2 gb

molecule MOL {
0 1

H	 -2.698799	 -0.000846	 0.036018
C	 -1.694291	 -0.000483	 0.434279
O	 -0.828718	 -0.000608	 -0.655022
H	 -1.576855	 0.881100	 1.056504
H	 -1.576401	 -0.881658	 1.057001
C	 0.557892	 0.000078	 -0.420099
C	 1.298522	 1.010725	 -1.288622
C	 0.901372	 0.145441	 1.058123
H	 0.862507	 -0.990582	 -0.733822
H	 1.003260	 0.904858	 -2.325285
H	 2.366820	 0.841067	 -1.220060
H	 1.109988	 2.032411	 -0.980081
H	 0.330757	 -0.560541	 1.648912
H	 1.955266	 -0.055561	 1.212004
H	 0.702198	 1.144122	 1.428944

	symmetry c1
}
set optking {
	frozen_dihedral = ("
		9 6 3 2
	")
}

ee,wfn = optimize('scf', return_wfn=True)
oeprop( wfn, 'DIPOLE', 'QUADRUPOLE', 'MULLIKEN_CHARGES')
f=open( 'psi4out.xyz', 'w' )
f.write( "15  " )
f.write( str(ee) + "\n" )
f.write( MOL.save_string_xyz() )
f.close()
--------------------------------------------------------------------------

    Molecular point group: c1
  Charge       = 0
  Multiplicity = 1
  Basis Set: CC-PVTZ
  Basis Set:
  @DF-RHF Final Energy:  -232.21782785401595
    Total Energy =                       -232.2178278540162069
    Molecular point group: c1
  Basis Set: CC-PVTZ
  Basis Set:
  Basis Set: CC-PVTZ
  Basis Set:
  @DF-RHF Final Energy:  -231.15439811377189
    Total Energy =                       -231.1543981137718617
  Basis Set: CC-PVTZ
  Basis Set:
  Basis Set: CC-PVTZ
  Basis Set:
  @DF-RHF Final Energy:  -231.34923271431202
    Total Energy =                       -231.3492327143120519
  Basis Set: CC-PVTZ
  Basis Set:
  Basis Set: CC-PVTZ
  Basis Set:
  @DF-RHF Final Energy:  -231.69585636420842
    Total Energy =                       -231.6958563642083959
  Basis Set: CC-PVTZ
  Basis Set:
  @DF-RHF Final Energy:  -231.98309847059267
    Total Energy =                       -231.9830984705927222
  @DF-RHF Final Energy:  -232.16751873828332
    Total Energy =                       -232.1675187382833769
  @DF-RHF Final Energy:  -232.21649165014136
    Total Energy =                       -232.2164916501411653
  @DF-RHF Final Energy:  -232.22200723720300
    Total Energy =                       -232.2220072372030018
  @DF-RHF Final Energy:  -232.22242222224023
    Total Energy =                       -232.2224222222401977
  Basis Set: CC-PVTZ
  Basis Set:
  @DF-RHF Final Energy:  -232.22245992771406
    Total Energy =                       -232.2224599277141124
  Basis Set: CC-PVTZ
  Basis Set:
  Basis Set: CC-PVTZ
  Basis Set:
  @DF-RHF Final Energy:  -232.22246970191895
    Total Energy =                       -232.2224697019190671
  Basis Set: CC-PVTZ
  Basis Set:
  Basis Set: CC-PVTZ
  Basis Set:
  @DF-RHF Final Energy:  -232.22247152783063
    Total Energy =                       -232.2224715278306348
  Basis Set: CC-PVTZ
  Basis Set:
  Charge       = 0
  Multiplicity = 1
  Basis Set: CC-PVTZ
  Basis Set:

    Orbital Energies (a.u.)
    -----------------------

    Doubly Occupied:

       1A    -20.539379     2A    -11.273320     3A    -11.259873
       4A    -11.213572     5A    -11.203174     6A     -1.370243
       7A     -1.054293     8A     -0.950104     9A     -0.915462
      10A     -0.783334    11A     -0.677398    12A     -0.643498
      13A     -0.631723    14A     -0.588866    15A     -0.553093
      16A     -0.541781    17A     -0.530364    18A     -0.506765
      19A     -0.493930    20A     -0.449850    21A     -0.401453

  @DF-RHF Final Energy:  -232.22247176126493

   => Energetics <=

    Nuclear Repulsion Energy =            198.0675430395664023
    One-Electron Energy =                -707.4170847117916310
    Two-Electron Energy =                 277.1270699109601878
    DFT Exchange-Correlation Energy =       0.0000000000000000
    Empirical Dispersion Energy =           0.0000000000000000
    PCM Polarization Energy =               0.0000000000000000
    EFP Energy =                            0.0000000000000000
    Total Energy =                       -232.2224717612650124
    Molecular point group: c1
  Basis Set: CC-PVTZ
  Basis Set:

  -Total Gradient:
     Atom            X                  Y                   Z
    ------   -----------------  -----------------  -----------------
       1       -0.000003125968    -0.000001014339    -0.000004319609
       2        0.002019898940     0.001513497535     0.000833164362
       3       -0.002731264226    -0.002048261660    -0.001762530517
       4       -0.000002296544    -0.000001644038    -0.000002918614
       5       -0.000002448909     0.000008167363    -0.000006513281
       6       -0.001016642337    -0.000243990663     0.003275682759
       7        0.000027816437    -0.000020651502    -0.000015891703
       8        0.000020679143    -0.000010311884     0.000056382516
       9        0.001698114454     0.000832411275    -0.002354857070
      10       -0.000004634044     0.000001979027    -0.000012335066
      11        0.000015215813    -0.000006180832     0.000006442208
      12       -0.000001764550     0.000002901168    -0.000000016739
      13       -0.000004919251    -0.000015707850     0.000009695047
      14       -0.000001718317     0.000003004723    -0.000003906009
      15       -0.000012910643    -0.000014198322    -0.000018078284

  **** Optimization is complete! (in 13 steps) ****
    Final optimized geometry and variables:
    Molecular point group: c1

    Geometry (in Angstrom), charge = 0, multiplicity = 1:

    H           -1.876512332446     1.999962350423     0.180300049657
    C           -1.393725023211     1.108523919661     0.554990544071
    O           -0.607334861893     0.618883615097    -0.480796336269
    H           -0.812580249877     1.380339196323     1.429555569225
    H           -2.167507147827     0.407653661712     0.856997713451
    C            0.189048303068    -0.535629311058    -0.318981262331
    C            1.546879266735    -0.222081840868    -0.929396777352
    C            0.328162879834    -1.047593263266     1.108577527744
    H           -0.266534195894    -1.317643622144    -0.922275035174
    H            1.422711345237     0.145826526526    -1.939558548118
    H            2.171640047106    -1.108044971058    -0.959551122536
    H            2.056905686048     0.541083101164    -0.351898412953
    H           -0.626791148939    -1.297362125794     1.551817841268
    H            0.928015029431    -1.949394027366     1.094878781347
    H            0.827571669512    -0.328106183736     1.746723341964

  Mulliken Charges: (a.u.)
   Center  Symbol    Alpha    Beta     Spin     Total
       1     H     0.44238  0.44238  0.00000  0.11523
       2     C     3.03759  3.03759  0.00000 -0.07518
       3     O     4.18798  4.18798  0.00000 -0.37595
       4     H     0.47017  0.47017  0.00000  0.05965
       5     H     0.47018  0.47018  0.00000  0.05963
       6     C     2.92083  2.92083  0.00000  0.15833
       7     C     3.13879  3.13879  0.00000 -0.27758
       8     C     3.17161  3.17161  0.00000 -0.34323
       9     H     0.45812  0.45812  0.00000  0.08376
      10     H     0.44598  0.44598  0.00000  0.10805
      11     H     0.45995  0.45995  0.00000  0.08009
      12     H     0.45767  0.45767  0.00000  0.08466
      13     H     0.44476  0.44476  0.00000  0.11048
      14     H     0.44341  0.44341  0.00000  0.11318
      15     H     0.45057  0.45057  0.00000  0.09885

   Total alpha = 21.00000, Total beta = 21.00000, Total charge =  0.00000

*** Psi4 exiting successfully. Buy a developer a beer!
