                              Psi4 1.0.54 Driver

  ==> Input File <==

--------------------------------------------------------------------------
set {
	reference rhf
	basis cc-pvtz
}

set_num_threads( 4 )
memory 2 gb

molecule MOL {
0 1

H	 2.376916	 2.327515	 0.828789
N	 1.566062	 1.751516	 0.749051
C	 1.860978	 0.530248	 0.016256
H	 0.867914	 2.289230	 0.279156
C	 0.644130	 -0.381765	 -0.031064
H	 2.669188	 0.021828	 0.531245
H	 2.207703	 0.718918	 -1.000671
C	 -0.678115	 0.376691	 0.025731
H	 0.693998	 -0.977147	 -0.936845
H	 0.693309	 -1.082142	 0.800523
C	 -1.900706	 -0.535531	 -0.022488
H	 -0.725296	 1.079516	 -0.802982
H	 -0.715474	 0.974884	 0.933278
C	 -3.220513	 0.226854	 0.028039
H	 -1.865036	 -1.134397	 -0.928236
H	 -1.857948	 -1.236381	 0.806820
H	 -3.309098	 0.911849	 -0.808725
H	 -4.066838	 -0.449485	 -0.008086
H	 -3.301685	 0.809374	 0.939860

	symmetry c1
}
set optking {
	frozen_dihedral = ("
		6 3 5 9
	")
}

ee,wfn = optimize('scf', return_wfn=True)
oeprop( wfn, 'DIPOLE', 'QUADRUPOLE', 'MULLIKEN_CHARGES')
f=open( 'psi4out.xyz', 'w' )
f.write( "19  " )
f.write( str(ee) + "\n" )
f.write( MOL.save_string_xyz() )
f.close()
--------------------------------------------------------------------------

    Molecular point group: c1
  Charge       = 0
  Multiplicity = 1
  Basis Set: CC-PVTZ
  Basis Set:
  @DF-RHF Final Energy:  -251.44014074581492
    Total Energy =                       -251.4401407458148583
    Molecular point group: c1
  Basis Set: CC-PVTZ
  Basis Set:
  Basis Set: CC-PVTZ
  Basis Set:
  @DF-RHF Final Energy:  -251.41319355423593
    Total Energy =                       -251.4131935542357041
  Basis Set: CC-PVTZ
  Basis Set:
  Basis Set: CC-PVTZ
  Basis Set:
  @DF-RHF Final Energy:  -251.44126650028065
    Total Energy =                       -251.4412665002805625
  Basis Set: CC-PVTZ
  Basis Set:
  Basis Set: CC-PVTZ
  Basis Set:
  @DF-RHF Final Energy:  -251.44239939377516
    Total Energy =                       -251.4423993937751902
  Basis Set: CC-PVTZ
  Basis Set:
  Basis Set: CC-PVTZ
  Basis Set:
  @DF-RHF Final Energy:  -251.44245626039367
    Total Energy =                       -251.4424562603935556
  Basis Set: CC-PVTZ
  Basis Set:
  Basis Set: CC-PVTZ
  Basis Set:
  @DF-RHF Final Energy:  -251.44247151681688
    Total Energy =                       -251.4424715168169087
  Basis Set: CC-PVTZ
  Basis Set:
  Basis Set: CC-PVTZ
  Basis Set:
  @DF-RHF Final Energy:  -251.44247606552648
    Total Energy =                       -251.4424760655265345
  Basis Set: CC-PVTZ
  Basis Set:
  Charge       = 0
  Multiplicity = 1
  Basis Set: CC-PVTZ
  Basis Set:

    Orbital Energies (a.u.)
    -----------------------

    Doubly Occupied:

       1A    -15.525892     2A    -11.239148     3A    -11.210040
       4A    -11.208269     5A    -11.206654     6A    -11.203970
       7A     -1.177321     8A     -1.070106     9A     -0.995612
      10A     -0.906787    11A     -0.814475    12A     -0.777083
      13A     -0.666197    14A     -0.651742    15A     -0.613478
      16A     -0.584649    17A     -0.561997    18A     -0.551051
      19A     -0.525696    20A     -0.499481    21A     -0.486617
      22A     -0.463033    23A     -0.459263    24A     -0.444895
      25A     -0.381638

  @DF-RHF Final Energy:  -251.44247633578655

   => Energetics <=

    Nuclear Repulsion Energy =            250.2397533484597432
    One-Electron Energy =                -834.9142719721747881
    Two-Electron Energy =                 333.2320422879284934
    DFT Exchange-Correlation Energy =       0.0000000000000000
    Empirical Dispersion Energy =           0.0000000000000000
    PCM Polarization Energy =               0.0000000000000000
    EFP Energy =                            0.0000000000000000
    Total Energy =                       -251.4424763357865231
    Molecular point group: c1
  Basis Set: CC-PVTZ
  Basis Set:

  -Total Gradient:
     Atom            X                  Y                   Z
    ------   -----------------  -----------------  -----------------
       1       -0.000001978094    -0.000002149734    -0.000003661423
       2        0.000003999078    -0.000010080506    -0.000010634187
       3        0.001855107197    -0.001323851117    -0.008054065453
       4       -0.000000760244     0.000000180185     0.000001039277
       5        0.002015803298    -0.006617005135     0.004552486751
       6       -0.001864863567     0.002121281237     0.006128162629
       7        0.000001323102     0.000003839818     0.000004178532
       8        0.000004234189    -0.000009619950     0.000012136710
       9       -0.001993077665     0.005834221103    -0.002632967750
      10       -0.000007971711     0.000007221213    -0.000000287042
      11       -0.000013293666     0.000001151366     0.000013822325
      12        0.000005208324    -0.000007330092     0.000002134038
      13       -0.000008238260     0.000006288389    -0.000001517190
      14        0.000005528048    -0.000004782738    -0.000011547811
      15       -0.000004358329     0.000006395374     0.000004127053
      16        0.000000327740    -0.000004581200    -0.000001465330
      17       -0.000002495031     0.000002912891     0.000001399292
      18        0.000002349479     0.000001432236     0.000000073375
      19        0.000003156113    -0.000005523339    -0.000003413799

  **** Optimization is complete! (in 8 steps) ****
    Final optimized geometry and variables:
    Molecular point group: c1

    Geometry (in Angstrom), charge = 0, multiplicity = 1:

    H            3.064674294943     1.049032022600     1.272302848555
    N            2.129235467457     0.809155298641     1.021990636688
    C            2.125056456483    -0.295689877532     0.069225750054
    H            1.710779681489     1.628772732985     0.637016084594
    C            0.721260055321    -0.878428685364    -0.156435213137
    H            2.743578627631    -1.060642620035     0.522745965601
    H            2.567475497472    -0.023557532976    -0.887427964449
    C           -0.415898764023     0.144420340701    -0.125332381056
    H            0.702870932899    -1.330155710601    -1.144211181237
    H            0.519839656983    -1.653104850026     0.574688603828
    C           -1.772455202751    -0.475274906489    -0.450273035069
    H           -0.212079647036     0.938410358742    -0.842712059751
    H           -0.462153848574     0.611412710715     0.851287076396
    C           -2.915728190153     0.533337817117    -0.412141497258
    H           -1.733773989777    -0.937912523849    -1.432809250488
    H           -1.976600519712    -1.276438730077     0.254884170827
    H           -2.758573873314     1.330822326602    -1.131100555218
    H           -3.864036944790     0.062155890482    -0.644357103791
    H           -3.003514512419     0.987613982500     0.569118905047

  Mulliken Charges: (a.u.)
   Center  Symbol    Alpha    Beta     Spin     Total
       1     H     0.42948  0.42948  0.00000  0.14104
       2     N     3.69210  3.69210  0.00000 -0.38419
       3     C     3.03679  3.03679  0.00000 -0.07358
       4     H     0.42709  0.42709  0.00000  0.14581
       5     C     3.07870  3.07870  0.00000 -0.15741
       6     H     0.45498  0.45498  0.00000  0.09004
       7     H     0.46301  0.46301  0.00000  0.07398
       8     C     3.09650  3.09650  0.00000 -0.19301
       9     H     0.45711  0.45711  0.00000  0.08578
      10     H     0.45399  0.45399  0.00000  0.09201
      11     C     3.08530  3.08530  0.00000 -0.17060
      12     H     0.45904  0.45904  0.00000  0.08193
      13     H     0.44591  0.44591  0.00000  0.10818
      14     C     3.15007  3.15007  0.00000 -0.30013
      15     H     0.45582  0.45582  0.00000  0.08837
      16     H     0.45424  0.45424  0.00000  0.09152
      17     H     0.45634  0.45634  0.00000  0.08732
      18     H     0.44887  0.44887  0.00000  0.10225
      19     H     0.45466  0.45466  0.00000  0.09067

   Total alpha = 25.00000, Total beta = 25.00000, Total charge = -0.00000

*** Psi4 exiting successfully. Buy a developer a beer!
