  ==> Input File <==

--------------------------------------------------------------------------
set {
	reference rhf
	basis 6-31G*
}

set_num_threads( 4 )
memory 2 gb

molecule MOL {
0 1

H	 -1.836216	 1.387520	 -0.000064
C	 -1.301823	 0.443321	 -0.000031
O	 -0.003969	 0.658512	 0.000451
O	 -1.829879	 -0.616434	 -0.000857
C	 0.714421	 0.338874	 -1.190739
C	 2.170404	 0.671191	 -0.945794
H	 0.303651	 0.912666	 -2.010098
H	 0.573290	 -0.710001	 -1.412637
H	 2.291704	 1.723846	 -0.717239
H	 2.754130	 0.442313	 -1.831294
H	 2.562803	 0.093398	 -0.116899

	symmetry c1
}
set optking {
	frozen_dihedral = ("
		5 3 2 4
	")
}

ee = optimize('scf')
oeprop('DIPOLE', 'QUADRUPOLE', 'MULLIKEN_CHARGES')
f=open( 'psi4out.xyz', 'w' )
f.write( "11  " )
f.write( str(ee) + "\n" )
f.write( MOL.save_string_xyz() )
f.close()
--------------------------------------------------------------------------

    Molecular point group: c1
  Charge       = 0
  Multiplicity = 1
  Basis Set: 6-31G*
  Basis Set:
  @DF-RHF Final Energy:  -266.81072140961612
    Total Energy =                       -266.8107214096161215
    Molecular point group: c1
  Basis Set: 6-31G*
  Basis Set:
  Basis Set: 6-31G*
  Basis Set:
  @DF-RHF Final Energy:  -266.80664559812192
    Total Energy =                       -266.8066455981219178
  Basis Set: 6-31G*
  Basis Set:
  Basis Set: 6-31G*
  Basis Set:
  @DF-RHF Final Energy:  -266.81160382476776
    Total Energy =                       -266.8116038247677579
  Basis Set: 6-31G*
  Basis Set:
  Basis Set: 6-31G*
  Basis Set:
  @DF-RHF Final Energy:  -266.81188017707734
    Total Energy =                       -266.8118801770774553
  Basis Set: 6-31G*
  Basis Set:
  Basis Set: 6-31G*
  Basis Set:
  @DF-RHF Final Energy:  -266.81188339221524
    Total Energy =                       -266.8118833922152930
  Basis Set: 6-31G*
  Basis Set:
  Charge       = 0
  Multiplicity = 1
  Basis Set: 6-31G*
  Basis Set:

    Orbital Energies (a.u.)
    -----------------------

    Doubly Occupied:

       1A    -20.594299     2A    -20.568954     3A    -11.380707
       4A    -11.299239     5A    -11.227672     6A     -1.466594
       7A     -1.376767     8A     -1.049566     9A     -0.891929
      10A     -0.819729    11A     -0.740064    12A     -0.687552
      13A     -0.653336    14A     -0.631099    15A     -0.563246
      16A     -0.541673    17A     -0.532994    18A     -0.505373
      19A     -0.463693    20A     -0.450926

  @DF-RHF Final Energy:  -266.81189519176291

   => Energetics <=

    Nuclear Repulsion Energy =            177.4730116170665326
    One-Electron Energy =                -715.6789899576943981
    Two-Electron Energy =                 271.3940831488652066
    DFT Exchange-Correlation Energy =       0.0000000000000000
    Empirical Dispersion Energy =           0.0000000000000000
    PCM Polarization Energy =               0.0000000000000000
    EFP Energy =                            0.0000000000000000
    Total Energy =                       -266.8118951917626873
    Molecular point group: c1
  Basis Set: 6-31G*
  Basis Set:

  -Total Gradient:
     Atom            X                  Y                   Z
    ------   -----------------  -----------------  -----------------
       1        0.000005683708    -0.000033474295    -0.000015581518
       2       -0.000290407489     0.001828997159    -0.011224542796
       3        0.001277674124    -0.006758542748     0.006648132750
       4       -0.000060519074     0.000313410591     0.006807206327
       5       -0.000964557310     0.004660327921    -0.002179060518
       6       -0.000001265866    -0.000008618018    -0.000038157880
       7        0.000020653886    -0.000009555548     0.000006184974
       8        0.000016346715     0.000015814787     0.000007261494
       9       -0.000010858770    -0.000006570192    -0.000003847171
      10        0.000023380554     0.000002112015    -0.000001728373
      11       -0.000016130476    -0.000003901672    -0.000005867290

  **** Optimization is complete! (in 6 steps) ****
    Final optimized geometry and variables:
    Molecular point group: c1

    Geometry (in Angstrom), charge = 0, multiplicity = 1:

    H           -1.891057609613     1.033921545310     0.444843783548
    C           -1.278715164199     0.136249325551     0.419002337135
    O            0.027612852488     0.418674935218     0.391927480968
    O           -1.731890763819    -0.949465633994     0.492595192441
    C            0.756795894647     0.059542973704    -0.779902970000
    C            2.219127401687     0.348245811933    -0.520929745536
    H            0.387136696163     0.644492656570    -1.615803948166
    H            0.592605595989    -0.988852175121    -0.992031449709
    H            2.366462976682     1.397779147165    -0.294796444291
    H            2.807660734176     0.097023746994    -1.397331206700
    H            2.576952353539    -0.238099933350     0.316905799740

  Mulliken Charges: (a.u.)
   Center  Symbol    Alpha    Beta     Spin     Total
       1     H     0.42095  0.42095  0.00000  0.15810
       2     C     2.72926  2.72926  0.00000  0.54148
       3     O     4.30383  4.30383  0.00000 -0.60766
       4     O     4.23468  4.23468  0.00000 -0.46936
       5     C     3.00467  3.00467  0.00000 -0.00934
       6     C     3.24778  3.24778  0.00000 -0.49557
       7     H     0.41961  0.41961  0.00000  0.16079
       8     H     0.40653  0.40653  0.00000  0.18695
       9     H     0.40991  0.40991  0.00000  0.18018
      10     H     0.41610  0.41610  0.00000  0.16781
      11     H     0.40669  0.40669  0.00000  0.18662

   Total alpha = 20.00000, Total beta = 20.00000, Total charge = -0.00000
