                              Psi4 1.0.54 Driver

  ==> Input File <==

--------------------------------------------------------------------------
set {
	reference rhf
	basis cc-pvtz
}

set_num_threads( 4 )
memory 2 gb

molecule MOL {
0 1

H	 -3.295322	 0.661217	 -0.915501
C	 -2.779632	 1.084978	 -1.788069
C	 -1.791280	 2.174681	 -1.472474
O	 -3.027463	 0.686102	 -2.872867
C	 -0.784698	 1.767397	 -0.392388
H	 -1.296270	 2.466874	 -2.389493
H	 -2.369815	 3.025424	 -1.119148
C	 0.178063	 0.667828	 -0.835357
H	 -0.219148	 2.646113	 -0.101957
H	 -1.321432	 1.446544	 0.497086
C	 1.181757	 0.280428	 0.247371
H	 0.712269	 0.999966	 -1.721595
H	 -0.382780	 -0.213406	 -1.135871
C	 2.151032	 -0.811012	 -0.202643
H	 1.732598	 1.165770	 0.549181
H	 0.644148	 -0.060734	 1.129348
C	 3.580021	 -0.656538	 0.320835
H	 2.170545	 -0.847575	 -1.289412
H	 1.766632	 -1.772905	 0.124928
C	 4.327657	 0.562694	 -0.213579
H	 4.138806	 -1.549270	 0.057813
H	 3.561991	 -0.620783	 1.406976
H	 4.355973	 0.557257	 -1.298551
H	 3.867136	 1.491650	 0.100501
H	 5.351524	 0.571613	 0.142204

	symmetry c1
}
set optking {
	frozen_dihedral = ("
		8 11 14 18
	")
}

ee,wfn = optimize('scf', return_wfn=True)
oeprop( wfn, 'DIPOLE', 'QUADRUPOLE', 'MULLIKEN_CHARGES')
f=open( 'psi4out.xyz', 'w' )
f.write( "25  " )
f.write( str(ee) + "\n" )
f.write( MOL.save_string_xyz() )
f.close()
--------------------------------------------------------------------------

    Molecular point group: c1
  Charge       = 0
  Multiplicity = 1
  Basis Set: CC-PVTZ
  Basis Set:
  @DF-RHF Final Energy:  -387.25636712907107
    Total Energy =                       -387.2563671290705543
    Molecular point group: c1
  Basis Set: CC-PVTZ
  Basis Set:
  Basis Set: CC-PVTZ
  Basis Set:
  @DF-RHF Final Energy:  -387.25610519909651
    Total Energy =                       -387.2561051990969645
  Basis Set: CC-PVTZ
  Basis Set:
  Basis Set: CC-PVTZ
  Basis Set:
  @DF-RHF Final Energy:  -387.25674882235285
    Total Energy =                       -387.2567488223525061
  Basis Set: CC-PVTZ
  Basis Set:
  Basis Set: CC-PVTZ
  Basis Set:
  @DF-RHF Final Energy:  -387.25678076312971
    Total Energy =                       -387.2567807631291998
  Basis Set: CC-PVTZ
  Basis Set:
  @DF-RHF Final Energy:  -387.25677616557886
    Total Energy =                       -387.2567761655789127
  Basis Set: CC-PVTZ
  Basis Set:
  @DF-RHF Final Energy:  -387.25679883230237
    Total Energy =                       -387.2567988323025929
  Basis Set: CC-PVTZ
  Basis Set:
  Basis Set: CC-PVTZ
  Basis Set:
  @DF-RHF Final Energy:  -387.25684423902106
    Total Energy =                       -387.2568442390211203
  Basis Set: CC-PVTZ
  Basis Set:
  Basis Set: CC-PVTZ
  Basis Set:
  @DF-RHF Final Energy:  -387.25684594903265
    Total Energy =                       -387.2568459490323676
  Basis Set: CC-PVTZ
  Basis Set:
  Charge       = 0
  Multiplicity = 1
  Basis Set: CC-PVTZ
  Basis Set:

    Orbital Energies (a.u.)
    -----------------------

    Doubly Occupied:

       1A    -20.551333     2A    -11.320946     3A    -11.233785
       4A    -11.232708     5A    -11.222008     6A    -11.217678
       7A    -11.216685     8A    -11.214725     9A    -11.209045
      10A     -1.406359    11A     -1.104706    12A     -1.070410
      13A     -1.014311    14A     -0.943597    15A     -0.875688
      16A     -0.820282    17A     -0.788955    18A     -0.784132
      19A     -0.667738    20A     -0.663002    21A     -0.632664
      22A     -0.626935    23A     -0.607742    24A     -0.593325
      25A     -0.575250    26A     -0.552645    27A     -0.535391
      28A     -0.525929    29A     -0.511845    30A     -0.497869
      31A     -0.489665    32A     -0.482839    33A     -0.464424
      34A     -0.456376    35A     -0.442342    36A     -0.411856

  @DF-RHF Final Energy:  -387.25684627987863

   => Energetics <=

    Nuclear Repulsion Energy =            441.2553127663676946
    One-Electron Energy =               -1399.0939407039240905
    Two-Electron Energy =                 570.5817816576784480
    DFT Exchange-Correlation Energy =       0.0000000000000000
    Empirical Dispersion Energy =           0.0000000000000000
    PCM Polarization Energy =               0.0000000000000000
    EFP Energy =                            0.0000000000000000
    Total Energy =                       -387.2568462798778910
    Molecular point group: c1
  Basis Set: CC-PVTZ
  Basis Set:

  -Total Gradient:
     Atom            X                  Y                   Z
    ------   -----------------  -----------------  -----------------
       1        0.000013245434    -0.000000095672    -0.000006325591
       2       -0.000026983253     0.000015841676    -0.000001026224
       3        0.000006056915    -0.000002412990    -0.000005999311
       4        0.000011392708    -0.000002706054     0.000012035130
       5       -0.000003981170    -0.000010322162     0.000013600822
       6       -0.000003338148    -0.000004363464     0.000005261133
       7        0.000010602077    -0.000009441193    -0.000001277806
       8        0.001666205444     0.001814531561    -0.000852375634
       9       -0.000005822161    -0.000015150837    -0.000004311288
      10        0.000006761289     0.000004823300    -0.000011107969
      11       -0.002950931094    -0.003095441825     0.001152911968
      12       -0.000012233020    -0.000007646868     0.000011054249
      13        0.000008379417     0.000021088395     0.000004930482
      14        0.003951743229     0.003635881696    -0.000282064844
      15        0.000004302230    -0.000003883184    -0.000000683580
      16        0.000011397346    -0.000004029523    -0.000008917533
      17       -0.000003324743     0.000013237493     0.000010457862
      18       -0.002668086431    -0.002354094318    -0.000024290160
      19       -0.000004146350     0.000003009388    -0.000000367520
      20       -0.000002775998     0.000005165424    -0.000011677798
      21       -0.000014621743     0.000002713152    -0.000005527249
      22       -0.000000459158    -0.000007435072     0.000006321603
      23        0.000007398582     0.000002689435    -0.000003538046
      24        0.000001279290    -0.000003996336     0.000000363899
      25       -0.000002060689     0.000002037977     0.000002553398

  **** Optimization is complete! (in 9 steps) ****
    Final optimized geometry and variables:
    Molecular point group: c1

    Geometry (in Angstrom), charge = 0, multiplicity = 1:

    H           -3.637224241711    -0.016216572115    -0.226509259450
    C           -3.100929488814     0.464721044230    -1.055928360667
    C           -2.149393990456     1.556274808019    -0.647191586883
    O           -3.301188425884     0.120034361263    -2.168748650149
    C           -1.174739283058     1.113784434597     0.448108193044
    H           -1.627493495642     1.906035604513    -1.528452753375
    H           -2.759501634085     2.375486269411    -0.273124740755
    C           -0.173702463210     0.057233009910    -0.013008858632
    H           -0.638527350659     1.987191199459     0.803412571012
    H           -1.736575954826     0.737949082017     1.299637018622
    C            0.814187006806    -0.348365343673     1.077730416490
    H            0.377780663513     0.436949788229    -0.868546264118
    H           -0.704860119602    -0.823703340455    -0.365940687577
    C            1.795124696562    -1.448157021724     0.638012577817
    H            1.363572246473     0.537337121734     1.381782240062
    H            0.272884136017    -0.678029243650     1.959389614019
    C            3.205281992161    -1.320118133328     1.215225756546
    H            1.841920147522    -1.487126113210    -0.446908972176
    H            1.387308554036    -2.410279805190     0.933310922618
    C            4.029535557228    -0.187215747767     0.608773445178
    H            3.733214573017    -2.255177645801     1.056864417187
    H            3.140883891651    -1.187989294429     2.292251826629
    H            4.155965291337    -0.330984511100    -0.459194637611
    H            3.564428327595     0.780367445736     0.757562632521
    H            5.016487409244    -0.145147563193     1.055081267803

  Mulliken Charges: (a.u.)
   Center  Symbol    Alpha    Beta     Spin     Total
       1     H     0.46425  0.46425  0.00000  0.07150
       2     C     2.90471  2.90471  0.00000  0.19058
       3     C     3.08920  3.08920  0.00000 -0.17840
       4     O     4.16614  4.16614  0.00000 -0.33228
       5     C     3.11708  3.11708  0.00000 -0.23417
       6     H     0.44287  0.44287  0.00000  0.11427
       7     H     0.44051  0.44051  0.00000  0.11898
       8     C     3.09006  3.09006  0.00000 -0.18012
       9     H     0.44275  0.44275  0.00000  0.11450
      10     H     0.44966  0.44966  0.00000  0.10067
      11     C     3.09991  3.09991  0.00000 -0.19983
      12     H     0.44929  0.44929  0.00000  0.10142
      13     H     0.44738  0.44738  0.00000  0.10524
      14     C     3.09855  3.09855  0.00000 -0.19710
      15     H     0.45135  0.45135  0.00000  0.09730
      16     H     0.44786  0.44786  0.00000  0.10428
      17     C     3.09011  3.09011  0.00000 -0.18022
      18     H     0.45265  0.45265  0.00000  0.09470
      19     H     0.44714  0.44714  0.00000  0.10572
      20     C     3.14959  3.14959  0.00000 -0.29919
      21     H     0.44772  0.44772  0.00000  0.10456
      22     H     0.45435  0.45435  0.00000  0.09129
      23     H     0.45401  0.45401  0.00000  0.09197
      24     H     0.45592  0.45592  0.00000  0.08816
      25     H     0.44692  0.44692  0.00000  0.10615

   Total alpha = 36.00000, Total beta = 36.00000, Total charge = -0.00000

*** Psi4 exiting successfully. Buy a developer a beer!
