  ==> Input File <==

--------------------------------------------------------------------------
set {
	reference rhf
	basis 6-31G*
}

set_num_threads( 4 )
memory 2 gb

molecule MOL {
0 1

H	 -3.269016	 -0.876744	 0.468090
C	 -2.809304	 0.000122	 0.025886
N	 -1.391456	 0.000019	 0.300661
H	 -3.037557	 -0.000063	 -1.044252
H	 -3.269223	 0.876956	 0.468000
C	 -0.979002	 -1.161461	 1.063965
C	 -0.956220	 1.221939	 0.948188
H	 -1.459789	 -1.188215	 2.046633
H	 -1.277483	 -2.055954	 0.526979
C	 0.530380	 -1.166853	 1.249183
H	 -1.238114	 2.065690	 0.326757
H	 -1.435498	 1.352960	 1.923193
C	 0.553162	 1.216547	 1.133404
H	 0.812275	 -2.010604	 1.870613
H	 1.009658	 -1.297872	 0.274177
N	 0.965616	 0.055067	 1.896709
H	 0.851643	 2.111040	 1.670391
H	 1.033949	 1.243301	 0.150737
C	 2.383463	 0.054964	 2.171485
H	 2.636452	 -0.795084	 2.795333
H	 2.653425	 0.956467	 2.710225
H	 2.994718	 0.004906	 1.265307

	symmetry c1
}
set optking {
	frozen_dihedral = ("
		6 3 2 4
	")
}

ee = optimize('scf')
oeprop('DIPOLE', 'QUADRUPOLE', 'MULLIKEN_CHARGES')
f=open( 'psi4out.xyz', 'w' )
f.write( "22  " )
f.write( str(ee) + "\n" )
f.write( MOL.save_string_xyz() )
f.close()
--------------------------------------------------------------------------

    Molecular point group: c1
  Charge       = 0
  Multiplicity = 1
  Basis Set: 6-31G*
  Basis Set:
  @DF-RHF Final Energy:  -344.22342169020101
    Total Energy =                       -344.2234216902008939
    Molecular point group: c1
  Basis Set: 6-31G*
  Basis Set:
  Basis Set: 6-31G*
  Basis Set:
  @DF-RHF Final Energy:  -344.22415993363086
    Total Energy =                       -344.2241599336306308
  Basis Set: 6-31G*
  Basis Set:
  Basis Set: 6-31G*
  Basis Set:
  @DF-RHF Final Energy:  -344.22432911895811
    Total Energy =                       -344.2243291189580532
  Basis Set: 6-31G*
  Basis Set:
  Basis Set: 6-31G*
  Basis Set:
  @DF-RHF Final Energy:  -344.22433671007263
    Total Energy =                       -344.2243367100729756
  Basis Set: 6-31G*
  Basis Set:
  Charge       = 0
  Multiplicity = 1
  Basis Set: 6-31G*
  Basis Set:

    Orbital Energies (a.u.)
    -----------------------

    Doubly Occupied:

       1A    -15.541191     2A    -15.537725     3A    -11.238372
       4A    -11.238300     5A    -11.237294     6A    -11.237278
       7A    -11.235710     8A    -11.235366     9A     -1.252395
      10A     -1.200413    11A     -1.024109    12A     -0.990370
      13A     -0.911879    14A     -0.866204    15A     -0.835455
      16A     -0.753489    17A     -0.664175    18A     -0.634256
      19A     -0.629416    20A     -0.623686    21A     -0.618546
      22A     -0.578689    23A     -0.550884    24A     -0.549938
      25A     -0.542122    26A     -0.519516    27A     -0.497239
      28A     -0.487093    29A     -0.464557    30A     -0.454819
      31A     -0.348167    32A     -0.337956

  @DF-RHF Final Energy:  -344.22433765674140

   => Energetics <=

    Nuclear Repulsion Energy =            420.7684984452795902
    One-Electron Energy =               -1300.3124551705641352
    Two-Electron Energy =                 535.3196190685432612
    DFT Exchange-Correlation Energy =       0.0000000000000000
    Empirical Dispersion Energy =           0.0000000000000000
    PCM Polarization Energy =               0.0000000000000000
    EFP Energy =                            0.0000000000000000
    Total Energy =                       -344.2243376567412270
    Molecular point group: c1
  Basis Set: 6-31G*
  Basis Set:

  -Total Gradient:
     Atom            X                  Y                   Z
    ------   -----------------  -----------------  -----------------
       1        0.000005151222     0.000005400644     0.000011906777
       2       -0.000015800874     0.001558167610    -0.000362187910
       3       -0.000254791637     0.000341644104     0.001250976194
       4        0.000032964006    -0.001386760348    -0.000020842527
       5        0.000023458561    -0.000012948604     0.000019939872
       6        0.000210973747    -0.000525719451    -0.000911205163
       7       -0.000012075378     0.000022404432    -0.000000886824
       8       -0.000000736701     0.000010325756    -0.000010890970
       9        0.000004107609     0.000002246046     0.000005664171
      10        0.000007222771    -0.000016682559     0.000014625485
      11        0.000002944958    -0.000000123015     0.000005112769
      12       -0.000005084448    -0.000010520140    -0.000007629892
      13        0.000009575816     0.000012804616     0.000004136430
      14        0.000013178829    -0.000003879591     0.000004175516
      15       -0.000013711097    -0.000003055859     0.000000185402
      16       -0.000016603327    -0.000000697099    -0.000014133718
      17        0.000007302666     0.000002386951     0.000001843451
      18       -0.000008851937     0.000004358557    -0.000002606895
      19       -0.000001882870    -0.000000052207     0.000012528596
      20        0.000006836660     0.000001614124    -0.000000245681
      21        0.000006691610    -0.000001112105    -0.000000014417
      22       -0.000000870192     0.000000198139    -0.000000450665

  **** Optimization is complete! (in 5 steps) ****
    Final optimized geometry and variables:
    Molecular point group: c1

    Geometry (in Angstrom), charge = 0, multiplicity = 1:

    H           -3.099546376957    -0.920991831629    -0.737591718857
    C           -2.607141179898    -0.025147096923    -1.102442823832
    N           -1.193916578729    -0.027889604628    -0.757988332536
    H           -2.746801661416     0.007565387818    -2.179078387967
    H           -3.127574213030     0.823104896835    -0.665888024395
    C           -0.767650713993    -1.193942021954    -0.011390071176
    C           -0.742302442309     1.199728993720    -0.136480690613
    H           -1.231615593664    -1.236666052993     0.978907921148
    H           -1.065625132080    -2.084778370998    -0.553805205111
    C            0.744394131184    -1.194684703965     0.150122498598
    H           -1.024020793939     2.035729157278    -0.768170641653
    H           -1.206390077335     1.352822033654     0.842768485974
    C            0.769349000517     1.187853811548     0.027078117025
    H            1.038523982757    -2.037840822888     0.766868759950
    H            1.208222159245    -1.324014880373    -0.832637725936
    N            1.187732800244     0.028325703429     0.790326365887
    H            1.080013522952     2.083785607013     0.554891142641
    H            1.236023501682     1.206631991219    -0.962626374150
    C            2.608523274923     0.026815681717     1.049237107221
    H            2.867560544631    -0.821636033363     1.672832134852
    H            2.885932195756     0.929579585037     1.582064730924
    H            3.209634569164    -0.026787745042     0.136434747963

  Mulliken Charges: (a.u.)
   Center  Symbol    Alpha    Beta     Spin     Total
       1     H     0.42190  0.42190  0.00000  0.15619
       2     C     3.13894  3.13894  0.00000 -0.27789
       3     N     3.79345  3.79345  0.00000 -0.58690
       4     H     0.41645  0.41645  0.00000  0.16710
       5     H     0.42368  0.42368  0.00000  0.15263
       6     C     3.05464  3.05464  0.00000 -0.10928
       7     C     3.05492  3.05492  0.00000 -0.10983
       8     H     0.42927  0.42927  0.00000  0.14147
       9     H     0.41775  0.41775  0.00000  0.16450
      10     C     3.05660  3.05660  0.00000 -0.11320
      11     H     0.41764  0.41764  0.00000  0.16471
      12     H     0.42914  0.42914  0.00000  0.14172
      13     C     3.05647  3.05647  0.00000 -0.11293
      14     H     0.41839  0.41839  0.00000  0.16322
      15     H     0.42889  0.42889  0.00000  0.14221
      16     N     3.78712  3.78712  0.00000 -0.57425
      17     H     0.41838  0.41838  0.00000  0.16323
      18     H     0.42890  0.42890  0.00000  0.14221
      19     C     3.14010  3.14010  0.00000 -0.28020
      20     H     0.41689  0.41689  0.00000  0.16622
      21     H     0.41689  0.41689  0.00000  0.16622
      22     H     0.43358  0.43358  0.00000  0.13284

   Total alpha = 32.00000, Total beta = 32.00000, Total charge =  0.00000
