  ==> Input File <==

--------------------------------------------------------------------------
set {
	reference rhf
	basis cc-pvtz
}

set_num_threads( 4 )
memory 2 gb

molecule MOL {
0 1

H	 -3.018157	 1.878655	 -0.637476
O	 -2.690191	 2.115208	 0.211602
C	 -1.301487	 1.993698	 0.230633
C	 -0.793473	 0.591216	 0.050087
H	 -0.973792	 2.370628	 1.192321
H	 -0.845938	 2.632327	 -0.523905
C	 -1.534243	 -0.493009	 -0.013340
H	 0.278089	 0.508532	 -0.028433
H	 -1.101195	 -1.466332	 -0.144046
H	 -2.604242	 -0.437780	 0.050785

	symmetry c1
}
set optking {
	frozen_dihedral = ("
		3 4 7 9
	")
}

ee = optimize('scf')
oeprop('DIPOLE', 'QUADRUPOLE', 'MULLIKEN_CHARGES')
f=open( 'psi4out.xyz', 'w' )
f.write( "10  " )
f.write( str(ee) + "\n" )
f.write( MOL.save_string_xyz() )
f.close()
--------------------------------------------------------------------------

    Molecular point group: c1
  Charge       = 0
  Multiplicity = 1
  Basis Set: CC-PVTZ
  Basis Set:
  @DF-RHF Final Energy:  -191.99879038920659
    Total Energy =                       -191.9987903892068175
    Molecular point group: c1
  Basis Set: CC-PVTZ
  Basis Set:
  Basis Set: CC-PVTZ
  Basis Set:
  @DF-RHF Final Energy:  -191.99883647883206
    Total Energy =                       -191.9988364788319188
  Basis Set: CC-PVTZ
  Basis Set:
  Basis Set: CC-PVTZ
  Basis Set:
  @DF-RHF Final Energy:  -191.99885554608596
    Total Energy =                       -191.9988555460859061
  Basis Set: CC-PVTZ
  Basis Set:
  Charge       = 0
  Multiplicity = 1
  Basis Set: CC-PVTZ
  Basis Set:

    Orbital Energies (a.u.)
    -----------------------

    Doubly Occupied:

       1A    -20.554516     2A    -11.278224     3A    -11.230446
       4A    -11.216662     5A     -1.374920     6A     -1.062294
       7A     -0.932318     8A     -0.771821     9A     -0.692421
      10A     -0.665455    11A     -0.621028    12A     -0.574258
      13A     -0.540620    14A     -0.496915    15A     -0.452478
      16A     -0.369129

  @DF-RHF Final Energy:  -191.99885571375989

   => Energetics <=

    Nuclear Repulsion Energy =            119.5379228837590659
    One-Electron Energy =                -497.4065441724289940
    Two-Electron Energy =                 185.8697655749100761
    DFT Exchange-Correlation Energy =       0.0000000000000000
    Empirical Dispersion Energy =           0.0000000000000000
    PCM Polarization Energy =               0.0000000000000000
    EFP Energy =                            0.0000000000000000
    Total Energy =                       -191.9988557137598661
    Molecular point group: c1
  Basis Set: CC-PVTZ
  Basis Set:

  -Total Gradient:
     Atom            X                  Y                   Z
    ------   -----------------  -----------------  -----------------
       1       -0.000008227987     0.000002817603    -0.000004000846
       2        0.000008719573     0.000033691338    -0.000023209231
       3       -0.000023498246    -0.000007409226     0.000096338770
       4        0.000033617851    -0.000040613022    -0.000075725573
       5        0.000010885594     0.000010490216     0.000000270958
       6       -0.000021494701     0.000003288866    -0.000002729489
       7       -0.000013244872     0.000008184484    -0.000059502482
       8       -0.000005780903     0.000003701885     0.000000301682
       9        0.000003073152    -0.000011935081     0.000068437759
      10        0.000015950534    -0.000002217061    -0.000000181546

  **** Optimization is complete! (in 4 steps) ****
    Final optimized geometry and variables:
    Molecular point group: c1

    Geometry (in Angstrom), charge = 0, multiplicity = 1:

    H           -1.379527125883     0.774484783205    -0.753369000301
    O           -1.053949210882     1.006526680456     0.097851522987
    C            0.334500719679     0.882291969983     0.120786799638
    C            0.840932398903    -0.520720463558    -0.061375351099
    H            0.660067318718     1.256528446111     1.084231112078
    H            0.793288863106     1.521937801294    -0.630928782568
    C            0.098554096600    -1.603545423820    -0.128023823685
    H            1.912539048186    -0.605016817470    -0.137128409987
    H            0.541611335772    -2.572237580620    -0.259896651386
    H           -0.970188147497    -1.562034805737    -0.038927150283

  Mulliken Charges: (a.u.)
   Center  Symbol    Alpha    Beta     Spin     Total
       1     H     0.39105  0.39105  0.00000  0.21790
       2     O     4.19932  4.19932  0.00000 -0.39864
       3     C     2.95039  2.95039  0.00000  0.09922
       4     C     3.08495  3.08495  0.00000 -0.16990
       5     H     0.45341  0.45341  0.00000  0.09319
       6     H     0.46842  0.46842  0.00000  0.06316
       7     C     3.17677  3.17677  0.00000 -0.35355
       8     H     0.42329  0.42329  0.00000  0.15343
       9     H     0.42808  0.42808  0.00000  0.14384
      10     H     0.42432  0.42432  0.00000  0.15135

   Total alpha = 16.00000, Total beta = 16.00000, Total charge = -0.00000
