                              Psi4 1.0.54 Driver

  ==> Input File <==

--------------------------------------------------------------------------
set {
	reference rhf
	basis cc-pvtz
}

set_num_threads( 4 )
memory 2 gb

molecule MOL {
0 1

H	 -3.412771	 -0.933096	 -0.386883
O	 -3.112535	 -0.152320	 0.042771
C	 -1.774743	 -0.061958	 0.012028
C	 -0.983314	 -1.030559	 -0.592860
C	 -1.193968	 1.043636	 0.610815
H	 -1.441233	 -1.885462	 -1.055329
C	 0.384000	 -0.888658	 -0.595842
H	 -1.822417	 1.778924	 1.071708
C	 0.176694	 1.170815	 0.599177
H	 1.005627	 -1.628935	 -1.059177
C	 0.981121	 0.213562	 0.000000
H	 0.628335	 2.028144	 1.063425
C	 2.447402	 0.371303	 0.000000
O	 3.227427	 -0.521847	 0.000000
H	 2.796538	 1.409525	 0.000000

	symmetry c1
}
set optking {
	frozen_dihedral = ("
		7 11 13 14
	")
}

ee,wfn = optimize('scf', return_wfn=True)
oeprop( wfn, 'DIPOLE', 'QUADRUPOLE', 'MULLIKEN_CHARGES')
f=open( 'psi4out.xyz', 'w' )
f.write( "15  " )
f.write( str(ee) + "\n" )
f.write( MOL.save_string_xyz() )
f.close()
--------------------------------------------------------------------------

    Molecular point group: c1
  Charge       = 0
  Multiplicity = 1
  Basis Set: CC-PVTZ
  Basis Set:
  @DF-RHF Final Energy:  -418.43891844715051
    Total Energy =                       -418.4389184471506269
    Molecular point group: c1
  Basis Set: CC-PVTZ
  Basis Set:
  Basis Set: CC-PVTZ
  Basis Set:
  @DF-RHF Final Energy:  -418.43756778706188
    Total Energy =                       -418.4375677870616528
  Basis Set: CC-PVTZ
  Basis Set:
  Basis Set: CC-PVTZ
  Basis Set:
  @DF-RHF Final Energy:  -418.43916845673800
    Total Energy =                       -418.4391684567380025
  Basis Set: CC-PVTZ
  Basis Set:
  Basis Set: CC-PVTZ
  Basis Set:
  @DF-RHF Final Energy:  -418.43939583374220
    Total Energy =                       -418.4393958337420827
  Basis Set: CC-PVTZ
  Basis Set:
  Basis Set: CC-PVTZ
  Basis Set:
  @DF-RHF Final Energy:  -418.43939728375523
    Total Energy =                       -418.4393972837553974
  Basis Set: CC-PVTZ
  Basis Set:
  Charge       = 0
  Multiplicity = 1
  Basis Set: CC-PVTZ
  Basis Set:

    Orbital Energies (a.u.)
    -----------------------

    Doubly Occupied:

       1A    -20.603306     2A    -20.548701     3A    -11.324174
       4A    -11.320516     5A    -11.257009     6A    -11.254676
       7A    -11.241781     8A    -11.237991     9A    -11.236579
      10A     -1.436239    11A     -1.404361    12A     -1.174916
      13A     -1.044058    14A     -1.042211    15A     -0.891614
      16A     -0.870139    17A     -0.798300    18A     -0.761426
      19A     -0.717231    20A     -0.672145    21A     -0.648768
      22A     -0.631652    23A     -0.613975    24A     -0.610364
      25A     -0.590000    26A     -0.564775    27A     -0.548555
      28A     -0.508743    29A     -0.491792    30A     -0.422714
      31A     -0.361608    32A     -0.330901

  @DF-RHF Final Energy:  -418.43939813640895

   => Energetics <=

    Nuclear Repulsion Energy =            402.0495137304528726
    One-Electron Energy =               -1366.6553812747288248
    Two-Electron Energy =                 546.1664694078665434
    DFT Exchange-Correlation Energy =       0.0000000000000000
    Empirical Dispersion Energy =           0.0000000000000000
    PCM Polarization Energy =               0.0000000000000000
    EFP Energy =                            0.0000000000000000
    Total Energy =                       -418.4393981364094088
    Molecular point group: c1
  Basis Set: CC-PVTZ
  Basis Set:

  -Total Gradient:
     Atom            X                  Y                   Z
    ------   -----------------  -----------------  -----------------
       1       -0.000005639721     0.000003667169    -0.000005576699
       2        0.000005592525    -0.000032961031     0.000021732326
       3       -0.000024547741     0.000143151751    -0.000003338565
       4        0.000099558794    -0.000048583022    -0.000001916706
       5       -0.000079672433    -0.000049118977     0.000006770864
       6       -0.000010121993     0.000001542464     0.000002237321
       7       -0.000490360226     0.002740373661    -0.004438916032
       8       -0.000001827170     0.000000840235     0.000000207251
       9        0.000049444131    -0.000044992492    -0.000021998269
      10        0.000007809023     0.000009467532     0.000009309231
      11        0.000652652735    -0.004155307786     0.009468643757
      12       -0.000001491777    -0.000011710202     0.000015939037
      13       -0.000376622134     0.001782410259    -0.011512844171
      14        0.000184246623    -0.000298166844     0.006455360700
      15       -0.000009020640    -0.000040612721     0.000004389958

  **** Optimization is complete! (in 6 steps) ****
    Final optimized geometry and variables:
    Molecular point group: c1

    Geometry (in Angstrom), charge = 0, multiplicity = 1:

    H           -3.418080144012    -0.906613680913    -0.427653773399
    O           -3.117067773524    -0.131279537243     0.011368692127
    C           -1.777391969186    -0.052671110628    -0.002462905027
    C           -0.986686836462    -1.014788079530    -0.614832381861
    C           -1.194153543834     1.042295266352     0.613982185087
    H           -1.444841947445    -1.852549777970    -1.107587819034
    C            0.383628233383    -0.888020227418    -0.590910320499
    H           -1.821780038432     1.779874546558     1.072626506554
    C            0.176660212409     1.166277875708     0.609395309259
    H            1.002457922045    -1.630156683427    -1.055875544139
    C            0.982166296703     0.192540222132     0.038380321285
    H            0.626856478388     2.027905167653     1.067336618095
    C            2.451028500970     0.362316879666     0.014124672146
    O            3.232919403845    -0.526323073999    -0.040054884211
    H            2.797011929204     1.398039005587     0.100607676691

  Mulliken Charges: (a.u.)
   Center  Symbol    Alpha    Beta     Spin     Total
       1     H     0.38556  0.38556  0.00000  0.22889
       2     O     4.16710  4.16710  0.00000 -0.33420
       3     C     2.84723  2.84723  0.00000  0.30553
       4     C     3.13008  3.13008  0.00000 -0.26016
       5     C     3.10608  3.10608  0.00000 -0.21217
       6     H     0.43131  0.43131  0.00000  0.13737
       7     C     3.07425  3.07425  0.00000 -0.14849
       8     H     0.41664  0.41664  0.00000  0.16672
       9     C     3.07009  3.07009  0.00000 -0.14018
      10     H     0.40937  0.40937  0.00000  0.18126
      11     C     2.98666  2.98666  0.00000  0.02669
      12     H     0.42197  0.42197  0.00000  0.15607
      13     C     2.91736  2.91736  0.00000  0.16529
      14     O     4.17514  4.17514  0.00000 -0.35028
      15     H     0.46117  0.46117  0.00000  0.07766

   Total alpha = 32.00000, Total beta = 32.00000, Total charge =  0.00000

*** Psi4 exiting successfully. Buy a developer a beer!
