  ==> Input File <==

--------------------------------------------------------------------------
set {
	reference rhf
	basis cc-pvtz
}

set_num_threads( 4 )
memory 2 gb

molecule MOL {
0 1

H	 2.828711	 -0.346904	 0.001083
C	 1.876752	 0.015931	 -0.363450
C	 0.776285	 -0.474665	 0.563092
H	 1.728113	 -0.357244	 -1.367440
H	 1.906171	 1.096574	 -0.386153
N	 -0.540022	 0.017605	 0.071630
H	 0.707111	 -1.548969	 0.573035
H	 0.886169	 -0.084184	 1.560432
O	 -1.409798	 -0.779402	 -0.040012
O	 -0.620390	 1.167920	 -0.201705

	symmetry c1
}
set optking {
	frozen_dihedral = ("
		9 6 3 2
	")
}

ee = optimize('scf')
oeprop('DIPOLE', 'QUADRUPOLE', 'MULLIKEN_CHARGES')
f=open( 'psi4out.xyz', 'w' )
f.write( "10  " )
f.write( str(ee) + "\n" )
f.write( MOL.save_string_xyz() )
f.close()
--------------------------------------------------------------------------

    Molecular point group: c1
  Charge       = 0
  Multiplicity = 1
  Basis Set: CC-PVTZ
  Basis Set:
  @DF-RHF Final Energy:  -282.81260228670834
    Total Energy =                       -282.8126022867082270
    Molecular point group: c1
  Basis Set: CC-PVTZ
  Basis Set:
  Basis Set: CC-PVTZ
  Basis Set:
  @DF-RHF Final Energy:  -282.80864690272949
    Total Energy =                       -282.8086469027294356
  Basis Set: CC-PVTZ
  Basis Set:
  Basis Set: CC-PVTZ
  Basis Set:
  @DF-RHF Final Energy:  -282.81270702997256
    Total Energy =                       -282.8127070299725574
  Basis Set: CC-PVTZ
  Basis Set:
  Basis Set: CC-PVTZ
  Basis Set:
  @DF-RHF Final Energy:  -282.81313520434611
    Total Energy =                       -282.8131352043461106
  Basis Set: CC-PVTZ
  Basis Set:
  Basis Set: CC-PVTZ
  Basis Set:
  @DF-RHF Final Energy:  -282.81314011479196
    Total Energy =                       -282.8131401147919632
  Basis Set: CC-PVTZ
  Basis Set:
  Charge       = 0
  Multiplicity = 1
  Basis Set: CC-PVTZ
  Basis Set:

    Orbital Energies (a.u.)
    -----------------------

    Doubly Occupied:

       1A    -20.593768     2A    -20.590766     3A    -15.838980
       4A    -11.302423     5A    -11.247274     6A     -1.638215
       7A     -1.422505     8A     -1.125092     9A     -0.966967
      10A     -0.837737    11A     -0.764662    12A     -0.743715
      13A     -0.731189    14A     -0.652513    15A     -0.591305
      16A     -0.562991    17A     -0.542481    18A     -0.489594
      19A     -0.479420    20A     -0.455770

  @DF-RHF Final Energy:  -282.81314205286100

   => Energetics <=

    Nuclear Repulsion Energy =            186.6134688023590229
    One-Electron Energy =                -755.6984856947117351
    Two-Electron Energy =                 286.2718748394915451
    DFT Exchange-Correlation Energy =       0.0000000000000000
    Empirical Dispersion Energy =           0.0000000000000000
    PCM Polarization Energy =               0.0000000000000000
    EFP Energy =                            0.0000000000000000
    Total Energy =                       -282.8131420528612239
    Molecular point group: c1
  Basis Set: CC-PVTZ
  Basis Set:

  -Total Gradient:
     Atom            X                  Y                   Z
    ------   -----------------  -----------------  -----------------
       1        0.000019703387     0.000000499501    -0.000002567204
       2        0.000043356936     0.000175281870     0.000093617930
       3       -0.000061709489    -0.000205711053    -0.000067151215
       4        0.000000608401     0.000005544554     0.000013641401
       5        0.000000389482    -0.000010409506    -0.000005651938
       6        0.000093950601     0.000102502273    -0.000263612269
       7       -0.000024991243     0.000009019527    -0.000005801249
       8       -0.000004388573     0.000008224371    -0.000005045858
       9       -0.000105953952    -0.000020725183     0.000232117750
      10        0.000039034453    -0.000064226354     0.000010452652

  **** Optimization is complete! (in 6 steps) ****
    Final optimized geometry and variables:
    Molecular point group: c1

    Geometry (in Angstrom), charge = 0, multiplicity = 1:

    H            2.844938977743    -0.362462405363     0.006335674292
    C            1.905235483013     0.018847752917    -0.372381602055
    C            0.789066244387    -0.460403267849     0.534691825102
    H            1.770972728002    -0.350549239160    -1.380930398944
    H            1.950073013607     1.096572279438    -0.397422737939
    N           -0.542976053101     0.018544490046     0.062980590793
    H            0.713105341271    -1.532304184033     0.578537838935
    H            0.888686540672    -0.059231844653     1.532808142006
    O           -1.405662587528    -0.786250094142    -0.039088747094
    O           -0.654990899752     1.177400300409    -0.159201046920

  Mulliken Charges: (a.u.)
   Center  Symbol    Alpha    Beta     Spin     Total
       1     H     0.44887  0.44887  0.00000  0.10226
       2     C     3.14127  3.14127  0.00000 -0.28255
       3     C     3.03906  3.03906  0.00000 -0.07811
       4     H     0.44527  0.44527  0.00000  0.10947
       5     H     0.43639  0.43639  0.00000  0.12722
       6     N     3.27796  3.27796  0.00000  0.44408
       7     H     0.43172  0.43172  0.00000  0.13656
       8     H     0.43745  0.43745  0.00000  0.12509
       9     O     4.16845  4.16845  0.00000 -0.33691
      10     O     4.17356  4.17356  0.00000 -0.34712

   Total alpha = 20.00000, Total beta = 20.00000, Total charge =  0.00000
