  ==> Input File <==

--------------------------------------------------------------------------
set {
	reference rhf
	basis 6-31G*
}

set_num_threads( 4 )
memory 2 gb

molecule MOL {
0 1

H	 2.762934	 0.383841	 0.777232
N	 2.332695	 -0.069570	 0.000000
C	 0.936681	 -0.007078	 0.000000
H	 2.755663	 0.221396	 -0.855111
C	 0.227108	 -0.002120	 -1.198267
C	 0.227108	 -0.002120	 1.198267
H	 0.761569	 -0.014657	 -2.132680
C	 -1.156334	 0.010459	 -1.192360
H	 0.761569	 -0.014657	 2.132680
C	 -1.156334	 0.010459	 1.192360
H	 -1.684791	 0.014915	 -2.129421
C	 -1.862085	 0.017996	 0.000000
H	 -1.684791	 0.014915	 2.129421
H	 -2.936703	 0.028387	 0.000000

	symmetry c1
}
set optking {
	frozen_dihedral = ("
		1 2 3 5
	")
}

ee = optimize('scf')
oeprop('DIPOLE', 'QUADRUPOLE', 'MULLIKEN_CHARGES')
f=open( 'psi4out.xyz', 'w' )
f.write( "14  " )
f.write( str(ee) + "\n" )
f.write( MOL.save_string_xyz() )
f.close()
--------------------------------------------------------------------------

    Molecular point group: c1
  Charge       = 0
  Multiplicity = 1
  Basis Set: 6-31G*
  Basis Set:
  @DF-RHF Final Energy:  -285.73035030141727
    Total Energy =                       -285.7303503014171611
    Molecular point group: c1
  Basis Set: 6-31G*
  Basis Set:
  Basis Set: 6-31G*
  Basis Set:
  @DF-RHF Final Energy:  -285.73036407184833
    Total Energy =                       -285.7303640718482143
  Basis Set: 6-31G*
  Basis Set:
  Basis Set: 6-31G*
  Basis Set:
  @DF-RHF Final Energy:  -285.73036811196499
    Total Energy =                       -285.7303681119650491
  Basis Set: 6-31G*
  Basis Set:
  Charge       = 0
  Multiplicity = 1
  Basis Set: 6-31G*
  Basis Set:

    Orbital Energies (a.u.)
    -----------------------

    Doubly Occupied:

       1A    -15.560754     2A    -11.270881     3A    -11.228614
       4A    -11.228518     5A    -11.217677     6A    -11.217282
       7A    -11.213475     8A     -1.222188     9A     -1.125395
      10A     -1.009317    11A     -0.983867    12A     -0.828744
      13A     -0.809231    14A     -0.703156    15A     -0.682264
      16A     -0.652010    17A     -0.595398    18A     -0.589402
      19A     -0.578300    20A     -0.529074    21A     -0.502681
      22A     -0.484427    23A     -0.443028    24A     -0.330993
      25A     -0.289940

  @DF-RHF Final Energy:  -285.73036858096714

   => Energetics <=

    Nuclear Repulsion Energy =            273.0601554678378307
    One-Electron Energy =                -926.9878196427697503
    Two-Electron Energy =                 368.1972955939645544
    DFT Exchange-Correlation Energy =       0.0000000000000000
    Empirical Dispersion Energy =           0.0000000000000000
    PCM Polarization Energy =               0.0000000000000000
    EFP Energy =                            0.0000000000000000
    Total Energy =                       -285.7303685809673652
    Molecular point group: c1
  Basis Set: 6-31G*
  Basis Set:

  -Total Gradient:
     Atom            X                  Y                   Z
    ------   -----------------  -----------------  -----------------
       1        0.000020269741     0.000552966174    -0.000341667638
       2       -0.000083528086    -0.000454875009     0.000425301819
       3        0.000058276097    -0.000595487746    -0.000083407733
       4        0.000032911057     0.000004740439    -0.000004485347
       5       -0.000037594283     0.000491481361    -0.000009977261
       6       -0.000010124051    -0.000011133792     0.000003574558
       7        0.000007629344     0.000002982622    -0.000007211463
       8        0.000058771320     0.000008627311    -0.000020595009
       9        0.000001170872    -0.000007699253    -0.000004139893
      10       -0.000042533742     0.000028396203    -0.000026419329
      11        0.000001157386    -0.000002679361     0.000001133370
      12       -0.000003589544    -0.000018205542     0.000064127279
      13       -0.000001844059     0.000003173450     0.000006287263
      14       -0.000000972049    -0.000002286857    -0.000002520617

  **** Optimization is complete! (in 4 steps) ****
    Final optimized geometry and variables:
    Molecular point group: c1

    Geometry (in Angstrom), charge = 0, multiplicity = 1:

    H            2.757387517348     0.381487571084     0.784015143951
    N            2.333491424450    -0.071586065105     0.002696597730
    C            0.936340278517    -0.010722334299    -0.001406701775
    H            2.754673385398     0.238465173058    -0.846863955465
    C            0.225967493400    -0.003291129981    -1.198451957815
    C            0.228060014203    -0.002291987113     1.197919657673
    H            0.759012794619    -0.013611926439    -2.133845396508
    C           -1.157942244631     0.009038585666    -1.191298854884
    H            0.764482562755    -0.017563784048     2.131094871716
    C           -1.154812346009     0.015112117054     1.193595080230
    H           -1.687343536493     0.013478058943    -2.127893246270
    C           -1.861860530880     0.020432767365     0.001501079596
    H           -1.682479284971     0.022776519716     2.131160170891
    H           -2.936524602484     0.032908726489     0.002738442536

  Mulliken Charges: (a.u.)
   Center  Symbol    Alpha    Beta     Spin     Total
       1     H     0.32082  0.32082  0.00000  0.35837
       2     N     3.94341  3.94341  0.00000 -0.88682
       3     C     2.85334  2.85334  0.00000  0.29333
       4     H     0.32102  0.32102  0.00000  0.35795
       5     C     3.12779  3.12779  0.00000 -0.25557
       6     C     3.12579  3.12579  0.00000 -0.25158
       7     H     0.40441  0.40441  0.00000  0.19118
       8     C     3.08976  3.08976  0.00000 -0.17952
       9     H     0.40340  0.40340  0.00000  0.19321
      10     C     3.08997  3.08997  0.00000 -0.17994
      11     H     0.40084  0.40084  0.00000  0.19832
      12     C     3.11586  3.11586  0.00000 -0.23173
      13     H     0.40080  0.40080  0.00000  0.19840
      14     H     0.40280  0.40280  0.00000  0.19440

   Total alpha = 25.00000, Total beta = 25.00000, Total charge =  0.00000
