  ==> Input File <==

--------------------------------------------------------------------------
set {
	reference rhf
	basis 6-31G*
}

set_num_threads( 4 )
memory 2 gb

molecule MOL {
0 1

O	 0.391030	 1.298905	 0.000133
C	 0.503002	 0.111612	 0.000005
C	 -0.702327	 -0.811998	 -0.000075
C	 1.863306	 -0.554493	 0.000030
C	 -0.992055	 -1.437861	 1.358786
H	 -1.559499	 -0.242322	 -0.354331
H	 -0.533934	 -1.580684	 -0.752093
H	 -1.184609	 -0.675711	 2.103950
H	 -1.860488	 -2.085553	 1.298989
H	 -0.149954	 -2.025940	 1.702661
H	 1.974395	 -1.189404	 -0.874166
H	 2.638695	 0.198920	 -0.000196
H	 1.974487	 -1.188655	 0.874727

	symmetry c1
}
set optking {
	frozen_dihedral = ("
		6 3 2 1
	")
}

ee = optimize('scf')
oeprop('DIPOLE', 'QUADRUPOLE', 'MULLIKEN_CHARGES')
f=open( 'psi4out.xyz', 'w' )
f.write( "13  " )
f.write( str(ee) + "\n" )
f.write( MOL.save_string_xyz() )
f.close()
--------------------------------------------------------------------------

    Molecular point group: c1
  Charge       = 0
  Multiplicity = 1
  Basis Set: 6-31G*
  Basis Set:
  @DF-RHF Final Energy:  -230.99455198184754
    Total Energy =                       -230.9945519818475361
    Molecular point group: c1
  Basis Set: 6-31G*
  Basis Set:
  Basis Set: 6-31G*
  Basis Set:
  @DF-RHF Final Energy:  -230.99510869685653
    Total Energy =                       -230.9951086968564482
  Basis Set: 6-31G*
  Basis Set:
  Basis Set: 6-31G*
  Basis Set:
  @DF-RHF Final Energy:  -230.99404830799105
    Total Energy =                       -230.9940483079913633
  Basis Set: 6-31G*
  Basis Set:
  Basis Set: 6-31G*
  Basis Set:
  @DF-RHF Final Energy:  -230.99518281272108
    Total Energy =                       -230.9951828127210831
  Basis Set: 6-31G*
  Basis Set:
  Basis Set: 6-31G*
  Basis Set:
  @DF-RHF Final Energy:  -230.99520329152858
    Total Energy =                       -230.9952032915284974
  Basis Set: 6-31G*
  Basis Set:
  Basis Set: 6-31G*
  Basis Set:
  @DF-RHF Final Energy:  -230.99521724289067
    Total Energy =                       -230.9952172428905328
  Basis Set: 6-31G*
  Basis Set:
  Basis Set: 6-31G*
  Basis Set:
  @DF-RHF Final Energy:  -230.99522757673785
    Total Energy =                       -230.9952275767376193
  Basis Set: 6-31G*
  Basis Set:
  Charge       = 0
  Multiplicity = 1
  Basis Set: 6-31G*
  Basis Set:

    Orbital Energies (a.u.)
    -----------------------

    Doubly Occupied:

       1A    -20.549233     2A    -11.325500     3A    -11.233248
       4A    -11.230025     5A    -11.228735     6A     -1.394574
       7A     -1.066788     8A     -0.996187     9A     -0.885491
      10A     -0.733922    11A     -0.654376    12A     -0.647509
      13A     -0.609499    14A     -0.594233    15A     -0.562954
      16A     -0.540318    17A     -0.529319    18A     -0.503451
      19A     -0.482002    20A     -0.399897

  @DF-RHF Final Energy:  -230.99522785867617

   => Energetics <=

    Nuclear Repulsion Energy =            176.8451138399784099
    One-Electron Energy =                -663.3461618825399455
    Two-Electron Energy =                 255.5058201838851346
    DFT Exchange-Correlation Energy =       0.0000000000000000
    Empirical Dispersion Energy =           0.0000000000000000
    PCM Polarization Energy =               0.0000000000000000
    EFP Energy =                            0.0000000000000000
    Total Energy =                       -230.9952278586764010
    Molecular point group: c1
  Basis Set: 6-31G*
  Basis Set:

  -Total Gradient:
     Atom            X                  Y                   Z
    ------   -----------------  -----------------  -----------------
       1        0.000022517103    -0.000013018351    -0.000755749291
       2       -0.000046250593     0.000040596064     0.001222608777
       3        0.000208524258    -0.000223120402    -0.001173300257
       4       -0.000014603813     0.000027043491     0.000005182820
       5       -0.000001471879    -0.000023452773     0.000031363469
       6       -0.000168960045     0.000190141306     0.000699935318
       7       -0.000001965897    -0.000001197409     0.000002011383
       8        0.000004801909     0.000007670981    -0.000016379708
       9        0.000000780257     0.000001713601    -0.000006864758
      10        0.000000294159     0.000003465397    -0.000001984695
      11       -0.000003743370    -0.000005093491    -0.000006002423
      12        0.000007181299    -0.000002454383    -0.000000314456
      13       -0.000007103388    -0.000002294034    -0.000000506180

  **** Optimization is complete! (in 8 steps) ****
    Final optimized geometry and variables:
    Molecular point group: c1

    Geometry (in Angstrom), charge = 0, multiplicity = 1:

    O            0.150540817684     1.562148540532    -0.277662559328
    C            0.288664698342     0.377043145659    -0.286170519003
    C           -0.910569139038    -0.554029796007    -0.298308727215
    C            1.664291368584    -0.255938202088    -0.294702998296
    C           -1.211704044848    -1.113894775706     1.099643726422
    H           -1.759880689289     0.017596797659    -0.650946633248
    H           -0.734329355291    -1.373018496039    -0.990430757986
    H           -1.395515904789    -0.309214966096     1.803154013603
    H           -2.095746972609    -1.740881812822     1.069311488501
    H           -0.394049227825    -1.716778342789     1.480797720775
    H            1.843820033841    -0.711426617920    -1.265181543363
    H            2.415514950284     0.500272342777    -0.114230773760
    H            1.747025049105    -1.041263549401     0.449235700341

  Mulliken Charges: (a.u.)
   Center  Symbol    Alpha    Beta     Spin     Total
       1     O     4.25981  4.25981  0.00000 -0.51962
       2     C     2.73724  2.73724  0.00000  0.52551
       3     C     3.20089  3.20089  0.00000 -0.40179
       4     C     3.28977  3.28977  0.00000 -0.57954
       5     C     3.24991  3.24991  0.00000 -0.49983
       6     H     0.39877  0.39877  0.00000  0.20245
       7     H     0.41484  0.41484  0.00000  0.17032
       8     H     0.40769  0.40769  0.00000  0.18461
       9     H     0.41056  0.41056  0.00000  0.17888
      10     H     0.41792  0.41792  0.00000  0.16416
      11     H     0.40641  0.40641  0.00000  0.18719
      12     H     0.39636  0.39636  0.00000  0.20728
      13     H     0.40982  0.40982  0.00000  0.18036

   Total alpha = 20.00000, Total beta = 20.00000, Total charge =  0.00000
