                              Psi4 1.0.54 Driver

  ==> Input File <==

--------------------------------------------------------------------------
set {
	reference rhf
	basis cc-pvtz
}

set_num_threads( 4 )
memory 2 gb

molecule MOL {
0 1

O	 2.861165	 1.364545	 0.112857
C	 2.818190	 0.201625	 0.349247
C	 1.520519	 -0.580505	 0.336813
C	 4.068191	 -0.581680	 0.681145
C	 0.288398	 0.247429	 0.000314
H	 1.638869	 -1.399780	 -0.368771
H	 1.413449	 -1.052578	 1.310820
C	 -0.993089	 -0.581367	 -0.000217
H	 0.426652	 0.712766	 -0.968944
H	 0.201137	 1.060373	 0.712101
C	 -2.258482	 0.271340	 0.000669
H	 -1.002280	 -1.233920	 -0.870484
H	 -1.002061	 -1.235367	 0.868958
C	 -3.544441	 -0.550271	 -0.000253
H	 -2.250545	 0.925250	 -0.867923
H	 -2.250598	 0.923423	 0.870642
C	 -4.804551	 0.308747	 0.000556
H	 -3.553737	 -1.201524	 -0.870151
H	 -3.553831	 -1.203282	 0.868313
H	 -4.842050	 0.949078	 -0.874436
H	 -5.698404	 -0.304480	 -0.000254
H	 -4.842277	 0.947103	 0.876982
H	 4.205023	 -1.387449	 -0.031639
H	 4.926425	 0.072054	 0.659765
H	 3.977083	 -1.032507	 1.663233

	symmetry c1
}
set optking {
	frozen_dihedral = ("
		9 5 8 12
	")
}

ee,wfn = optimize('scf', return_wfn=True)
oeprop( wfn, 'DIPOLE', 'QUADRUPOLE', 'MULLIKEN_CHARGES')
f=open( 'psi4out.xyz', 'w' )
f.write( "25  " )
f.write( str(ee) + "\n" )
f.write( MOL.save_string_xyz() )
f.close()
--------------------------------------------------------------------------

    Molecular point group: c1
  Charge       = 0
  Multiplicity = 1
  Basis Set: CC-PVTZ
  Basis Set:
  @DF-RHF Final Energy:  -387.27394205030555
    Total Energy =                       -387.2739420503057772
    Molecular point group: c1
  Basis Set: CC-PVTZ
  Basis Set:
  Basis Set: CC-PVTZ
  Basis Set:
  @DF-RHF Final Energy:  -387.27401905011868
    Total Energy =                       -387.2740190501187953
  Basis Set: CC-PVTZ
  Basis Set:
  Basis Set: CC-PVTZ
  Basis Set:
  @DF-RHF Final Energy:  -387.27387393600952
    Total Energy =                       -387.2738739360097497
  Basis Set: CC-PVTZ
  Basis Set:
  Basis Set: CC-PVTZ
  Basis Set:
  @DF-RHF Final Energy:  -387.27405680045877
    Total Energy =                       -387.2740568004585384
  Basis Set: CC-PVTZ
  Basis Set:
  Basis Set: CC-PVTZ
  Basis Set:
  @DF-RHF Final Energy:  -387.27405981509196
    Total Energy =                       -387.2740598150916185
  Basis Set: CC-PVTZ
  Basis Set:
  Charge       = 0
  Multiplicity = 1
  Basis Set: CC-PVTZ
  Basis Set:

    Orbital Energies (a.u.)
    -----------------------

    Doubly Occupied:

       1A    -20.538835     2A    -11.320399     3A    -11.230037
       4A    -11.226528     5A    -11.215312     6A    -11.214701
       7A    -11.213487     8A    -11.211457     9A    -11.206454
      10A     -1.398849    11A     -1.095030    12A     -1.057580
      13A     -1.015459    14A     -0.970125    15A     -0.891321
      16A     -0.814824    17A     -0.791198    18A     -0.730984
      19A     -0.663208    20A     -0.653895    21A     -0.633791
      22A     -0.626325    23A     -0.597278    24A     -0.584768
      25A     -0.567671    26A     -0.560583    27A     -0.541142
      28A     -0.526557    29A     -0.513714    30A     -0.492616
      31A     -0.489245    32A     -0.474530    33A     -0.463597
      34A     -0.463063    35A     -0.452212    36A     -0.401205

  @DF-RHF Final Energy:  -387.27406022057983

   => Energetics <=

    Nuclear Repulsion Energy =            439.1449376796748538
    One-Electron Energy =               -1395.1420298095040380
    Two-Electron Energy =                 568.7230319092493573
    DFT Exchange-Correlation Energy =       0.0000000000000000
    Empirical Dispersion Energy =           0.0000000000000000
    PCM Polarization Energy =               0.0000000000000000
    EFP Energy =                            0.0000000000000000
    Total Energy =                       -387.2740602205798268
    Molecular point group: c1
  Basis Set: CC-PVTZ
  Basis Set:

  -Total Gradient:
     Atom            X                  Y                   Z
    ------   -----------------  -----------------  -----------------
       1        0.000005367306    -0.000003041812     0.000000995656
       2        0.000001999250    -0.000002552663     0.000001471955
       3       -0.000000041926     0.000001963945     0.000003403833
       4        0.000004011173     0.000000734455     0.000009502084
       5       -0.001925154898     0.002935232784     0.000649908592
       6       -0.000003368573     0.000003333071     0.000008645680
       7        0.000004953484     0.000000879410    -0.000009530743
       8        0.001768619483    -0.002695580108     0.001471531522
       9        0.001323650348    -0.002039022724    -0.000775681795
      10        0.000004604572    -0.000003304223    -0.000001548469
      11        0.000006440558    -0.000000544489    -0.000016071421
      12       -0.001183574228     0.001789803527    -0.001346260346
      13        0.000007390303     0.000011675063    -0.000002706422
      14       -0.000006904918    -0.000001967470    -0.000011196407
      15       -0.000002624783     0.000009243291     0.000015174425
      16       -0.000000644073    -0.000015102231    -0.000004270449
      17       -0.000004977611    -0.000003595904     0.000003915219
      18        0.000006240482    -0.000000808684     0.000016118828
      19       -0.000008277575     0.000011652087    -0.000005287379
      20        0.000003860268    -0.000007845917     0.000010908593
      21        0.000006884218     0.000009276047    -0.000000655930
      22       -0.000003317698    -0.000004738718    -0.000009026424
      23        0.000000074437     0.000008022028     0.000003594437
      24       -0.000005924647    -0.000004823505     0.000000699758
      25        0.000000715046     0.000001112738    -0.000013634797

  **** Optimization is complete! (in 6 steps) ****
    Final optimized geometry and variables:
    Molecular point group: c1

    Geometry (in Angstrom), charge = 0, multiplicity = 1:

    O            2.873562221717     1.347888232473    -0.086165573203
    C            2.833206608418     0.188708987885     0.168344163059
    C            1.532984353936    -0.588554024018     0.203576067163
    C            4.089288287856    -0.594336592360     0.477452159884
    C            0.293305895448     0.240171628662    -0.107425828041
    H            1.627615910718    -1.416673214295    -0.495516159156
    H            1.453208680916    -1.048752312620     1.185689375253
    C           -0.983705447715    -0.598529526009    -0.104979845603
    H            0.425817480291     0.700831768176    -1.079237276025
    H            0.215126297316     1.047412728367     0.611199040341
    C           -2.252505501303     0.250346586401    -0.139434335919
    H           -0.983699695164    -1.252696339219    -0.973539097813
    H           -1.006637969095    -1.239687091373     0.772707526959
    C           -3.534684761363    -0.575319632761    -0.191828017838
    H           -2.217161204606     0.912735014764    -1.001106778206
    H           -2.276533384167     0.894173721893     0.736296084216
    C           -4.797495566285     0.279268929652    -0.219322444898
    H           -3.514265533664    -1.215023951835    -1.070004622805
    H           -3.568963239195    -1.239973150888     0.667357486013
    H           -4.809467635245     0.931542003787    -1.086162719019
    H           -5.688526453221    -0.336890788923    -0.257126752681
    H           -4.865654110202     0.905305460536     0.664128455408
    H            4.203177052701    -1.411489824962    -0.226324646483
    H            4.949045292854     0.055437789378     0.422053327958
    H            4.023967915806    -1.029568690647     1.468562234902

  Mulliken Charges: (a.u.)
   Center  Symbol    Alpha    Beta     Spin     Total
       1     O     4.17073  4.17073  0.00000 -0.34146
       2     C     2.86238  2.86238  0.00000  0.27525
       3     C     3.11425  3.11425  0.00000 -0.22849
       4     C     3.15121  3.15121  0.00000 -0.30242
       5     C     3.08341  3.08341  0.00000 -0.16682
       6     H     0.44532  0.44532  0.00000  0.10937
       7     H     0.44570  0.44570  0.00000  0.10859
       8     C     3.09042  3.09042  0.00000 -0.18084
       9     H     0.44537  0.44537  0.00000  0.10926
      10     H     0.44636  0.44636  0.00000  0.10728
      11     C     3.08634  3.08634  0.00000 -0.17268
      12     H     0.45484  0.45484  0.00000  0.09031
      13     H     0.45648  0.45648  0.00000  0.08705
      14     C     3.08439  3.08439  0.00000 -0.16878
      15     H     0.45339  0.45339  0.00000  0.09321
      16     H     0.45428  0.45428  0.00000  0.09144
      17     C     3.15027  3.15027  0.00000 -0.30054
      18     H     0.45502  0.45502  0.00000  0.08995
      19     H     0.45533  0.45533  0.00000  0.08935
      20     H     0.45469  0.45469  0.00000  0.09063
      21     H     0.44870  0.44870  0.00000  0.10261
      22     H     0.45492  0.45492  0.00000  0.09016
      23     H     0.45044  0.45044  0.00000  0.09912
      24     H     0.43537  0.43537  0.00000  0.12925
      25     H     0.45040  0.45040  0.00000  0.09921

   Total alpha = 36.00000, Total beta = 36.00000, Total charge =  0.00000

*** Psi4 exiting successfully. Buy a developer a beer!
