  ==> Input File <==

--------------------------------------------------------------------------
set {
	reference rhf
	basis cc-pvtz
}

set_num_threads( 4 )
memory 2 gb

molecule MOL {
0 1

H	 -1.646989	 -0.422435	 -1.103830
O	 -1.432053	 -0.565244	 -0.200812
C	 -0.727158	 0.534527	 0.310686
C	 0.680222	 0.664433	 -0.252229
H	 -1.306802	 1.408001	 0.044211
H	 -0.690821	 0.490158	 1.397609
C	 1.605391	 -0.489360	 0.123098
H	 0.615089	 0.745647	 -1.332226
H	 1.101414	 1.597893	 0.110950
H	 1.247627	 -1.432485	 -0.275204
H	 2.601435	 -0.332816	 -0.273062
H	 1.691776	 -0.589902	 1.200774

	symmetry c1
}
set optking {
	frozen_dihedral = ("
		1 2 3 4
	")
}

ee = optimize('scf')
oeprop('DIPOLE', 'QUADRUPOLE', 'MULLIKEN_CHARGES')
f=open( 'psi4out.xyz', 'w' )
f.write( "12  " )
f.write( str(ee) + "\n" )
f.write( MOL.save_string_xyz() )
f.close()
--------------------------------------------------------------------------

    Molecular point group: c1
  Charge       = 0
  Multiplicity = 1
  Basis Set: CC-PVTZ
  Basis Set:
  @DF-RHF Final Energy:  -193.18918000372813
    Total Energy =                       -193.1891800037280689
    Molecular point group: c1
  Basis Set: CC-PVTZ
  Basis Set:
  Basis Set: CC-PVTZ
  Basis Set:
  @DF-RHF Final Energy:  -193.19057703407682
    Total Energy =                       -193.1905770340767958
  Basis Set: CC-PVTZ
  Basis Set:
  Basis Set: CC-PVTZ
  Basis Set:
  @DF-RHF Final Energy:  -193.19095369017046
    Total Energy =                       -193.1909536901705167
  Basis Set: CC-PVTZ
  Basis Set:
  Basis Set: CC-PVTZ
  Basis Set:
  @DF-RHF Final Energy:  -193.19095719455902
    Total Energy =                       -193.1909571945590756
  Basis Set: CC-PVTZ
  Basis Set:
  Basis Set: CC-PVTZ
  Basis Set:
  @DF-RHF Final Energy:  -193.19095838810992
    Total Energy =                       -193.1909583881099195
  Basis Set: CC-PVTZ
  Basis Set:
  Charge       = 0
  Multiplicity = 1
  Basis Set: CC-PVTZ
  Basis Set:

    Orbital Energies (a.u.)
    -----------------------

    Doubly Occupied:

       1A    -20.546886     2A    -11.266203     3A    -11.217481
       4A    -11.205510     5A     -1.364817     6A     -1.049623
       7A     -0.922004     8A     -0.814147     9A     -0.684557
      10A     -0.639430    11A     -0.623829    12A     -0.567603
      13A     -0.528784    14A     -0.523199    15A     -0.484596
      16A     -0.468141    17A     -0.433022

  @DF-RHF Final Energy:  -193.19095850470126

   => Energetics <=

    Nuclear Repulsion Energy =            133.1827345217337211
    One-Electron Energy =                -526.0677201024758460
    Two-Electron Energy =                 199.6940270760410101
    DFT Exchange-Correlation Energy =       0.0000000000000000
    Empirical Dispersion Energy =           0.0000000000000000
    PCM Polarization Energy =               0.0000000000000000
    EFP Energy =                            0.0000000000000000
    Total Energy =                       -193.1909585047011149
    Molecular point group: c1
  Basis Set: CC-PVTZ
  Basis Set:

  -Total Gradient:
     Atom            X                  Y                   Z
    ------   -----------------  -----------------  -----------------
       1       -0.000346334601     0.000164089310     0.000101780453
       2        0.000453955945    -0.000271002582    -0.000047270337
       3       -0.000206359293     0.000220159554    -0.000261719168
       4        0.000083692922    -0.000129472903     0.000209886255
       5        0.000007311009     0.000000876217    -0.000000011576
       6        0.000005966721     0.000006870817     0.000002818797
       7       -0.000000154600     0.000006693263    -0.000006626337
       8       -0.000000513244    -0.000002594307     0.000003187797
       9        0.000009421999     0.000006131758    -0.000001537556
      10       -0.000002680265    -0.000003149808    -0.000002919810
      11       -0.000004883589    -0.000000906845     0.000001196670
      12        0.000000576993     0.000002305526     0.000001214812

  **** Optimization is complete! (in 6 steps) ****
    Final optimized geometry and variables:
    Molecular point group: c1

    Geometry (in Angstrom), charge = 0, multiplicity = 1:

    H           -1.599610703309    -0.489489673342    -1.079018828503
    O           -1.400575214996    -0.600046376794    -0.167126657187
    C           -0.724780090882     0.531329755155     0.314958658194
    C            0.689133897169     0.662553906255    -0.230984467282
    H           -1.290816479715     1.433009888581     0.095651885563
    H           -0.696457657202     0.423335454824     1.392059086028
    C            1.596170802700    -0.504736498187     0.142319470716
    H            0.642878280289     0.761013778342    -1.313520315877
    H            1.110304332295     1.592313742752     0.141805176816
    H            1.191344148567    -1.441763965684    -0.217022837537
    H            2.585824294460    -0.378700286078    -0.281211403325
    H            1.703779643105    -0.582104707110     1.219238706003

  Mulliken Charges: (a.u.)
   Center  Symbol    Alpha    Beta     Spin     Total
       1     H     0.39453  0.39453  0.00000  0.21094
       2     O     4.20378  4.20378  0.00000 -0.40756
       3     C     2.97493  2.97493  0.00000  0.05014
       4     C     3.08901  3.08901  0.00000 -0.17803
       5     H     0.46200  0.46200  0.00000  0.07599
       6     H     0.45972  0.45972  0.00000  0.08055
       7     C     3.14581  3.14581  0.00000 -0.29162
       8     H     0.46024  0.46024  0.00000  0.07952
       9     H     0.45508  0.45508  0.00000  0.08984
      10     H     0.44804  0.44804  0.00000  0.10392
      11     H     0.45060  0.45060  0.00000  0.09880
      12     H     0.45625  0.45625  0.00000  0.08750

   Total alpha = 17.00000, Total beta = 17.00000, Total charge =  0.00000
