                              Psi4 1.0.54 Driver

  ==> Input File <==

--------------------------------------------------------------------------
set {
	reference rhf
	basis cc-pvtz
}

set_num_threads( 4 )
memory 2 gb

molecule MOL {
0 1

H	 5.202503	 1.450952	 -0.419221
C	 4.483306	 1.171564	 -1.180512
C	 3.153664	 0.759414	 -0.558009
H	 4.355483	 2.021106	 -1.842446
H	 4.913651	 0.361765	 -1.760881
C	 2.117600	 0.348112	 -1.601739
H	 2.765293	 1.581239	 0.032507
H	 3.319580	 -0.068526	 0.127418
C	 0.778215	 -0.075669	 -1.007312
H	 1.953912	 1.166486	 -2.291884
H	 2.510279	 -0.481507	 -2.182531
C	 -0.049851	 1.061901	 -0.433966
H	 0.164031	 -0.538816	 -1.775452
H	 0.914829	 -0.834958	 -0.242894
C	 -1.180025	 0.697761	 0.509157
O	 0.160421	 2.195212	 -0.724939
C	 -2.285431	 -0.137488	 -0.145671
H	 -1.588139	 1.625139	 0.887642
H	 -0.762591	 0.148163	 1.348732
C	 -3.646545	 0.082747	 0.508954
H	 -2.348635	 0.118247	 -1.199806
H	 -2.034895	 -1.192387	 -0.096473
C	 -4.757412	 -0.737227	 -0.138149
H	 -3.900211	 1.137405	 0.459735
H	 -3.580878	 -0.166775	 1.564416
H	 -4.867876	 -0.486707	 -1.187777
H	 -4.549650	 -1.800049	 -0.072540
H	 -5.709585	 -0.556397	 0.346597

	symmetry c1
}
set optking {
	frozen_dihedral = ("
		12 15 17 21
	")
}

ee,wfn = optimize('scf', return_wfn=True)
oeprop( wfn, 'DIPOLE', 'QUADRUPOLE', 'MULLIKEN_CHARGES')
f=open( 'psi4out.xyz', 'w' )
f.write( "28  " )
f.write( str(ee) + "\n" )
f.write( MOL.save_string_xyz() )
f.close()
--------------------------------------------------------------------------

    Molecular point group: c1
  Charge       = 0
  Multiplicity = 1
  Basis Set: CC-PVTZ
  Basis Set:
  @DF-RHF Final Energy:  -426.31780706039820
    Total Energy =                       -426.3178070603983087
    Molecular point group: c1
  Basis Set: CC-PVTZ
  Basis Set:
  Basis Set: CC-PVTZ
  Basis Set:
  @DF-RHF Final Energy:  -426.31764273876649
    Total Energy =                       -426.3176427387659260
  Basis Set: CC-PVTZ
  Basis Set:
  Basis Set: CC-PVTZ
  Basis Set:
  @DF-RHF Final Energy:  -426.31649840709144
    Total Energy =                       -426.3164984070917853
  Basis Set: CC-PVTZ
  Basis Set:
  Basis Set: CC-PVTZ
  Basis Set:
  @DF-RHF Final Energy:  -426.31801860893620
    Total Energy =                       -426.3180186089357449
  Basis Set: CC-PVTZ
  Basis Set:
  @DF-RHF Final Energy:  -426.31801219854060
    Total Energy =                       -426.3180121985401456
  @DF-RHF Final Energy:  -426.31814901118503
    Total Energy =                       -426.3181490111853691
  @DF-RHF Final Energy:  -426.31816670786429
    Total Energy =                       -426.3181667078642931
  @DF-RHF Final Energy:  -426.31812073115407
    Total Energy =                       -426.3181207311539538
  @DF-RHF Final Energy:  -426.31819966302203
    Total Energy =                       -426.3181996630212325
  Basis Set: CC-PVTZ
  Basis Set:
  @DF-RHF Final Energy:  -426.31820060300947
    Total Energy =                       -426.3182006030097000
  Basis Set: CC-PVTZ
  Basis Set:
  Basis Set: CC-PVTZ
  Basis Set:
  @DF-RHF Final Energy:  -426.31821084570777
    Total Energy =                       -426.3182108457077675
  Basis Set: CC-PVTZ
  Basis Set:
  Basis Set: CC-PVTZ
  Basis Set:
  @DF-RHF Final Energy:  -426.31821996437691
    Total Energy =                       -426.3182199643773629
  Basis Set: CC-PVTZ
  Basis Set:
  Charge       = 0
  Multiplicity = 1
  Basis Set: CC-PVTZ
  Basis Set:

    Orbital Energies (a.u.)
    -----------------------

    Doubly Occupied:

       1A    -20.536502     2A    -11.316917     3A    -11.229142
       4A    -11.228801     5A    -11.226205     6A    -11.222303
       7A    -11.214580     8A    -11.212637     9A    -11.208979
      10A    -11.202967    11A     -1.396843    12A     -1.093469
      13A     -1.078328    14A     -1.023280    15A     -0.991047
      16A     -0.908911    17A     -0.871032    18A     -0.808371
      19A     -0.798365    20A     -0.726473    21A     -0.673390
      22A     -0.644348    23A     -0.634342    24A     -0.618422
      25A     -0.608678    26A     -0.588800    27A     -0.576960
      28A     -0.574027    29A     -0.539013    30A     -0.534671
      31A     -0.525906    32A     -0.508675    33A     -0.500948
      34A     -0.481837    35A     -0.477779    36A     -0.474080
      37A     -0.469719    38A     -0.464664    39A     -0.456332
      40A     -0.394033

  @DF-RHF Final Energy:  -426.31822095644065

   => Energetics <=

    Nuclear Repulsion Energy =            531.1330873847048224
    One-Electron Energy =               -1630.8190647969408928
    Two-Electron Energy =                 673.3677564557949609
    DFT Exchange-Correlation Energy =       0.0000000000000000
    Empirical Dispersion Energy =           0.0000000000000000
    PCM Polarization Energy =               0.0000000000000000
    EFP Energy =                            0.0000000000000000
    Total Energy =                       -426.3182209564411096
    Molecular point group: c1
  Basis Set: CC-PVTZ
  Basis Set:

  -Total Gradient:
     Atom            X                  Y                   Z
    ------   -----------------  -----------------  -----------------
       1        0.000136023670     0.000092466203     0.000082583702
       2       -0.000071788226    -0.000032363680     0.000048401724
       3        0.000070802289     0.000012632767    -0.000031919146
       4       -0.000044039505     0.000101337540    -0.000143730218
       5        0.000010400711    -0.000077522767    -0.000006775112
       6       -0.000105614986    -0.000010642577     0.000038497145
       7        0.000003518089     0.000066402535     0.000008509943
       8        0.000050056990    -0.000084277716     0.000132593865
       9        0.000066373824     0.000020940638    -0.000044236251
      10       -0.000050126209     0.000087663384    -0.000149377394
      11       -0.000006228527    -0.000081332462    -0.000008077022
      12       -0.000977284473     0.002434775085    -0.000174084822
      13       -0.000119307614    -0.000151782429    -0.000096570464
      14        0.000074686250    -0.000072801822     0.000164739611
      15        0.001818008069    -0.004083744979     0.000151703936
      16        0.000032064160     0.000261618616    -0.000109180895
      17       -0.002904153462     0.004404473667     0.001419913226
      18       -0.000006405320     0.000082484221     0.000013185103
      19       -0.000006729863    -0.000081237697     0.000084766722
      20        0.000078654856    -0.000001764113    -0.000035923067
      21        0.002028057807    -0.002783062447    -0.001343453932
      22       -0.000014557215    -0.000130223208    -0.000028488470
      23       -0.000064702462     0.000011854364     0.000025100018
      24       -0.000006468794     0.000138080298     0.000016192523
      25        0.000022435181    -0.000050982481     0.000099445007
      26       -0.000016215473     0.000053482302    -0.000108955359
      27        0.000004916828    -0.000137645697    -0.000011527852
      28       -0.000002376590     0.000011172456     0.000006667480

  **** Optimization is complete! (in 13 steps) ****
    Final optimized geometry and variables:
    Molecular point group: c1

    Geometry (in Angstrom), charge = 0, multiplicity = 1:

    H            5.311663954795     1.192405539190    -0.596883366827
    C            4.542446515024     0.659033345066    -1.143923297812
    C            3.365302745477     0.309570907866    -0.239744541618
    H            4.225800829570     1.289392577949    -1.968112874768
    H            4.994440888200    -0.233644389116    -1.564726936016
    C            2.266962674999    -0.456758543715    -0.974592735264
    H            2.951928411752     1.218550544316     0.179710344624
    H            3.720221021224    -0.290034781360     0.595646312346
    C            1.072516278814    -0.819777734384    -0.098695860773
    H            1.921899982480     0.127219670874    -1.820043783787
    H            2.686382146477    -1.374758670156    -1.376469379801
    C            0.139901762753     0.328219875510     0.236095575967
    H            0.462567379448    -1.579878955506    -0.582448901749
    H            1.399188815392    -1.267272742284     0.837010964781
    C           -1.054256960442     0.008756914266     1.115440698543
    O            0.296449250767     1.424268256892    -0.196485370980
    C           -2.249181755638    -0.502640054991     0.288420410296
    H           -1.325057960469     0.933298647467     1.608669595171
    H           -0.791361979479    -0.716601954009     1.876890534031
    C           -3.593541044886    -0.224626439418     0.952392077056
    H           -2.222760475075    -0.059894809480    -0.702457402236
    H           -2.145448400337    -1.573125439269     0.132627785781
    C           -4.772554583133    -0.786592958111     0.165546168803
    H           -3.714864958736     0.847660776636     1.071941892881
    H           -3.592182106098    -0.646600392925     1.954034362711
    H           -4.814219099010    -0.362039212319    -0.831988131807
    H           -4.698652572457    -1.864321497652     0.063251304706
    H           -5.711870197477    -0.565091599261     0.658489996678

  Mulliken Charges: (a.u.)
   Center  Symbol    Alpha    Beta     Spin     Total
       1     H     0.44877  0.44877  0.00000  0.10245
       2     C     3.15163  3.15163  0.00000 -0.30326
       3     C     3.08347  3.08347  0.00000 -0.16694
       4     H     0.45223  0.45223  0.00000  0.09555
       5     H     0.45736  0.45736  0.00000  0.08529
       6     C     3.08773  3.08773  0.00000 -0.17547
       7     H     0.44366  0.44366  0.00000  0.11269
       8     H     0.45891  0.45891  0.00000  0.08217
       9     C     3.12582  3.12582  0.00000 -0.25165
      10     H     0.44635  0.44635  0.00000  0.10730
      11     H     0.44811  0.44811  0.00000  0.10378
      12     C     2.86940  2.86940  0.00000  0.26121
      13     H     0.43399  0.43399  0.00000  0.13201
      14     H     0.44313  0.44313  0.00000  0.11373
      15     C     3.09398  3.09398  0.00000 -0.18796
      16     O     4.18111  4.18111  0.00000 -0.36222
      17     C     3.09657  3.09657  0.00000 -0.19314
      18     H     0.43949  0.43949  0.00000  0.12103
      19     H     0.44617  0.44617  0.00000  0.10766
      20     C     3.08475  3.08475  0.00000 -0.16950
      21     H     0.44513  0.44513  0.00000  0.10974
      22     H     0.45348  0.45348  0.00000  0.09304
      23     C     3.14989  3.14989  0.00000 -0.29977
      24     H     0.44952  0.44952  0.00000  0.10096
      25     H     0.45371  0.45371  0.00000  0.09257
      26     H     0.45306  0.45306  0.00000  0.09387
      27     H     0.45545  0.45545  0.00000  0.08911
      28     H     0.44712  0.44712  0.00000  0.10576

   Total alpha = 40.00000, Total beta = 40.00000, Total charge = -0.00000

*** Psi4 exiting successfully. Buy a developer a beer!
