  ==> Input File <==

--------------------------------------------------------------------------
set {
	reference rhf
	basis 6-31G*
}

set_num_threads( 1 )
memory 2 gb

molecule MOL {
0 1

H	 -2.301168	 -0.437071	 -1.638369
O	 -2.295932	 -0.261795	 -0.707972
C	 -1.162850	 0.495433	 -0.376731
C	 0.094020	 -0.356391	 -0.395123
H	 -1.038814	 1.344439	 -1.043187
H	 -1.323089	 0.880674	 0.620446
O	 1.171513	 0.459272	 -0.058250
H	 0.237366	 -0.791239	 -1.386254
H	 -0.011944	 -1.179160	 0.309438
C	 2.397842	 -0.198080	 -0.002151
H	 2.508049	 -0.905315	 -0.822092
H	 3.173794	 0.550865	 -0.078850
H	 2.517602	 -0.735921	 0.936026

	symmetry c1
}
set optking {
	frozen_dihedral = ("
		8 4 3 5,
		1 2 3 5,
		10 7 4 8
	")
}

ee = energy('scf')
oeprop('DIPOLE', 'QUADRUPOLE', 'MULLIKEN_CHARGES')
f=open( 'psi4out.xyz', 'w' )
f.write( "13  " )
f.write( str(ee) + "\n" )
f.write( MOL.save_string_xyz() )
f.close()
--------------------------------------------------------------------------

    Molecular point group: c1

    Geometry (in Angstrom), charge = 0, multiplicity = 1:

       Center              X                  Y                   Z               Mass
    ------------   -----------------  -----------------  -----------------  -----------------
           H         -2.324236168688    -0.452422049594    -1.313976505620     1.007825032070
           O         -2.319000168688    -0.277146049594    -0.383579505620    15.994914619560
           C         -1.185918168688     0.480081950406    -0.052338505620    12.000000000000
           C          0.070951831312    -0.371742049594    -0.070730505620    12.000000000000
           H         -1.061882168688     1.329087950406    -0.718794505620     1.007825032070
           H         -1.346157168688     0.865322950406     0.944838494380     1.007825032070
           O          1.148444831312     0.443920950406     0.266142494380    15.994914619560
           H          0.214297831312    -0.806590049594    -1.061861505620     1.007825032070
           H         -0.035012168688    -1.194511049594     0.633830494380     1.007825032070
           C          2.374773831312    -0.213431049594     0.322241494380    12.000000000000
           H          2.484980831312    -0.920666049594    -0.497699505620     1.007825032070
           H          3.150725831312     0.535513950406     0.245542494380     1.007825032070
           H          2.494533831312    -0.751272049594     1.260418494380     1.007825032070

  Charge       = 0
  Multiplicity = 1
  Basis Set: 6-31G*
  Basis Set:

    Orbital Energies (a.u.)
    -----------------------

    Doubly Occupied:

       1A    -20.561801     2A    -20.560148     3A    -11.271029
       4A    -11.270070     5A    -11.268912     6A     -1.388713
       7A     -1.365197     8A     -1.018469     9A     -0.913309
      10A     -0.842204    11A     -0.709274    12A     -0.674020
      13A     -0.660776    14A     -0.636604    15A     -0.596830
      16A     -0.567831    17A     -0.547100    18A     -0.488831
      19A     -0.482743    20A     -0.438496    21A     -0.420855

  @DF-RHF Final Energy:  -267.94968069955178

   => Energetics <=

    Nuclear Repulsion Energy =            190.2530771984156956
    One-Electron Energy =                -743.0391131635203692
    Two-Electron Energy =                 284.8363552655532658
    DFT Exchange-Correlation Energy =       0.0000000000000000
    Empirical Dispersion Energy =           0.0000000000000000
    PCM Polarization Energy =               0.0000000000000000
    EFP Energy =                            0.0000000000000000
    Total Energy =                       -267.9496806995514362

  Mulliken Charges: (a.u.)
   Center  Symbol    Alpha    Beta     Spin     Total
       1     H     0.28130  0.28130  0.00000  0.43741
       2     O     4.37081  4.37081  0.00000 -0.74162
       3     C     3.00480  3.00480  0.00000 -0.00960
       4     C     2.99704  2.99704  0.00000  0.00591
       5     H     0.42232  0.42232  0.00000  0.15536
       6     H     0.40839  0.40839  0.00000  0.18321
       7     O     4.30782  4.30782  0.00000 -0.61563
       8     H     0.43706  0.43706  0.00000  0.12587
       9     H     0.42353  0.42353  0.00000  0.15293
      10     C     3.07919  3.07919  0.00000 -0.15839
      11     H     0.43011  0.43011  0.00000  0.13978
      12     H     0.41206  0.41206  0.00000  0.17588
      13     H     0.42556  0.42556  0.00000  0.14888

   Total alpha = 21.00000, Total beta = 21.00000, Total charge =  0.00000
