  ==> Input File <==

--------------------------------------------------------------------------
set {
	reference rhf
	basis 6-31G*
}

set_num_threads( 4 )
memory 2 gb

molecule MOL {
0 1

H	 -3.892951	 0.981613	 -0.358725
C	 -3.196921	 0.361773	 0.172313
C	 -2.076860	 -0.007332	 -0.404944
H	 -3.439953	 0.057760	 1.173024
O	 -0.903330	 -0.074749	 0.277069
H	 -2.024005	 -0.295446	 -1.440025
C	 0.261148	 -0.301102	 -0.440292
C	 0.856686	 0.987434	 -0.961161
H	 0.103810	 -0.965166	 -1.282883
H	 0.978949	 -0.750437	 0.230040
F	 1.983692	 0.723153	 -1.606002
F	 0.043262	 1.597109	 -1.807606
F	 1.133271	 1.832955	 0.009913

	symmetry c1
}
set optking {
	frozen_dihedral = ("
		6 3 2 1
	")
}

ee = optimize('scf')
oeprop('DIPOLE', 'QUADRUPOLE', 'MULLIKEN_CHARGES')
f=open( 'psi4out.xyz', 'w' )
f.write( "13  " )
f.write( str(ee) + "\n" )
f.write( MOL.save_string_xyz() )
f.close()
--------------------------------------------------------------------------

    Molecular point group: c1
  Charge       = 0
  Multiplicity = 1
  Basis Set: 6-31G*
  Basis Set:
  @DF-RHF Final Energy:  -527.49995618593152
    Total Energy =                       -527.4999561859315236
    Molecular point group: c1
  Basis Set: 6-31G*
  Basis Set:
  Basis Set: 6-31G*
  Basis Set:
  @DF-RHF Final Energy:  -527.51685925902575
    Total Energy =                       -527.5168592590256367
  Basis Set: 6-31G*
  Basis Set:
  Basis Set: 6-31G*
  Basis Set:
  @DF-RHF Final Energy:  -527.52354697496003
    Total Energy =                       -527.5235469749604817
  Basis Set: 6-31G*
  Basis Set:
  Basis Set: 6-31G*
  Basis Set:
  @DF-RHF Final Energy:  -527.52381587898003
    Total Energy =                       -527.5238158789800309
  Basis Set: 6-31G*
  Basis Set:
  @DF-RHF Final Energy:  -527.52386464949939
    Total Energy =                       -527.5238646494987051
  @DF-RHF Final Energy:  -527.52390306855000
    Total Energy =                       -527.5239030685503394
  @DF-RHF Final Energy:  -527.52391486335398
    Total Energy =                       -527.5239148633542072
  @DF-RHF Final Energy:  -527.52145724683419
    Total Energy =                       -527.5214572468345295
  @DF-RHF Final Energy:  -527.52268496759211
    Total Energy =                       -527.5226849675918857
  @DF-RHF Final Energy:  -527.52393051827403
    Total Energy =                       -527.5239305182738008
  @DF-RHF Final Energy:  -527.52394571576542
    Total Energy =                       -527.5239457157651941
  @DF-RHF Final Energy:  -527.52395040208773
    Total Energy =                       -527.5239504020876211
  @DF-RHF Final Energy:  -527.52395084512432
    Total Energy =                       -527.5239508451243182
  @DF-RHF Final Energy:  -527.52395092116444
    Total Energy =                       -527.5239509211644418
  @DF-RHF Final Energy:  -527.52369428642555
    Total Energy =                       -527.5236942864254388
  @DF-RHF Final Energy:  -527.52195110761772
    Total Energy =                       -527.5219511076174967
  @DF-RHF Final Energy:  -527.52209695506167
    Total Energy =                       -527.5220969550616701
  @DF-RHF Final Energy:  -527.52291918366245
    Total Energy =                       -527.5229191836622249
  @DF-RHF Final Energy:  -527.52387421712478
    Total Energy =                       -527.5238742171247850
  @DF-RHF Final Energy:  -527.52390260829998
    Total Energy =                       -527.5239026082997498
  @DF-RHF Final Energy:  -527.52349133139478
    Total Energy =                       -527.5234913313943252
  @DF-RHF Final Energy:  -527.52382257230875
    Total Energy =                       -527.5238225723085179
  @DF-RHF Final Energy:  -527.52389194570753
    Total Energy =                       -527.5238919457076463
  @DF-RHF Final Energy:  -527.52391816666841
    Total Energy =                       -527.5239181666686363
  @DF-RHF Final Energy:  -527.52393330437337
    Total Energy =                       -527.5239333043735996
  @DF-RHF Final Energy:  -527.52393859296035
    Total Energy =                       -527.5239385929601212
  @DF-RHF Final Energy:  -527.47805466308000
    Total Energy =                       -527.4780546630804565
  @DF-RHF Final Energy:  -527.51983446517102
    Total Energy =                       -527.5198344651714706
  @DF-RHF Final Energy:  -527.52355491537674
    Total Energy =                       -527.5235549153773036
  @DF-RHF Final Energy:  -527.52392847005729
    Total Energy =                       -527.5239284700568305
  @DF-RHF Final Energy:  -527.52393974623317
    Total Energy =                       -527.5239397462328270
  @DF-RHF Final Energy:  -527.52394166850536
    Total Energy =                       -527.5239416685053584
  @DF-RHF Final Energy:  -527.52394246535709
    Total Energy =                       -527.5239424653575497
  @DF-RHF Final Energy:  -527.52394284518755
    Total Energy =                       -527.5239428451878894
  @DF-RHF Final Energy:  -527.52394316801553
    Total Energy =                       -527.5239431680154212
  @DF-RHF Final Energy:  -527.52394316287325
    Total Energy =                       -527.5239431628729108
  Basis Set: 6-31G*
  Basis Set:
  @DF-RHF Final Energy:  -527.52394316398454
    Total Energy =                       -527.5239431639849954
  Basis Set: 6-31G*
  Basis Set:
  Basis Set: 6-31G*
  Basis Set:
  @DF-RHF Final Energy:  -527.52394325842965
    Total Energy =                       -527.5239432584295400
  Basis Set: 6-31G*
  Basis Set:
  Basis Set: 6-31G*
  Basis Set:
  @DF-RHF Final Energy:  -527.52394275476581
    Total Energy =                       -527.5239427547658124
  Basis Set: 6-31G*
  Basis Set:
  Charge       = 0
  Multiplicity = 1
  Basis Set: 6-31G*
  Basis Set:

    Orbital Energies (a.u.)
    -----------------------

    Doubly Occupied:

       1A    -26.345642     2A    -26.345062     3A    -26.340551
       4A    -20.607452     5A    -11.503369     6A    -11.318605
       7A    -11.303239     8A    -11.217764     9A     -1.743355
      10A     -1.641529    11A     -1.639129    12A     -1.437410
      13A     -1.085220    14A     -1.015304    15A     -0.925794
      16A     -0.837571    17A     -0.832558    18A     -0.823799
      19A     -0.791445    20A     -0.723689    21A     -0.712117
      22A     -0.698540    23A     -0.675383    24A     -0.660007
      25A     -0.654625    26A     -0.643910    27A     -0.629378
      28A     -0.590165    29A     -0.563246    30A     -0.520335
      31A     -0.509213    32A     -0.351093

  @DF-RHF Final Energy:  -527.52388428616359

   => Energetics <=

    Nuclear Repulsion Energy =            412.4951544665879624
    One-Electron Energy =               -1548.6650733645069522
    Two-Electron Energy =                 608.6460346117557947
    DFT Exchange-Correlation Energy =       0.0000000000000000
    Empirical Dispersion Energy =           0.0000000000000000
    PCM Polarization Energy =               0.0000000000000000
    EFP Energy =                            0.0000000000000000
    Total Energy =                       -527.5238842861631383
    Molecular point group: c1
  Basis Set: 6-31G*
  Basis Set:

  -Total Gradient:
     Atom            X                  Y                   Z
    ------   -----------------  -----------------  -----------------
       1        0.003000973342     0.016819583705     0.007693106048
       2       -0.004044882673    -0.032600248506    -0.008883027875
       3       -0.003872670733     0.036626076757    -0.001119626139
       4        0.000852016246    -0.000372727862    -0.000682947620
       5        0.000467558408    -0.000264379585    -0.001127492219
       6        0.004168576435    -0.019795320992     0.003311827463
       7        0.000871953528     0.000432994270     0.002543897913
       8        0.000661477896     0.000526406544    -0.001480344932
       9       -0.000891175400    -0.000617990693    -0.000893658220
      10        0.000500160773     0.000626514105    -0.000491813177
      11       -0.000801060220     0.000527668290     0.001685562436
      12       -0.000091710657     0.000365119942     0.000653793541
      13       -0.000821216947    -0.002273695979    -0.001209277220

    Molecular point group: c1

    Geometry (in Angstrom), charge = 0, multiplicity = 1:

    H           -4.121989411286    -0.210610599511     0.387855318299
    C           -3.215237450587    -0.562396353270     0.843458854087
    C           -2.057820494305    -0.477185768846     0.214653390628
    H           -3.214957819055    -0.589838778354     1.919365128060
    O           -0.893958737689    -0.550991090922     0.919450457649
    H           -1.933484949273    -0.669765541850    -0.836328552293
    C            0.258722463453    -0.948221699817     0.256573095627
    C            1.000951562417     0.238735523706    -0.314066971573
    H            0.056317425028    -1.643338953647    -0.550060092027
    H            0.906226311266    -1.429343622749     0.975086080322
    F            2.107427562807    -0.177025727831    -0.912352150361
    F            0.276828897268     0.884597969977    -1.213359107604
    F            1.344072590145     1.102070412739     0.619021187472

  Mulliken Charges: (a.u.)
   Center  Symbol    Alpha    Beta     Spin     Total
       1     H     0.40611  0.40611  0.00000  0.18778
       2     C     3.23080  3.23080  0.00000 -0.46159
       3     C     2.89840  2.89840  0.00000  0.20320
       4     H     0.40530  0.40530  0.00000  0.18940
       5     O     4.30037  4.30037  0.00000 -0.60074
       6     H     0.40734  0.40734  0.00000  0.18532
       7     C     3.06555  3.06555  0.00000 -0.13111
       8     C     2.45595  2.45595  0.00000  1.08810
       9     H     0.40482  0.40482  0.00000  0.19037
      10     H     0.38931  0.38931  0.00000  0.22139
      11     F     4.68212  4.68212  0.00000 -0.36424
      12     F     4.67976  4.67976  0.00000 -0.35952
      13     F     4.67418  4.67418  0.00000 -0.34836

   Total alpha = 32.00000, Total beta = 32.00000, Total charge =  0.00000
