  ==> Input File <==

--------------------------------------------------------------------------
set {
	reference rhf
	basis 6-31G*
}

set_num_threads( 4 )
memory 2 gb

molecule MOL {
0 1

H	 -2.798360	 -0.862255	 -0.071053
N	 -1.863561	 -0.715187	 0.256814
C	 -1.344686	 0.554728	 -0.219830
H	 -1.300452	 -1.461917	 -0.101532
C	 0.081427	 0.741154	 0.254071
H	 -1.362155	 0.656231	 -1.305829
H	 -1.952773	 1.354456	 0.191809
O	 0.874168	 -0.245412	 -0.342030
H	 0.444037	 1.730782	 -0.023037
H	 0.121165	 0.653424	 1.337565
C	 2.219899	 -0.190787	 0.009530
H	 2.727139	 -0.993293	 -0.508534
H	 2.669712	 0.756167	 -0.283604
H	 2.356453	 -0.320620	 1.081120

	symmetry c1
}
set optking {
	frozen_dihedral = ("
		11 8 5 3
	")
}

ee = optimize('scf')
oeprop('DIPOLE', 'QUADRUPOLE', 'MULLIKEN_CHARGES')
f=open( 'psi4out.xyz', 'w' )
f.write( "14  " )
f.write( str(ee) + "\n" )
f.write( MOL.save_string_xyz() )
f.close()
--------------------------------------------------------------------------

    Molecular point group: c1
  Charge       = 0
  Multiplicity = 1
  Basis Set: 6-31G*
  Basis Set:
  @DF-RHF Final Energy:  -248.12523060893335
    Total Energy =                       -248.1252306089332933
    Molecular point group: c1
  Basis Set: 6-31G*
  Basis Set:
  Charge       = 0
  Multiplicity = 1
  Basis Set: 6-31G*
  Basis Set:

    Orbital Energies (a.u.)
    -----------------------

    Doubly Occupied:

       1A    -20.557526     2A    -15.528360     3A    -11.266360
       4A    -11.265695     5A    -11.240831     6A     -1.381609
       7A     -1.173481     8A     -0.999052     9A     -0.907351
      10A     -0.815190    11A     -0.683566    12A     -0.674442
      13A     -0.645315    14A     -0.609595    15A     -0.605778
      16A     -0.540784    17A     -0.530234    18A     -0.496875
      19A     -0.472803    20A     -0.417615    21A     -0.380009

  @DF-RHF Final Energy:  -248.12523231149333

   => Energetics <=

    Nuclear Repulsion Energy =            194.6111728853237537
    One-Electron Energy =                -723.0878694570532161
    Two-Electron Energy =                 280.3514642602359572
    DFT Exchange-Correlation Energy =       0.0000000000000000
    Empirical Dispersion Energy =           0.0000000000000000
    PCM Polarization Energy =               0.0000000000000000
    EFP Energy =                            0.0000000000000000
    Total Energy =                       -248.1252323114935052
    Molecular point group: c1
  Basis Set: 6-31G*
  Basis Set:

  -Total Gradient:
     Atom            X                  Y                   Z
    ------   -----------------  -----------------  -----------------
       1       -0.000012019578    -0.000013286410     0.000003265855
       2        0.000022912673    -0.000036085546     0.000001726466
       3        0.000114750571     0.000321318118    -0.000380081414
       4       -0.000009082444    -0.000033344802     0.000004679453
       5       -0.000034491916    -0.000197173598     0.000388965618
       6       -0.000045679480    -0.000004689696    -0.000016167925
       7        0.000017680304     0.000011081678    -0.000010069459
       8       -0.000075897661    -0.000260609909     0.000312263718
       9        0.000006864607    -0.000062208441    -0.000023135036
      10       -0.000009804964     0.000017968305     0.000042935016
      11        0.000044155121     0.000230747016    -0.000293651666
      12       -0.000001710972     0.000008167948    -0.000015303217
      13       -0.000048153089     0.000006123510    -0.000021577121
      14        0.000030476823     0.000011991828     0.000006149712

  **** Optimization is complete! (in 2 steps) ****
    Final optimized geometry and variables:
    Molecular point group: c1

    Geometry (in Angstrom), charge = 0, multiplicity = 1:

    H           -2.801806662070    -0.874131581729    -0.060224542024
    N           -1.867659309979    -0.726788280897     0.269306665987
    C           -1.347988596595     0.543693416405    -0.205547763256
    H           -1.303886237659    -1.473704868649    -0.087639148856
    C            0.078125687750     0.729969186243     0.268498618188
    H           -1.364959707656     0.646553098011    -1.291396681513
    H           -1.956016274448     1.342987224500     0.206925077265
    O            0.870232423027    -0.256605170245    -0.328134456499
    H            0.439231712985     1.719348320633    -0.011469472471
    H            0.120508326430     0.644406018009     1.352095679046
    C            2.215919419319    -0.202275472506     0.023372943004
    H            2.722985725052    -1.005095731391    -0.494286503605
    H            2.664565707061     0.744764895860    -0.270982292505
    H            2.353537184222    -0.331189176490     1.095026010433

  Mulliken Charges: (a.u.)
   Center  Symbol    Alpha    Beta     Spin     Total
       1     H     0.33286  0.33286  0.00000  0.33429
       2     N     3.92530  3.92530  0.00000 -0.85059
       3     C     3.06872  3.06872  0.00000 -0.13744
       4     H     0.32360  0.32360  0.00000  0.35281
       5     C     2.99011  2.99011  0.00000  0.01978
       6     H     0.42676  0.42676  0.00000  0.14648
       7     H     0.42048  0.42048  0.00000  0.15904
       8     O     4.30964  4.30964  0.00000 -0.61929
       9     H     0.43136  0.43136  0.00000  0.13727
      10     H     0.42226  0.42226  0.00000  0.15548
      11     C     3.07893  3.07893  0.00000 -0.15786
      12     H     0.41243  0.41243  0.00000  0.17513
      13     H     0.42985  0.42985  0.00000  0.14030
      14     H     0.42770  0.42770  0.00000  0.14460

   Total alpha = 21.00000, Total beta = 21.00000, Total charge =  0.00000
