  ==> Input File <==

--------------------------------------------------------------------------
set {
	reference rhf
	basis 6-31G*
}

set_num_threads( 4 )
memory 2 gb

molecule MOL {
0 1

H	 -3.161837	 0.500524	 -0.000234
C	 -2.367097	 -0.232926	 -0.000000
O	 -1.158440	 0.455814	 -0.000122
H	 -2.468853	 -0.861886	 -0.882833
H	 -2.468942	 -0.861421	 0.883154
C	 -0.557556	 0.560814	 -1.255426
C	 0.744434	 1.329688	 -1.112892
H	 -1.225429	 1.072527	 -1.949685
H	 -0.367944	 -0.432230	 -1.665083
C	 1.474759	 1.494308	 -2.444960
H	 0.524645	 2.302150	 -0.683156
H	 1.376195	 0.807941	 -0.400602
H	 0.868241	 2.036253	 -3.165276
H	 2.399774	 2.045669	 -2.313832
H	 1.725269	 0.531302	 -2.881157

	symmetry c1
}
set optking {
	frozen_dihedral = ("
		6 3 2 4
	")
}

ee = optimize('scf')
oeprop('DIPOLE', 'QUADRUPOLE', 'MULLIKEN_CHARGES')
f=open( 'psi4out.xyz', 'w' )
f.write( "15  " )
f.write( str(ee) + "\n" )
f.write( MOL.save_string_xyz() )
f.close()
--------------------------------------------------------------------------

    Molecular point group: c1
  Charge       = 0
  Multiplicity = 1
  Basis Set: 6-31G*
  Basis Set:
  @DF-RHF Final Energy:  -232.13568575270631
    Total Energy =                       -232.1356857527061948
    Molecular point group: c1
  Basis Set: 6-31G*
  Basis Set:
  Basis Set: 6-31G*
  Basis Set:
  @DF-RHF Final Energy:  -232.13631239366779
    Total Energy =                       -232.1363123936678221
  Basis Set: 6-31G*
  Basis Set:
  Basis Set: 6-31G*
  Basis Set:
  @DF-RHF Final Energy:  -232.13646401729869
    Total Energy =                       -232.1364640172985219
  Basis Set: 6-31G*
  Basis Set:
  Charge       = 0
  Multiplicity = 1
  Basis Set: 6-31G*
  Basis Set:

    Orbital Energies (a.u.)
    -----------------------

    Doubly Occupied:

       1A    -20.550334     2A    -11.266671     3A    -11.263560
       4A    -11.213816     5A    -11.212716     6A     -1.374223
       7A     -1.056945     8A     -0.955303     9A     -0.877342
      10A     -0.808862    11A     -0.671639    12A     -0.652345
      13A     -0.629932    14A     -0.607198    15A     -0.564586
      16A     -0.544490    17A     -0.502094    18A     -0.488881
      19A     -0.478578    20A     -0.460658    21A     -0.409041

  @DF-RHF Final Energy:  -232.13646498934949

   => Energetics <=

    Nuclear Repulsion Energy =            189.4761529507476610
    One-Electron Energy =                -690.0468081080067577
    Two-Electron Energy =                 268.4341901679096054
    DFT Exchange-Correlation Energy =       0.0000000000000000
    Empirical Dispersion Energy =           0.0000000000000000
    PCM Polarization Energy =               0.0000000000000000
    EFP Energy =                            0.0000000000000000
    Total Energy =                       -232.1364649893495198
    Molecular point group: c1
  Basis Set: 6-31G*
  Basis Set:

  -Total Gradient:
     Atom            X                  Y                   Z
    ------   -----------------  -----------------  -----------------
       1       -0.000012966227     0.000006222700     0.000003178087
       2        0.001891363065    -0.003274205923     0.001796426699
       3       -0.001906061261     0.003160687600    -0.000823205609
       4       -0.001080458993     0.002001235641    -0.001311749456
       5        0.000072220106     0.000017288922    -0.000008169037
       6        0.001077761231    -0.001960088386     0.000299147609
       7       -0.000025951818     0.000008700459     0.000034098794
       8       -0.000003336730     0.000002042142     0.000069355436
       9       -0.000012578810    -0.000001222160    -0.000031362805
      10       -0.000003676112     0.000026191557    -0.000017469482
      11        0.000028644589     0.000017085742     0.000003280260
      12       -0.000029096115    -0.000009839401    -0.000005309492
      13        0.000004304704    -0.000002955387    -0.000012501016
      14        0.000001322014     0.000006761731    -0.000008155405
      15       -0.000001489640     0.000002094765     0.000012435418

  **** Optimization is complete! (in 4 steps) ****
    Final optimized geometry and variables:
    Molecular point group: c1

    Geometry (in Angstrom), charge = 0, multiplicity = 1:

    H           -2.808367125193    -0.239180253751     0.990256751240
    C           -1.975705592989    -0.938037357956     0.969565967519
    O           -0.760551796928    -0.252100777225     0.943758171547
    H           -2.099956140923    -1.573867087138     0.097285081130
    H           -2.011821835856    -1.548852259523     1.862782637910
    C           -0.154654276780    -0.142299749170    -0.309935896067
    C            1.148249034900     0.622030293136    -0.153564457933
    H           -0.813358439514     0.377006457006    -1.006961784480
    H            0.035442736803    -1.133206090737    -0.722417760848
    C            1.890690744763     0.788572294591    -1.478825406584
    H            0.928318809550     1.593746707563     0.277746635778
    H            1.771556484162     0.095387509365     0.562553929814
    H            1.291675987052     1.333562086511    -2.203130474293
    H            2.815629312476     1.337814440743    -1.338366782041
    H            2.143083814972    -0.173803728100    -1.915391078678

  Mulliken Charges: (a.u.)
   Center  Symbol    Alpha    Beta     Spin     Total
       1     H     0.42523  0.42523  0.00000  0.14953
       2     C     3.07640  3.07640  0.00000 -0.15280
       3     O     4.30960  4.30960  0.00000 -0.61920
       4     H     0.43059  0.43059  0.00000  0.13882
       5     H     0.41635  0.41635  0.00000  0.16729
       6     C     2.98150  2.98150  0.00000  0.03700
       7     C     3.15993  3.15993  0.00000 -0.31987
       8     H     0.43364  0.43364  0.00000  0.13272
       9     H     0.43276  0.43276  0.00000  0.13449
      10     C     3.24794  3.24794  0.00000 -0.49588
      11     H     0.41433  0.41433  0.00000  0.17135
      12     H     0.41439  0.41439  0.00000  0.17122
      13     H     0.42091  0.42091  0.00000  0.15819
      14     H     0.41544  0.41544  0.00000  0.16913
      15     H     0.42099  0.42099  0.00000  0.15801

   Total alpha = 21.00000, Total beta = 21.00000, Total charge =  0.00000
