  ==> Input File <==

--------------------------------------------------------------------------
set {
	reference rhf
	basis 6-31G*
}

set_num_threads( 4 )
memory 2 gb

molecule MOL {
0 1

H	 -2.798360	 -0.862255	 -0.071053
N	 -1.863561	 -0.715187	 0.256814
C	 -1.344686	 0.554728	 -0.219830
H	 -1.300452	 -1.461917	 -0.101532
C	 0.081427	 0.741154	 0.254071
H	 -1.362155	 0.656231	 -1.305829
H	 -1.952773	 1.354456	 0.191809
O	 0.936427	 0.522119	 -0.831325
H	 0.220393	 1.749852	 0.642472
H	 0.296764	 0.034578	 1.052579
C	 2.290992	 0.578129	 -0.515749
H	 2.847484	 0.396653	 -1.425188
H	 2.568165	 1.554939	 -0.123323
H	 2.559582	 -0.177891	 0.219168

	symmetry c1
}
set optking {
	frozen_dihedral = ("
		8 5 3 6
	")
}

ee = optimize('scf')
oeprop('DIPOLE', 'QUADRUPOLE', 'MULLIKEN_CHARGES')
f=open( 'psi4out.xyz', 'w' )
f.write( "14  " )
f.write( str(ee) + "\n" )
f.write( MOL.save_string_xyz() )
f.close()
--------------------------------------------------------------------------

    Molecular point group: c1
  Charge       = 0
  Multiplicity = 1
  Basis Set: 6-31G*
  Basis Set:
  @DF-RHF Final Energy:  -248.11872509163021
    Total Energy =                       -248.1187250916300400
    Molecular point group: c1
  Basis Set: 6-31G*
  Basis Set:
  Basis Set: 6-31G*
  Basis Set:
  @DF-RHF Final Energy:  -248.11925058012835
    Total Energy =                       -248.1192505801282664
  Basis Set: 6-31G*
  Basis Set:
  Basis Set: 6-31G*
  Basis Set:
  @DF-RHF Final Energy:  -248.11940578111472
    Total Energy =                       -248.1194057811147218
  Basis Set: 6-31G*
  Basis Set:
  Basis Set: 6-31G*
  Basis Set:
  @DF-RHF Final Energy:  -248.11941042475934
    Total Energy =                       -248.1194104247592804
  Basis Set: 6-31G*
  Basis Set:
  Charge       = 0
  Multiplicity = 1
  Basis Set: 6-31G*
  Basis Set:

    Orbital Energies (a.u.)
    -----------------------

    Doubly Occupied:

       1A    -20.555390     2A    -15.533860     3A    -11.265002
       4A    -11.264696     5A    -11.241175     6A     -1.379245
       7A     -1.176070     8A     -0.997077     9A     -0.902606
      10A     -0.821086    11A     -0.683028    12A     -0.668137
      13A     -0.648463    14A     -0.616220    15A     -0.594471
      16A     -0.552544    17A     -0.521428    18A     -0.498474
      19A     -0.470291    20A     -0.416598    21A     -0.382630

  @DF-RHF Final Energy:  -248.11941079313769

   => Energetics <=

    Nuclear Repulsion Energy =            192.0362418770327793
    One-Electron Energy =                -717.9343262152841589
    Two-Electron Energy =                 277.7786735451135200
    DFT Exchange-Correlation Energy =       0.0000000000000000
    Empirical Dispersion Energy =           0.0000000000000000
    PCM Polarization Energy =               0.0000000000000000
    EFP Energy =                            0.0000000000000000
    Total Energy =                       -248.1194107931378312
    Molecular point group: c1
  Basis Set: 6-31G*
  Basis Set:

  -Total Gradient:
     Atom            X                  Y                   Z
    ------   -----------------  -----------------  -----------------
       1       -0.000022245853    -0.000002276334    -0.000005690141
       2        0.000020206927    -0.000004551665     0.000004859688
       3       -0.000901737985     0.006609781991     0.000176866243
       4        0.000006001654    -0.000019536484    -0.000000953448
       5        0.000347430066    -0.005544991098     0.001073055075
       6        0.000692960118    -0.004574504472    -0.000364478560
       7        0.000013087691     0.000006492696     0.000000900138
       8       -0.000168343843     0.003514560849    -0.000881089886
       9        0.000001325782     0.000008975946    -0.000004773602
      10       -0.000002423334    -0.000005934159    -0.000000733530
      11        0.000016085992     0.000020959655     0.000007962555
      12       -0.000009640947    -0.000002704009    -0.000000296047
      13        0.000011543651     0.000000967869    -0.000002281157
      14       -0.000004249921    -0.000007240785    -0.000003347325

  **** Optimization is complete! (in 5 steps) ****
    Final optimized geometry and variables:
    Molecular point group: c1

    Geometry (in Angstrom), charge = 0, multiplicity = 1:

    H           -2.870733066463    -1.142897649107     0.184903181196
    N           -1.913626077630    -1.042188933287     0.464387360207
    C           -1.383198761236     0.239382816178     0.009418692405
    H           -1.408739512710    -1.791921860030     0.029473190866
    C            0.061643733203     0.419714875900     0.471548229110
    H           -1.390534918864     0.327588228711    -1.074807666455
    H           -2.008098041432     1.021700927865     0.423410390343
    O            0.917950097932     0.178546140148    -0.609842823284
    H            0.224322164915     1.433439109621     0.836185835302
    H            0.271694663214    -0.262766123303     1.291158984907
    C            2.269731233481     0.277707881004    -0.295754691415
    H            2.831448666199     0.081279047334    -1.198881710168
    H            2.522503288956     1.273021034360     0.066099360889
    H            2.558421927031    -0.446944911079     0.463455653831

  Mulliken Charges: (a.u.)
   Center  Symbol    Alpha    Beta     Spin     Total
       1     H     0.33259  0.33259  0.00000  0.33483
       2     N     3.92434  3.92434  0.00000 -0.84868
       3     C     3.07405  3.07405  0.00000 -0.14810
       4     H     0.33148  0.33148  0.00000  0.33704
       5     C     2.99695  2.99695  0.00000  0.00609
       6     H     0.41586  0.41586  0.00000  0.16828
       7     H     0.41810  0.41810  0.00000  0.16381
       8     O     4.30759  4.30759  0.00000 -0.61517
       9     H     0.42970  0.42970  0.00000  0.14061
      10     H     0.41772  0.41772  0.00000  0.16455
      11     C     3.07976  3.07976  0.00000 -0.15951
      12     H     0.41252  0.41252  0.00000  0.17497
      13     H     0.43003  0.43003  0.00000  0.13994
      14     H     0.42932  0.42932  0.00000  0.14135

   Total alpha = 21.00000, Total beta = 21.00000, Total charge = -0.00000
