  ==> Input File <==

--------------------------------------------------------------------------
set {
	reference rhf
	basis 6-31G*
}

set_num_threads( 1 )
memory 2 gb

molecule MOL {
0 1

H	 -4.236494	 0.538104	 0.039757
O	 -3.517110	 -0.026191	 -0.205115
C	 -2.306886	 0.532354	 0.237577
C	 -1.177863	 -0.397191	 -0.171080
H	 -2.156308	 1.517575	 -0.201710
H	 -2.315015	 0.655684	 1.319734
C	 0.198102	 0.111031	 0.262842
H	 -1.208843	 -0.518759	 -1.250427
H	 -1.368741	 -1.376554	 0.258909
C	 1.331804	 -0.827780	 -0.158768
H	 0.361943	 1.100838	 -0.156218
H	 0.217265	 0.229072	 1.345532
C	 2.723619	 -0.410569	 0.329459
H	 1.342964	 -0.912588	 -1.244120
H	 1.116806	 -1.824343	 0.220779
C	 2.803913	 1.014565	 0.879806
H	 3.420594	 -0.503339	 -0.499822
H	 3.062975	 -1.111246	 1.089757
H	 2.458450	 1.736640	 0.144754
H	 2.202718	 1.139643	 1.774287
H	 3.826924	 1.270845	 1.137727

	symmetry c1
}
set optking {
	frozen_dihedral = ("
		2 3 4 8,
		8 4 7 10,
		4 7 10 14,
		1 2 3 5
	")
}

ee = energy('scf')
oeprop('DIPOLE', 'QUADRUPOLE', 'MULLIKEN_CHARGES')
f=open( 'psi4out.xyz', 'w' )
f.write( "21  " )
f.write( str(ee) + "\n" )
f.write( MOL.save_string_xyz() )
f.close()
--------------------------------------------------------------------------

    Molecular point group: c1

    Geometry (in Angstrom), charge = 0, multiplicity = 1:

       Center              X                  Y                   Z               Mass
    ------------   -----------------  -----------------  -----------------  -----------------
           H         -4.171798073626     0.520408769403    -0.129553023822     1.007825032070
           O         -3.452414073626    -0.043886230597    -0.374425023822    15.994914619560
           C         -2.242190073626     0.514658769403     0.068266976178    12.000000000000
           C         -1.113167073626    -0.414886230597    -0.340390023822    12.000000000000
           H         -2.091612073626     1.499879769403    -0.371020023822     1.007825032070
           H         -2.250319073626     0.637988769403     1.150423976178     1.007825032070
           C          0.262797926374     0.093335769403     0.093531976178    12.000000000000
           H         -1.144147073626    -0.536454230597    -1.419737023822     1.007825032070
           H         -1.304045073626    -1.394249230597     0.089598976178     1.007825032070
           C          1.396499926374    -0.845475230597    -0.328078023822    12.000000000000
           H          0.426638926374     1.083142769403    -0.325528023822     1.007825032070
           H          0.281960926374     0.211376769403     1.176221976178     1.007825032070
           C          2.788314926374    -0.428264230597     0.160148976178    12.000000000000
           H          1.407659926374    -0.930283230597    -1.413430023822     1.007825032070
           H          1.181501926374    -1.842038230597     0.051468976178     1.007825032070
           C          2.868608926374     0.996869769403     0.710495976178    12.000000000000
           H          3.485289926374    -0.521034230597    -0.669132023822     1.007825032070
           H          3.127670926374    -1.128941230597     0.920446976178     1.007825032070
           H          2.523145926374     1.718944769403    -0.024556023822     1.007825032070
           H          2.267413926374     1.121947769403     1.604976976178     1.007825032070
           H          3.891619926374     1.253149769403     0.968416976178     1.007825032070

  Charge       = 0
  Multiplicity = 1
  Basis Set: 6-31G*
  Basis Set:

    Orbital Energies (a.u.)
    -----------------------

    Doubly Occupied:

       1A    -20.551545     2A    -11.266645     3A    -11.214904
       4A    -11.213713     5A    -11.212143     6A    -11.209780
       7A    -11.207697     8A     -1.358353     9A     -1.087380
      10A     -1.031767    11A     -0.951263    12A     -0.881594
      13A     -0.810018    14A     -0.768932    15A     -0.691724
      16A     -0.663908    17A     -0.631760    18A     -0.599032
      19A     -0.580547    20A     -0.575571    21A     -0.534144
      22A     -0.529365    23A     -0.501925    24A     -0.488393
      25A     -0.484978    26A     -0.458685    27A     -0.445046
      28A     -0.442843    29A     -0.433569

  @DF-RHF Final Energy:  -310.20357183940189

   => Energetics <=

    Nuclear Repulsion Energy =            315.0889910611149389
    One-Electron Energy =               -1044.9305623930649745
    Two-Electron Energy =                 419.6379994925486017
    DFT Exchange-Correlation Energy =       0.0000000000000000
    Empirical Dispersion Energy =           0.0000000000000000
    PCM Polarization Energy =               0.0000000000000000
    EFP Energy =                            0.0000000000000000
    Total Energy =                       -310.2035718394014339

  Mulliken Charges: (a.u.)
   Center  Symbol    Alpha    Beta     Spin     Total
       1     H     0.28125  0.28125  0.00000  0.43751
       2     O     4.37190  4.37190  0.00000 -0.74380
       3     C     2.98942  2.98942  0.00000  0.02117
       4     C     3.15776  3.15776  0.00000 -0.31551
       5     H     0.43311  0.43311  0.00000  0.13378
       6     H     0.43309  0.43309  0.00000  0.13382
       7     C     3.16488  3.16488  0.00000 -0.32976
       8     H     0.41519  0.41519  0.00000  0.16961
       9     H     0.41513  0.41513  0.00000  0.16973
      10     C     3.15423  3.15423  0.00000 -0.30847
      11     H     0.42125  0.42125  0.00000  0.15751
      12     H     0.42268  0.42268  0.00000  0.15463
      13     C     3.15442  3.15442  0.00000 -0.30885
      14     H     0.42057  0.42057  0.00000  0.15886
      15     H     0.41994  0.41994  0.00000  0.16011
      16     C     3.24432  3.24432  0.00000 -0.48864
      17     H     0.42017  0.42017  0.00000  0.15966
      18     H     0.42072  0.42072  0.00000  0.15857
      19     H     0.42130  0.42130  0.00000  0.15740
      20     H     0.42023  0.42023  0.00000  0.15954
      21     H     0.41844  0.41844  0.00000  0.16312

   Total alpha = 29.00000, Total beta = 29.00000, Total charge = -0.00000
