  ==> Input File <==

--------------------------------------------------------------------------
set {
	reference rhf
	basis 6-31G*
}

set_num_threads( 4 )
memory 2 gb

molecule MOL {
0 1

O	 1.685212	 0.526710	 0.965188
C	 1.122059	 0.121804	 -0.000188
C	 -0.170150	 -0.657997	 -0.000612
O	 1.570776	 0.309066	 -1.234919
C	 -1.412532	 0.227344	 -0.000452
H	 -0.153702	 -1.313099	 -0.867402
H	 -0.153924	 -1.313811	 0.865644
C	 -2.706999	 -0.587347	 -0.000541
H	 -1.388000	 0.879466	 -0.868000
H	 -1.387972	 0.879138	 0.867341
C	 -3.956778	 0.291888	 0.000910
H	 -2.726114	 -1.239230	 -0.871609
H	 -2.725217	 -1.240844	 0.869333
H	 -3.985213	 0.933254	 -0.875158
H	 -4.860123	 -0.309979	 0.000519
H	 -3.984618	 0.931166	 0.878514
C	 2.781260	 1.030086	 -1.376337
H	 2.679517	 2.026648	 -0.971368
H	 2.975661	 1.075334	 -2.436578
H	 3.588196	 0.521195	 -0.868998

	symmetry c1
}
set optking {
	frozen_dihedral = ("
		1 2 3 6
	")
}

ee = optimize('scf')
oeprop('DIPOLE', 'QUADRUPOLE', 'MULLIKEN_CHARGES')
f=open( 'psi4out.xyz', 'w' )
f.write( "20  " )
f.write( str(ee) + "\n" )
f.write( MOL.save_string_xyz() )
f.close()
--------------------------------------------------------------------------

    Molecular point group: c1
  Charge       = 0
  Multiplicity = 1
  Basis Set: 6-31G*
  Basis Set:
  @DF-RHF Final Energy:  -383.93939789675352
    Total Energy =                       -383.9393978967534622
    Molecular point group: c1
  Basis Set: 6-31G*
  Basis Set:
  Basis Set: 6-31G*
  Basis Set:
  @DF-RHF Final Energy:  -383.93956044380167
    Total Energy =                       -383.9395604438016107
  Basis Set: 6-31G*
  Basis Set:
  Basis Set: 6-31G*
  Basis Set:
  @DF-RHF Final Energy:  -383.93927144825068
    Total Energy =                       -383.9392714482504516
  Basis Set: 6-31G*
  Basis Set:
  Basis Set: 6-31G*
  Basis Set:
  @DF-RHF Final Energy:  -383.94018637626863
    Total Energy =                       -383.9401863762684570
  Basis Set: 6-31G*
  Basis Set:
  Basis Set: 6-31G*
  Basis Set:
  @DF-RHF Final Energy:  -383.94018900305673
    Total Energy =                       -383.9401890030565028
  Basis Set: 6-31G*
  Basis Set:
  Charge       = 0
  Multiplicity = 1
  Basis Set: 6-31G*
  Basis Set:

    Orbital Energies (a.u.)
    -----------------------

    Doubly Occupied:

       1A    -20.604665     2A    -20.542587     3A    -11.370677
       4A    -11.280556     5A    -11.233633     6A    -11.229980
       7A    -11.224376     8A    -11.214369     9A     -1.468645
      10A     -1.360990    11A     -1.092773    12A     -1.025130
      13A     -0.967923    14A     -0.889630    15A     -0.807140
      16A     -0.773422    17A     -0.694085    18A     -0.679663
      19A     -0.673235    20A     -0.647161    21A     -0.598558
      22A     -0.591907    23A     -0.574383    24A     -0.553678
      25A     -0.534097    26A     -0.520096    27A     -0.511219
      28A     -0.482962    29A     -0.479446    30A     -0.475822
      31A     -0.453400    32A     -0.429880

  @DF-RHF Final Energy:  -383.94018905334372

   => Energetics <=

    Nuclear Repulsion Energy =            383.0712959926112262
    One-Electron Energy =               -1282.0508002625838344
    Two-Electron Energy =                 515.0393152166287791
    DFT Exchange-Correlation Energy =       0.0000000000000000
    Empirical Dispersion Energy =           0.0000000000000000
    PCM Polarization Energy =               0.0000000000000000
    EFP Energy =                            0.0000000000000000
    Total Energy =                       -383.9401890533438291
    Molecular point group: c1
  Basis Set: 6-31G*
  Basis Set:

  -Total Gradient:
     Atom            X                  Y                   Z
    ------   -----------------  -----------------  -----------------
       1       -0.000215535259     0.000354812086    -0.000034400868
       2        0.000252998875    -0.000419557518    -0.000013246208
       3        0.000141158619    -0.000198147740     0.000308416548
       4       -0.000012151506    -0.000020977545     0.000027193007
       5        0.000004192562     0.000022227902    -0.000029153836
       6       -0.000181987121     0.000295300710    -0.000222063752
       7        0.000001184976    -0.000015866690    -0.000030010367
       8        0.000001656026    -0.000009222168    -0.000003248131
       9        0.000006293720    -0.000012346808     0.000004713391
      10        0.000002727021     0.000002815426    -0.000021660669
      11        0.000000629597     0.000000692270     0.000018204600
      12       -0.000000668082     0.000009244731    -0.000003632688
      13        0.000004477623    -0.000011268408    -0.000005608038
      14        0.000002419365    -0.000004334568     0.000001894026
      15       -0.000004114104     0.000001017398     0.000005161410
      16       -0.000003873975     0.000006927080    -0.000001046752
      17       -0.000007606798    -0.000001692379     0.000001660689
      18        0.000002591424    -0.000000558818    -0.000001800127
      19        0.000001818909     0.000000934829    -0.000001134821
      20        0.000003788126     0.000000000210    -0.000000237414

  **** Optimization is complete! (in 6 steps) ****
    Final optimized geometry and variables:
    Molecular point group: c1

    Geometry (in Angstrom), charge = 0, multiplicity = 1:

    O            1.783695681395     0.297606212789     1.187797232289
    C            1.229924362607    -0.104377961376     0.214940954703
    C           -0.050264515898    -0.900705124117     0.224277087312
    O            1.655660985499     0.141791629404    -1.017159570320
    C           -1.271336525021     0.031608041976     0.190408784651
    H           -0.067483587867    -1.564459276078    -0.631890406985
    H           -0.059894860774    -1.493613664675     1.130454988085
    C           -2.592286140858    -0.737944598849     0.227413877157
    H           -1.230861935981     0.641822512930    -0.708239084402
    H           -1.220321772125     0.711230407304     1.036638880267
    C           -3.811930802186     0.182278979729     0.201425241872
    H           -2.635496874328    -1.420444605830    -0.618394270006
    H           -2.623634392515    -1.355185607244     1.122317355861
    H           -3.826047474523     0.789340719290    -0.699187045514
    H           -4.734009082833    -0.389537576045     0.229473076418
    H           -3.813377035907     0.855161064277     1.053963120723
    C            2.824452819301     0.930800560726    -1.146339151910
    H            2.673179812108     1.907885355937    -0.710496567871
    H            3.006496227787     1.017662031741    -2.206189559481
    H            3.661581446108     0.450909107690    -0.660302798966

  Mulliken Charges: (a.u.)
   Center  Symbol    Alpha    Beta     Spin     Total
       1     O     4.28573  4.28573  0.00000 -0.57146
       2     C     2.61685  2.61685  0.00000  0.76630
       3     C     3.19372  3.19372  0.00000 -0.38744
       4     O     4.30285  4.30285  0.00000 -0.60571
       5     C     3.16509  3.16509  0.00000 -0.33018
       6     H     0.40377  0.40377  0.00000  0.19246
       7     H     0.40039  0.40039  0.00000  0.19921
       8     C     3.15280  3.15280  0.00000 -0.30561
       9     H     0.41270  0.41270  0.00000  0.17461
      10     H     0.40899  0.40899  0.00000  0.18202
      11     C     3.24034  3.24034  0.00000 -0.48068
      12     H     0.42078  0.42078  0.00000  0.15844
      13     H     0.41974  0.41974  0.00000  0.16052
      14     H     0.42039  0.42039  0.00000  0.15922
      15     H     0.41737  0.41737  0.00000  0.16526
      16     H     0.41939  0.41939  0.00000  0.16123
      17     C     3.09280  3.09280  0.00000 -0.18561
      18     H     0.40911  0.40911  0.00000  0.18179
      19     H     0.40875  0.40875  0.00000  0.18249
      20     H     0.40842  0.40842  0.00000  0.18316

   Total alpha = 32.00000, Total beta = 32.00000, Total charge =  0.00000
