  ==> Input File <==

--------------------------------------------------------------------------
set {
	reference rhf
	basis 6-31G*
}

set_num_threads( 1 )
memory 2 gb

molecule MOL {
0 1

H	 -2.798360	 -0.862255	 -0.071053
N	 -1.863561	 -0.715187	 0.256814
C	 -1.344686	 0.554728	 -0.219830
H	 -1.300452	 -1.461917	 -0.101532
C	 -0.652496	 0.362795	 -1.552935
H	 -2.108370	 1.324880	 -0.336690
H	 -0.617412	 0.923410	 0.497056
O	 -1.610380	 -0.036813	 -2.490943
H	 -0.182727	 1.293346	 -1.870785
H	 0.121339	 -0.395675	 -1.457344
C	 -1.093576	 -0.332736	 -3.749083
H	 -1.919860	 -0.625214	 -4.382651
H	 -0.601331	 0.531980	 -4.190604
H	 -0.377781	 -1.150829	 -3.702492

	symmetry c1
}
set optking {
	frozen_dihedral = ("
		8 5 3 6,
		5 8 11 13,
		11 8 5 3
	")
}

ee = energy('scf')
oeprop('DIPOLE', 'QUADRUPOLE', 'MULLIKEN_CHARGES')
f=open( 'psi4out.xyz', 'w' )
f.write( "14  " )
f.write( str(ee) + "\n" )
f.write( MOL.save_string_xyz() )
f.close()
--------------------------------------------------------------------------

    Molecular point group: c1

    Geometry (in Angstrom), charge = 0, multiplicity = 1:

       Center              X                  Y                   Z               Mass
    ------------   -----------------  -----------------  -----------------  -----------------
           H         -1.482172729894    -0.808813460761     1.504132839693     1.007825032070
           N         -0.547373729894    -0.661745460761     1.831999839693    14.003074004780
           C         -0.028498729894     0.608169539239     1.355355839693    12.000000000000
           H          0.015735270106    -1.408475460761     1.473653839693     1.007825032070
           C          0.663691270106     0.416236539239     0.022250839693    12.000000000000
           H         -0.792182729894     1.378321539239     1.238495839693     1.007825032070
           H          0.698775270106     0.976851539239     2.072241839693     1.007825032070
           O         -0.294192729894     0.016628539239    -0.915757160307    15.994914619560
           H          1.133460270106     1.346787539239    -0.295599160307     1.007825032070
           H          1.437526270106    -0.342233460761     0.117841839693     1.007825032070
           C          0.222611270106    -0.279294460761    -2.173897160307    12.000000000000
           H         -0.603672729894    -0.571772460761    -2.807465160307     1.007825032070
           H          0.714856270106     0.585421539239    -2.615418160307     1.007825032070
           H          0.938406270106    -1.097387460761    -2.127306160307     1.007825032070

  Charge       = 0
  Multiplicity = 1
  Basis Set: 6-31G*
  Basis Set:

    Orbital Energies (a.u.)
    -----------------------

    Doubly Occupied:

       1A    -20.560528     2A    -15.527128     3A    -11.269807
       4A    -11.269187     5A    -11.241726     6A     -1.384921
       7A     -1.175357     8A     -0.999618     9A     -0.909883
      10A     -0.823795    11A     -0.689736    12A     -0.667192
      13A     -0.647125    14A     -0.634216    15A     -0.582965
      16A     -0.546559    17A     -0.532617    18A     -0.509931
      19A     -0.474274    20A     -0.422416    21A     -0.376190

  @DF-RHF Final Energy:  -248.11980456097686

   => Energetics <=

    Nuclear Repulsion Energy =            195.3391577208978163
    One-Electron Energy =                -724.4275161139462398
    Two-Electron Energy =                 280.9685538320716773
    DFT Exchange-Correlation Energy =       0.0000000000000000
    Empirical Dispersion Energy =           0.0000000000000000
    PCM Polarization Energy =               0.0000000000000000
    EFP Energy =                            0.0000000000000000
    Total Energy =                       -248.1198045609767746

  Mulliken Charges: (a.u.)
   Center  Symbol    Alpha    Beta     Spin     Total
       1     H     0.32685  0.32685  0.00000  0.34630
       2     N     3.92045  3.92045  0.00000 -0.84089
       3     C     3.06559  3.06559  0.00000 -0.13117
       4     H     0.33259  0.33259  0.00000  0.33483
       5     C     3.00367  3.00367  0.00000 -0.00734
       6     H     0.41272  0.41272  0.00000  0.17455
       7     H     0.41872  0.41872  0.00000  0.16256
       8     O     4.30580  4.30580  0.00000 -0.61161
       9     H     0.43009  0.43009  0.00000  0.13982
      10     H     0.43369  0.43369  0.00000  0.13262
      11     C     3.07925  3.07925  0.00000 -0.15850
      12     H     0.41162  0.41162  0.00000  0.17676
      13     H     0.42892  0.42892  0.00000  0.14216
      14     H     0.43004  0.43004  0.00000  0.13992

   Total alpha = 21.00000, Total beta = 21.00000, Total charge =  0.00000
