  ==> Input File <==

--------------------------------------------------------------------------
set {
	reference rhf
	basis cc-pvtz
}

set_num_threads( 4 )
memory 2 gb

molecule MOL {
0 1

H	 -3.162190	 0.493205	 -0.000107
C	 -2.363908	 -0.234727	 0.000005
O	 -1.158738	 0.454634	 -0.000087
H	 -2.464314	 -0.863616	 -0.882153
H	 -2.464327	 -0.863359	 0.882345
C	 -0.028611	 -0.359694	 0.000037
C	 1.212847	 0.509314	 -0.000053
H	 -0.034155	 -1.007047	 -0.877198
H	 -0.034195	 -1.006836	 0.877430
C	 2.131677	 0.211991	 -1.179757
H	 0.906450	 1.549373	 -0.018053
H	 1.742246	 0.355414	 0.933758
H	 1.628639	 0.383161	 -2.125664
H	 3.009322	 0.846150	 -1.155204
H	 2.470255	 -0.818678	 -1.167329

	symmetry c1
}
set optking {
	frozen_dihedral = ("
		11 7 6 8
	")
}

ee = optimize('scf')
oeprop('DIPOLE', 'QUADRUPOLE', 'MULLIKEN_CHARGES')
f=open( 'psi4out.xyz', 'w' )
f.write( "15  " )
f.write( str(ee) + "\n" )
f.write( MOL.save_string_xyz() )
f.close()
--------------------------------------------------------------------------

    Molecular point group: c1
  Charge       = 0
  Multiplicity = 1
  Basis Set: CC-PVTZ
  Basis Set:
  @DF-RHF Final Energy:  -232.22202344644347
    Total Energy =                       -232.2220234464434725
    Molecular point group: c1
  Basis Set: CC-PVTZ
  Basis Set:
  Basis Set: CC-PVTZ
  Basis Set:
  @DF-RHF Final Energy:  -232.22237553766857
    Total Energy =                       -232.2223755376683698
  Basis Set: CC-PVTZ
  Basis Set:
  Basis Set: CC-PVTZ
  Basis Set:
  @DF-RHF Final Energy:  -232.22248148001017
    Total Energy =                       -232.2224814800101740
  Basis Set: CC-PVTZ
  Basis Set:
  Charge       = 0
  Multiplicity = 1
  Basis Set: CC-PVTZ
  Basis Set:

    Orbital Energies (a.u.)
    -----------------------

    Doubly Occupied:

       1A    -20.547836     2A    -11.264720     3A    -11.261511
       4A    -11.212534     5A    -11.208861     6A     -1.381316
       7A     -1.054350     8A     -0.954934     9A     -0.879052
      10A     -0.809166    11A     -0.672042    12A     -0.659244
      13A     -0.633368    14A     -0.595062    15A     -0.572871
      16A     -0.545723    17A     -0.493766    18A     -0.490650
      19A     -0.480220    20A     -0.462392    21A     -0.413981

  @DF-RHF Final Energy:  -232.22248246651714

   => Energetics <=

    Nuclear Repulsion Energy =            190.2146631804574213
    One-Electron Energy =                -691.6870902629466400
    Two-Electron Energy =                 269.2499446159719696
    DFT Exchange-Correlation Energy =       0.0000000000000000
    Empirical Dispersion Energy =           0.0000000000000000
    PCM Polarization Energy =               0.0000000000000000
    EFP Energy =                            0.0000000000000000
    Total Energy =                       -232.2224824665172491
    Molecular point group: c1
  Basis Set: CC-PVTZ
  Basis Set:

  -Total Gradient:
     Atom            X                  Y                   Z
    ------   -----------------  -----------------  -----------------
       1       -0.000044984100    -0.000026622413     0.000000414962
       2       -0.000076252072     0.000049118574     0.000001071068
       3        0.000138497213    -0.000123818302     0.000018752578
       4        0.000001342722    -0.000002444649     0.000010029744
       5        0.000000316823    -0.000001881228    -0.000010392022
       6       -0.000447501449     0.000740399544    -0.000333786378
       7        0.000149227082    -0.000146065865    -0.000738012597
       8        0.000321744276    -0.000495185037     0.000352832358
       9       -0.000021581227    -0.000003274276     0.000001410401
      10        0.000006435499    -0.000008566287    -0.000012021365
      11       -0.000007004374     0.000020744594     0.000688169876
      12       -0.000004030941     0.000000301263     0.000005838404
      13       -0.000013381742    -0.000013278527    -0.000000939017
      14       -0.000013897237     0.000008040938     0.000008201604
      15        0.000011069526     0.000002531672     0.000008430385

  **** Optimization is complete! (in 4 steps) ****
    Final optimized geometry and variables:
    Molecular point group: c1

    Geometry (in Angstrom), charge = 0, multiplicity = 1:

    H           -3.099095472904     0.387791474116     0.243417424129
    C           -2.300401382479    -0.339876833287     0.248469005812
    O           -1.095292952291     0.348931301744     0.235191115557
    H           -2.404876226147    -0.979450750889    -0.625667818817
    H           -2.397025192346    -0.958658681934     1.138309175541
    C            0.034454703947    -0.470521765755     0.236750952267
    C            1.297771703227     0.396532922741     0.234026633987
    H            0.016538776127    -1.121094076177    -0.636660148121
    H            0.012613538164    -1.118189828066     1.111462289345
    C            2.230308014074     0.114416804392    -0.939385915499
    H            0.980872691600     1.431179651244     0.214521812597
    H            1.838515069155     0.258889632346     1.163762590920
    H            1.728488605795     0.289596090538    -1.884864549612
    H            3.105416434744     0.752682810323    -0.903163483681
    H            2.573643894524    -0.915052876035    -0.932609759515

  Mulliken Charges: (a.u.)
   Center  Symbol    Alpha    Beta     Spin     Total
       1     H     0.44703  0.44703  0.00000  0.10595
       2     C     3.02925  3.02925  0.00000 -0.05851
       3     O     4.17166  4.17166  0.00000 -0.34332
       4     H     0.47316  0.47316  0.00000  0.05369
       5     H     0.47213  0.47213  0.00000  0.05574
       6     C     2.96364  2.96364  0.00000  0.07272
       7     C     3.08706  3.08706  0.00000 -0.17411
       8     H     0.47476  0.47476  0.00000  0.05048
       9     H     0.47351  0.47351  0.00000  0.05298
      10     C     3.15176  3.15176  0.00000 -0.30352
      11     H     0.44463  0.44463  0.00000  0.11075
      12     H     0.45290  0.45290  0.00000  0.09421
      13     H     0.45261  0.45261  0.00000  0.09478
      14     H     0.44912  0.44912  0.00000  0.10175
      15     H     0.45679  0.45679  0.00000  0.08642

   Total alpha = 21.00000, Total beta = 21.00000, Total charge = -0.00000
