                              Psi4 1.0.54 Driver

  ==> Input File <==

--------------------------------------------------------------------------
set {
	reference rhf
	basis cc-pvtz
}

set_num_threads( 4 )
memory 2 gb

molecule MOL {
0 1

O	 -0.988175	 -1.402891	 0.050086
C	 -0.675048	 -0.248293	 -0.009686
C	 -1.742492	 0.826599	 -0.011538
N	 0.622280	 0.144970	 -0.099307
H	 -1.692153	 1.431066	 -0.908439
H	 -2.698310	 0.331559	 0.031353
H	 -1.642148	 1.483784	 0.843455
C	 1.102749	 1.178457	 0.793443
C	 1.475797	 -0.141548	 -1.227656
H	 2.113694	 0.945481	 1.104788
H	 0.466891	 1.233193	 1.658237
H	 1.111464	 2.149554	 0.305051
H	 2.495946	 -0.251995	 -0.883079
H	 1.196223	 -1.059368	 -1.715858
H	 1.457989	 0.658959	 -1.963805

	symmetry c1
}
set optking {
	frozen_dihedral = ("
		8 4 2 3
	")
}

ee,wfn = optimize('scf', return_wfn=True)
oeprop( wfn, 'DIPOLE', 'QUADRUPOLE', 'MULLIKEN_CHARGES')
f=open( 'psi4out.xyz', 'w' )
f.write( "15  " )
f.write( str(ee) + "\n" )
f.write( MOL.save_string_xyz() )
f.close()
--------------------------------------------------------------------------

    Molecular point group: c1
  Charge       = 0
  Multiplicity = 1
  Basis Set: CC-PVTZ
  Basis Set:
  @DF-RHF Final Energy:  -286.10931554086062
    Total Energy =                       -286.1093155408607345
    Molecular point group: c1
  Basis Set: CC-PVTZ
  Basis Set:
  Basis Set: CC-PVTZ
  Basis Set:
  @DF-RHF Final Energy:  -286.11306644683577
    Total Energy =                       -286.1130664468356599
  Basis Set: CC-PVTZ
  Basis Set:
  Basis Set: CC-PVTZ
  Basis Set:
  @DF-RHF Final Energy:  -286.11522350957705
    Total Energy =                       -286.1152235095771061
  Basis Set: CC-PVTZ
  Basis Set:
  Basis Set: CC-PVTZ
  Basis Set:
  @DF-RHF Final Energy:  -286.11719880208233
    Total Energy =                       -286.1171988020822710
  Basis Set: CC-PVTZ
  Basis Set:
  @DF-RHF Final Energy:  -286.11348597158241
    Total Energy =                       -286.1134859715825769
  @DF-RHF Final Energy:  -286.12226240600933
    Total Energy =                       -286.1222624060092130
  @DF-RHF Final Energy:  -286.03140506930197
    Total Energy =                       -286.0314050693020818
  @DF-RHF Final Energy:  -286.11807747437604
    Total Energy =                       -286.1180774743760935
  @DF-RHF Final Energy:  -286.12534113864274
    Total Energy =                       -286.1253411386425114
  @DF-RHF Final Energy:  -286.12667037039938
    Total Energy =                       -286.1266703703994381
  @DF-RHF Final Energy:  -286.12360381135596
    Total Energy =                       -286.1236038113561335
  @DF-RHF Final Energy:  -286.12917399649416
    Total Energy =                       -286.1291739964940462
  @DF-RHF Final Energy:  -286.12974566033802
    Total Energy =                       -286.1297456603381875
  @DF-RHF Final Energy:  -286.13080762447737
    Total Energy =                       -286.1308076244771996
  @DF-RHF Final Energy:  -286.13097234805565
    Total Energy =                       -286.1309723480557068
  @DF-RHF Final Energy:  -286.13105642349416
    Total Energy =                       -286.1310564234942149
  @DF-RHF Final Energy:  -286.13111509644432
    Total Energy =                       -286.1311150964444892
  @DF-RHF Final Energy:  -286.13120679185039
    Total Energy =                       -286.1312067918504454
  @DF-RHF Final Energy:  -286.13099690532067
    Total Energy =                       -286.1309969053207851
  @DF-RHF Final Energy:  -286.13133504146197
    Total Energy =                       -286.1313350414619663
  Basis Set: CC-PVTZ
  Basis Set:
  @DF-RHF Final Energy:  -286.13140227372674
    Total Energy =                       -286.1314022737264509
  Basis Set: CC-PVTZ
  Basis Set:
  Basis Set: CC-PVTZ
  Basis Set:
  @DF-RHF Final Energy:  -286.13144021296819
    Total Energy =                       -286.1314402129681866
  Basis Set: CC-PVTZ
  Basis Set:
  Basis Set: CC-PVTZ
  Basis Set:
  @DF-RHF Final Energy:  -286.13144662093453
    Total Energy =                       -286.1314466209346961
  Basis Set: CC-PVTZ
  Basis Set:
  Charge       = 0
  Multiplicity = 1
  Basis Set: CC-PVTZ
  Basis Set:

    Orbital Energies (a.u.)
    -----------------------

    Doubly Occupied:

       1A    -20.518987     2A    -15.573913     3A    -11.337344
       4A    -11.262436     5A    -11.243789     6A    -11.226578
       7A     -1.398636     8A     -1.243688     9A     -1.013978
      10A     -0.968765    11A     -0.913030    12A     -0.737512
      13A     -0.682772    14A     -0.660347    15A     -0.652136
      16A     -0.596922    17A     -0.580803    18A     -0.569934
      19A     -0.559576    20A     -0.541358    21A     -0.526810
      22A     -0.502316    23A     -0.422633    24A     -0.379783

  @DF-RHF Final Energy:  -286.13144734102184

   => Energetics <=

    Nuclear Repulsion Energy =            253.2958013140566891
    One-Electron Energy =                -890.6264017098214936
    Two-Electron Energy =                 351.1991530547428511
    DFT Exchange-Correlation Energy =       0.0000000000000000
    Empirical Dispersion Energy =           0.0000000000000000
    PCM Polarization Energy =               0.0000000000000000
    EFP Energy =                            0.0000000000000000
    Total Energy =                       -286.1314473410219534
    Molecular point group: c1
  Basis Set: CC-PVTZ
  Basis Set:

  -Total Gradient:
     Atom            X                  Y                   Z
    ------   -----------------  -----------------  -----------------
       1        0.000016892784    -0.000001382857     0.000030797639
       2        0.005619579862     0.004086304916     0.007450401110
       3       -0.002423137696    -0.003108540306    -0.003709237302
       4       -0.007478601811     0.000291636442    -0.007478087423
       5        0.000012056453    -0.000013713585     0.000037688329
       6        0.000046081399     0.000035980109    -0.000026098218
       7       -0.000019756010    -0.000054008100    -0.000059203902
       8        0.004224603563    -0.001230514983     0.003788074650
       9        0.000001743043     0.000009533600    -0.000051807855
      10       -0.000001437239     0.000009867819    -0.000005351755
      11        0.000003416386    -0.000006079285    -0.000018683438
      12       -0.000007878161    -0.000018513047     0.000018421775
      13        0.000016119633     0.000000803338     0.000005483339
      14        0.000000252568     0.000003296546     0.000012710692
      15       -0.000009934775    -0.000004670609     0.000004892362

  **** Optimization is complete! (in 24 steps) ****
    Final optimized geometry and variables:
    Molecular point group: c1

    Geometry (in Angstrom), charge = 0, multiplicity = 1:

    O           -0.441208417272    -1.263899122025     0.991279099447
    C           -0.545112356964    -0.250723420422     0.371297547491
    C           -1.803507683288     0.586947073886     0.465516564937
    N            0.396948718159     0.143035497475    -0.555278251561
    H           -2.082273803960     0.994539319754    -0.495679918284
    H           -2.589072911377    -0.048181050249     0.842422949489
    H           -1.669642003122     1.407750961079     1.160895269190
    C            0.812002747208     1.533934626370    -0.563004577205
    C            1.508787839057    -0.774465556091    -0.730728450674
    H            1.487600766897     1.758290268199     0.259883624232
    H           -0.037973422815     2.195231323769    -0.497976044407
    H            1.326161787685     1.748098267506    -1.489739021485
    H            2.197095716498    -0.754534729776     0.110029501200
    H            1.140636912910    -1.780761081842    -0.839099381594
    H            2.045780728776    -0.495047877223    -1.627369867891

  Mulliken Charges: (a.u.)
   Center  Symbol    Alpha    Beta     Spin     Total
       1     O     4.20233  4.20233  0.00000 -0.40465
       2     C     2.84157  2.84157  0.00000  0.31687
       3     C     3.15879  3.15879  0.00000 -0.31758
       4     N     3.58511  3.58511  0.00000 -0.17021
       5     H     0.44630  0.44630  0.00000  0.10740
       6     H     0.42961  0.42961  0.00000  0.14079
       7     H     0.44702  0.44702  0.00000  0.10595
       8     C     3.09533  3.09533  0.00000 -0.19066
       9     C     3.09323  3.09323  0.00000 -0.18645
      10     H     0.45672  0.45672  0.00000  0.08657
      11     H     0.44647  0.44647  0.00000  0.10706
      12     H     0.44781  0.44781  0.00000  0.10438
      13     H     0.45821  0.45821  0.00000  0.08359
      14     H     0.43616  0.43616  0.00000  0.12768
      15     H     0.45537  0.45537  0.00000  0.08927

   Total alpha = 24.00000, Total beta = 24.00000, Total charge = -0.00000

*** Psi4 exiting successfully. Buy a developer a beer!
