  ==> Input File <==

--------------------------------------------------------------------------
set {
	reference rhf
	basis 6-31G*
}

set_num_threads( 1 )
memory 2 gb

molecule MOL {
0 1

O	 -2.596298	 -0.570549	 0.926264
C	 -1.913440	 -1.179503	 0.159900
C	 -0.889235	 -0.467034	 -0.705952
C	 -2.007918	 -2.683747	 0.034598
C	 0.379448	 -0.143569	 0.099626
H	 -1.339788	 0.454936	 -1.057060
H	 -0.635012	 -1.070787	 -1.572485
C	 1.631333	 -0.777471	 -0.511575
H	 0.482768	 0.934507	 0.149241
H	 0.263088	 -0.495696	 1.123449
C	 2.915987	 -0.544314	 0.291766
H	 1.766672	 -0.399098	 -1.523130
H	 1.471257	 -1.849544	 -0.605828
C	 3.373361	 0.914346	 0.347591
H	 3.708709	 -1.142521	 -0.150311
H	 2.780642	 -0.921148	 1.303579
H	 3.506512	 1.320010	 -0.651625
H	 4.322697	 0.999599	 0.867103
H	 2.660624	 1.545032	 0.868198
H	 -2.387565	 -2.945167	 -0.949674
H	 -2.671863	 -3.077370	 0.791580
H	 -1.026855	 -3.139902	 0.130726

	symmetry c1
}
set optking {
	frozen_dihedral = ("
		6 3 2 1,
		3 5 8 12,
		12 8 11 15
	")
}

ee = energy('scf')
oeprop('DIPOLE', 'QUADRUPOLE', 'MULLIKEN_CHARGES')
f=open( 'psi4out.xyz', 'w' )
f.write( "22  " )
f.write( str(ee) + "\n" )
f.write( MOL.save_string_xyz() )
f.close()
--------------------------------------------------------------------------

    Molecular point group: c1

    Geometry (in Angstrom), charge = 0, multiplicity = 1:

       Center              X                  Y                   Z               Mass
    ------------   -----------------  -----------------  -----------------  -----------------
           O         -2.713293516580     0.109223875229     0.837566875013    15.994914619560
           C         -2.030435516580    -0.499730124771     0.071202875013    12.000000000000
           C         -1.006230516580     0.212738875229    -0.794649124987    12.000000000000
           C         -2.124913516580    -2.003974124771    -0.054099124987    12.000000000000
           C          0.262452483420     0.536203875229     0.010928875013    12.000000000000
           H         -1.456783516580     1.134708875229    -1.145757124987     1.007825032070
           H         -0.752007516580    -0.391014124771    -1.661182124987     1.007825032070
           C          1.514337483420    -0.097698124771    -0.600272124987    12.000000000000
           H          0.365772483420     1.614279875229     0.060543875013     1.007825032070
           H          0.146092483420     0.184076875229     1.034751875013     1.007825032070
           C          2.798991483420     0.135458875229     0.203068875013    12.000000000000
           H          1.649676483420     0.280674875229    -1.611827124987     1.007825032070
           H          1.354261483420    -1.169771124771    -0.694525124987     1.007825032070
           C          3.256365483420     1.594118875229     0.258893875013    12.000000000000
           H          3.591713483420    -0.462748124771    -0.239008124987     1.007825032070
           H          2.663646483420    -0.241375124771     1.214881875013     1.007825032070
           H          3.389516483420     1.999782875229    -0.740322124987     1.007825032070
           H          4.205701483420     1.679371875229     0.778405875013     1.007825032070
           H          2.543628483420     2.224804875229     0.779500875013     1.007825032070
           H         -2.504560516580    -2.265394124771    -1.038371124987     1.007825032070
           H         -2.788858516580    -2.397597124771     0.702882875013     1.007825032070
           H         -1.143850516580    -2.460129124771     0.042028875013     1.007825032070

  Charge       = 0
  Multiplicity = 1
  Basis Set: 6-31G*
  Basis Set:

    Orbital Energies (a.u.)
    -----------------------

    Doubly Occupied:

       1A    -20.545926     2A    -11.324209     3A    -11.228502
       4A    -11.228458     5A    -11.227393     6A    -11.224178
       7A    -11.221443     8A    -11.212810     9A     -1.392225
      10A     -1.096993    11A     -1.044260    12A     -0.999547
      13A     -0.938808    14A     -0.858421    15A     -0.788444
      16A     -0.734186    17A     -0.658100    18A     -0.647754
      19A     -0.625974    20A     -0.620163    21A     -0.595802
      22A     -0.578311    23A     -0.568191    24A     -0.550722
      25A     -0.534732    26A     -0.508453    27A     -0.505778
      28A     -0.491798    29A     -0.470523    30A     -0.465343
      31A     -0.453119    32A     -0.396196

  @DF-RHF Final Energy:  -348.09208253122154

   => Energetics <=

    Nuclear Repulsion Energy =            375.1396359024120102
    One-Electron Energy =               -1214.9893331819616833
    Two-Electron Energy =                 491.7576147483280806
    DFT Exchange-Correlation Energy =       0.0000000000000000
    Empirical Dispersion Energy =           0.0000000000000000
    PCM Polarization Energy =               0.0000000000000000
    EFP Energy =                            0.0000000000000000
    Total Energy =                       -348.0920825312215925

  Mulliken Charges: (a.u.)
   Center  Symbol    Alpha    Beta     Spin     Total
       1     O     4.26200  4.26200  0.00000 -0.52400
       2     C     2.74147  2.74147  0.00000  0.51706
       3     C     3.20205  3.20205  0.00000 -0.40410
       4     C     3.28973  3.28973  0.00000 -0.57947
       5     C     3.16073  3.16073  0.00000 -0.32146
       6     H     0.39905  0.39905  0.00000  0.20189
       7     H     0.41419  0.41419  0.00000  0.17163
       8     C     3.15682  3.15682  0.00000 -0.31364
       9     H     0.40837  0.40837  0.00000  0.18326
      10     H     0.41188  0.41188  0.00000  0.17623
      11     C     3.15370  3.15370  0.00000 -0.30740
      12     H     0.42150  0.42150  0.00000  0.15700
      13     H     0.42321  0.42321  0.00000  0.15357
      14     C     3.24206  3.24206  0.00000 -0.48412
      15     H     0.41985  0.41985  0.00000  0.16030
      16     H     0.42168  0.42168  0.00000  0.15664
      17     H     0.42179  0.42179  0.00000  0.15642
      18     H     0.41762  0.41762  0.00000  0.16477
      19     H     0.41857  0.41857  0.00000  0.16287
      20     H     0.40666  0.40666  0.00000  0.18667
      21     H     0.39710  0.39710  0.00000  0.20579
      22     H     0.40996  0.40996  0.00000  0.18008

   Total alpha = 32.00000, Total beta = 32.00000, Total charge =  0.00000
