                              Psi4 1.0.54 Driver

  ==> Input File <==

--------------------------------------------------------------------------
set {
	reference rhf
	basis cc-pvtz
}

set_num_threads( 4 )
memory 2 gb

molecule MOL {
0 1

H	 0.841450	 1.732412	 0.129752
O	 0.057669	 1.301365	 -0.158528
C	 0.004145	 -0.005141	 0.363049
C	 1.199168	 -0.827145	 -0.096690
C	 -1.316386	 -0.602081	 -0.083515
H	 0.012026	 0.043363	 1.450619
H	 1.216685	 -0.896776	 -1.178167
H	 2.129940	 -0.372354	 0.228035
H	 1.160783	 -1.829622	 0.314294
H	 -1.357882	 -0.655920	 -1.165207
H	 -2.140147	 0.011735	 0.257253
H	 -1.440790	 -1.601175	 0.317669

	symmetry c1
}
set optking {
	frozen_dihedral = ("
		1 2 3 4
	")
}

ee,wfn = optimize('scf', return_wfn=True)
oeprop( wfn, 'DIPOLE', 'QUADRUPOLE', 'MULLIKEN_CHARGES')
f=open( 'psi4out.xyz', 'w' )
f.write( "12  " )
f.write( str(ee) + "\n" )
f.write( MOL.save_string_xyz() )
f.close()
--------------------------------------------------------------------------

    Molecular point group: c1
  Charge       = 0
  Multiplicity = 1
  Basis Set: CC-PVTZ
  Basis Set:
  @DF-RHF Final Energy:  -193.19606231595182
    Total Energy =                       -193.1960623159519059
    Molecular point group: c1
  Basis Set: CC-PVTZ
  Basis Set:
  Charge       = 0
  Multiplicity = 1
  Basis Set: CC-PVTZ
  Basis Set:

    Orbital Energies (a.u.)
    -----------------------

    Doubly Occupied:

       1A    -20.544303     2A    -11.274069     3A    -11.210930
       4A    -11.205105     5A     -1.364780     6A     -1.043271
       7A     -0.940313     8A     -0.803506     9A     -0.702739
      10A     -0.627317    11A     -0.605779    12A     -0.547025
      13A     -0.535726    14A     -0.530101    15A     -0.511428
      16A     -0.468802    17A     -0.433198

  @DF-RHF Final Energy:  -193.19606241111728

   => Energetics <=

    Nuclear Repulsion Energy =            135.7428677656425293
    One-Electron Energy =                -531.1810817059929377
    Two-Electron Energy =                 202.2421515292330412
    DFT Exchange-Correlation Energy =       0.0000000000000000
    Empirical Dispersion Energy =           0.0000000000000000
    PCM Polarization Energy =               0.0000000000000000
    EFP Energy =                            0.0000000000000000
    Total Energy =                       -193.1960624111173672
    Molecular point group: c1
  Basis Set: CC-PVTZ
  Basis Set:

  -Total Gradient:
     Atom            X                  Y                   Z
    ------   -----------------  -----------------  -----------------
       1       -0.000056237023     0.000036138927     0.000092201396
       2        0.000058438926    -0.000058426936    -0.000169265457
       3        0.000034280762     0.000047348289     0.000158010485
       4       -0.000060704122     0.000002409677    -0.000079550433
       5        0.000024303064     0.000001125359    -0.000016364777
       6       -0.000000808833    -0.000017920620     0.000013677244
       7        0.000010859360    -0.000006463929    -0.000003620257
       8       -0.000008192439     0.000002981323     0.000003490067
       9       -0.000008689522    -0.000002748194     0.000002272501
      10       -0.000010016810    -0.000005323590    -0.000005096276
      11        0.000014413550     0.000005114146     0.000005658968
      12        0.000002353085    -0.000004234452    -0.000001413462

  **** Optimization is complete! (in 2 steps) ****
    Final optimized geometry and variables:
    Molecular point group: c1

    Geometry (in Angstrom), charge = 0, multiplicity = 1:

    H            0.842019099272     1.732071182284     0.128456294848
    O            0.058022773270     1.301093308821    -0.159356842370
    C            0.004208465140    -0.005011908335     0.363135361175
    C            1.199048426267    -0.827251588833    -0.096600139826
    C           -1.316104995425    -0.602217030550    -0.083708811193
    H            0.011781848380     0.043762083163     1.450685088456
    H            1.216525640869    -0.896730398689    -1.178069932188
    H            2.129852178462    -0.372544271712     0.228051014851
    H            1.160397475814    -1.829780148726     0.314318909234
    H           -1.357973837243    -0.654621685554    -1.165466328552
    H           -2.140090135682     0.010652052759     0.258211075316
    H           -1.439712745925    -1.601989911028     0.316039864256

  Mulliken Charges: (a.u.)
   Center  Symbol    Alpha    Beta     Spin     Total
       1     H     0.39608  0.39608  0.00000  0.20784
       2     O     4.20434  4.20434  0.00000 -0.40868
       3     C     2.92195  2.92195  0.00000  0.15610
       4     C     3.14529  3.14529  0.00000 -0.29059
       5     C     3.14229  3.14229  0.00000 -0.28457
       6     H     0.46659  0.46659  0.00000  0.06682
       7     H     0.45094  0.45094  0.00000  0.09813
       8     H     0.45805  0.45805  0.00000  0.08390
       9     H     0.45633  0.45633  0.00000  0.08735
      10     H     0.45271  0.45271  0.00000  0.09457
      11     H     0.44654  0.44654  0.00000  0.10692
      12     H     0.45889  0.45889  0.00000  0.08222

   Total alpha = 17.00000, Total beta = 17.00000, Total charge = -0.00000

*** Psi4 exiting successfully. Buy a developer a beer!
