  ==> Input File <==

--------------------------------------------------------------------------
set {
	reference rhf
	basis 6-31G*
}

set_num_threads( 1 )
memory 2 gb

molecule MOL {
0 1

H	 -4.244132	 0.029284	 0.659923
O	 -3.521580	 -0.330725	 0.165739
C	 -2.312111	 0.201130	 0.642087
C	 -1.177863	 -0.397191	 -0.171080
H	 -2.307017	 1.286157	 0.547232
H	 -2.179094	 -0.034529	 1.697128
C	 0.198102	 0.111031	 0.262842
H	 -1.349222	 -0.165679	 -1.218824
H	 -1.224508	 -1.478753	 -0.078754
C	 1.331804	 -0.827780	 -0.158768
H	 0.361943	 1.100838	 -0.156218
H	 0.217265	 0.229072	 1.345532
C	 2.723619	 -0.410569	 0.329459
H	 1.342964	 -0.912588	 -1.244120
H	 1.116806	 -1.824343	 0.220779
C	 3.243875	 0.895854	 -0.272975
H	 3.424222	 -1.207124	 0.091250
H	 2.714788	 -0.329854	 1.414619
H	 3.251977	 0.848779	 -1.358681
H	 2.637085	 1.747371	 0.016682
H	 4.259473	 1.094070	 0.055697

	symmetry c1
}
set optking {
	frozen_dihedral = ("
		2 3 4 8,
		4 7 10 14,
		16 13 10 14,
		1 2 3 5
	")
}

ee = energy('scf')
oeprop('DIPOLE', 'QUADRUPOLE', 'MULLIKEN_CHARGES')
f=open( 'psi4out.xyz', 'w' )
f.write( "21  " )
f.write( str(ee) + "\n" )
f.write( MOL.save_string_xyz() )
f.close()
--------------------------------------------------------------------------

    Molecular point group: c1

    Geometry (in Angstrom), charge = 0, multiplicity = 1:

       Center              X                  Y                   Z               Mass
    ------------   -----------------  -----------------  -----------------  -----------------
           H         -4.242634193662     0.127561019357     0.540069323406     1.007825032070
           O         -3.520082193662    -0.232447980643     0.045885323406    15.994914619560
           C         -2.310613193662     0.299407019357     0.522233323406    12.000000000000
           C         -1.176365193662    -0.298913980643    -0.290933676594    12.000000000000
           H         -2.305519193662     1.384434019357     0.427378323406     1.007825032070
           H         -2.177596193662     0.063748019357     1.577274323406     1.007825032070
           C          0.199599806338     0.209308019357     0.142988323406    12.000000000000
           H         -1.347724193662    -0.067401980643    -1.338677676594     1.007825032070
           H         -1.223010193662    -1.380475980643    -0.198607676594     1.007825032070
           C          1.333301806338    -0.729502980643    -0.278621676594    12.000000000000
           H          0.363440806338     1.199115019357    -0.276071676594     1.007825032070
           H          0.218762806338     0.327349019357     1.225678323406     1.007825032070
           C          2.725116806338    -0.312291980643     0.209605323406    12.000000000000
           H          1.344461806338    -0.814310980643    -1.363973676594     1.007825032070
           H          1.118303806338    -1.726065980643     0.100925323406     1.007825032070
           C          3.245372806338     0.994131019357    -0.392828676594    12.000000000000
           H          3.425719806338    -1.108846980643    -0.028603676594     1.007825032070
           H          2.716285806338    -0.231576980643     1.294765323406     1.007825032070
           H          3.253474806338     0.947056019357    -1.478534676594     1.007825032070
           H          2.638582806338     1.845648019357    -0.103171676594     1.007825032070
           H          4.260970806338     1.192347019357    -0.064156676594     1.007825032070

  Charge       = 0
  Multiplicity = 1
  Basis Set: 6-31G*
  Basis Set:

    Orbital Energies (a.u.)
    -----------------------

    Doubly Occupied:

       1A    -20.551802     2A    -11.267235     3A    -11.215361
       4A    -11.215052     5A    -11.213643     6A    -11.210183
       7A    -11.208076     8A     -1.358654     9A     -1.086274
      10A     -1.033122    11A     -0.954206    12A     -0.875882
      13A     -0.807118    14A     -0.779218    15A     -0.692582
      16A     -0.661014    17A     -0.620902    18A     -0.607962
      19A     -0.589862    20A     -0.563233    21A     -0.542541
      22A     -0.517867    23A     -0.508056    24A     -0.491037
      25A     -0.477251    26A     -0.459019    27A     -0.456325
      28A     -0.443685    29A     -0.433374

  @DF-RHF Final Energy:  -310.21138480037609

   => Energetics <=

    Nuclear Repulsion Energy =            312.4731792385248355
    One-Electron Energy =               -1039.6881249223879422
    Two-Electron Energy =                 417.0035608834871823
    DFT Exchange-Correlation Energy =       0.0000000000000000
    Empirical Dispersion Energy =           0.0000000000000000
    PCM Polarization Energy =               0.0000000000000000
    EFP Energy =                            0.0000000000000000
    Total Energy =                       -310.2113848003759244

  Mulliken Charges: (a.u.)
   Center  Symbol    Alpha    Beta     Spin     Total
       1     H     0.28121  0.28121  0.00000  0.43758
       2     O     4.37175  4.37175  0.00000 -0.74349
       3     C     2.99087  2.99087  0.00000  0.01826
       4     C     3.15913  3.15913  0.00000 -0.31827
       5     H     0.43294  0.43294  0.00000  0.13413
       6     H     0.43259  0.43259  0.00000  0.13481
       7     C     3.16247  3.16247  0.00000 -0.32495
       8     H     0.41380  0.41380  0.00000  0.17240
       9     H     0.41466  0.41466  0.00000  0.17068
      10     C     3.15247  3.15247  0.00000 -0.30494
      11     H     0.41924  0.41924  0.00000  0.16152
      12     H     0.42518  0.42518  0.00000  0.14963
      13     C     3.15261  3.15261  0.00000 -0.30522
      14     H     0.42274  0.42274  0.00000  0.15452
      15     H     0.42100  0.42100  0.00000  0.15800
      16     C     3.24119  3.24119  0.00000 -0.48239
      17     H     0.42069  0.42069  0.00000  0.15862
      18     H     0.42369  0.42369  0.00000  0.15263
      19     H     0.42190  0.42190  0.00000  0.15620
      20     H     0.42056  0.42056  0.00000  0.15887
      21     H     0.41930  0.41930  0.00000  0.16140

   Total alpha = 29.00000, Total beta = 29.00000, Total charge =  0.00000
