  ==> Input File <==

--------------------------------------------------------------------------
set {
	reference rhf
	basis 6-31G*
}

set_num_threads( 4 )
memory 2 gb

molecule MOL {
0 1

H	 2.840066	 -0.528072	 0.820634
N	 2.434251	 -0.367735	 -0.081097
C	 1.267428	 0.496480	 0.024474
H	 2.174905	 -1.264901	 -0.445442
C	 -0.016086	 -0.325158	 -0.029487
H	 1.288818	 1.183521	 -0.816092
H	 1.267576	 1.109062	 0.929528
C	 -1.282277	 0.529072	 0.046735
H	 -0.012495	 -0.908639	 -0.945788
H	 -0.015903	 -1.041248	 0.791956
C	 -2.563920	 -0.301775	 -0.006060
H	 -1.284084	 1.244622	 -0.773004
H	 -1.271387	 1.115393	 0.963286
H	 -2.621848	 -0.873522	 -0.927727
H	 -3.445135	 0.329952	 0.047812
H	 -2.609542	 -1.004582	 0.821105

	symmetry c1
}
set optking {
	frozen_dihedral = ("
		1 2 3 6
	")
}

ee = optimize('scf')
oeprop('DIPOLE', 'QUADRUPOLE', 'MULLIKEN_CHARGES')
f=open( 'psi4out.xyz', 'w' )
f.write( "16  " )
f.write( str(ee) + "\n" )
f.write( MOL.save_string_xyz() )
f.close()
--------------------------------------------------------------------------

    Molecular point group: c1
  Charge       = 0
  Multiplicity = 1
  Basis Set: 6-31G*
  Basis Set:
  @DF-RHF Final Energy:  -212.31218396612158
    Total Energy =                       -212.3121839661216654
    Molecular point group: c1
  Basis Set: 6-31G*
  Basis Set:
  Basis Set: 6-31G*
  Basis Set:
  @DF-RHF Final Energy:  -212.31392130704319
    Total Energy =                       -212.3139213070431026
  Basis Set: 6-31G*
  Basis Set:
  Basis Set: 6-31G*
  Basis Set:
  @DF-RHF Final Energy:  -212.31417922278158
    Total Energy =                       -212.3141792227816040
  Basis Set: 6-31G*
  Basis Set:
  Basis Set: 6-31G*
  Basis Set:
  @DF-RHF Final Energy:  -212.31419269976107
    Total Energy =                       -212.3141926997610653
  Basis Set: 6-31G*
  Basis Set:
  Basis Set: 6-31G*
  Basis Set:
  @DF-RHF Final Energy:  -212.31420183112181
    Total Energy =                       -212.3142018311219772
  Basis Set: 6-31G*
  Basis Set:
  Basis Set: 6-31G*
  Basis Set:
  @DF-RHF Final Energy:  -212.31420321969520
    Total Energy =                       -212.3142032196949458
  Basis Set: 6-31G*
  Basis Set:
  Charge       = 0
  Multiplicity = 1
  Basis Set: 6-31G*
  Basis Set:

    Orbital Energies (a.u.)
    -----------------------

    Doubly Occupied:

       1A    -15.529188     2A    -11.239449     3A    -11.218158
       4A    -11.214862     5A    -11.210870     6A     -1.173634
       7A     -1.062189     8A     -0.959840     9A     -0.847760
      10A     -0.797687    11A     -0.673323    12A     -0.630510
      13A     -0.596202    14A     -0.587363    15A     -0.560024
      16A     -0.524042    17A     -0.506078    18A     -0.480668
      19A     -0.472543    20A     -0.465499    21A     -0.371305

  @DF-RHF Final Energy:  -212.31420337880601

   => Energetics <=

    Nuclear Repulsion Energy =            186.0328740863885457
    One-Electron Energy =                -654.4517633896798543
    Two-Electron Energy =                 256.1046859244852385
    DFT Exchange-Correlation Energy =       0.0000000000000000
    Empirical Dispersion Energy =           0.0000000000000000
    PCM Polarization Energy =               0.0000000000000000
    EFP Energy =                            0.0000000000000000
    Total Energy =                       -212.3142033788060417
    Molecular point group: c1
  Basis Set: 6-31G*
  Basis Set:

  -Total Gradient:
     Atom            X                  Y                   Z
    ------   -----------------  -----------------  -----------------
       1        0.001919714695     0.002975428142    -0.000204933771
       2       -0.002058499030    -0.003199868936     0.000707932937
       3       -0.001343075497    -0.001823090716    -0.002409613445
       4       -0.000000270256    -0.000007838755     0.000004693699
       5       -0.000038536433    -0.000013036035     0.000005554397
       6        0.001506778343     0.002101106232     0.001899062300
       7        0.000010157945    -0.000013055685    -0.000008652842
       8       -0.000024977849     0.000000308044     0.000017431476
       9       -0.000006104760    -0.000001337020    -0.000010103280
      10       -0.000015887529    -0.000008658885     0.000007724465
      11        0.000026036916    -0.000011122687    -0.000012840729
      12       -0.000000243223    -0.000000060257    -0.000003628139
      13        0.000009031841    -0.000000801061     0.000006901120
      14       -0.000002087364    -0.000008242397    -0.000002068313
      15        0.000020731662     0.000008692507    -0.000005187561
      16       -0.000002769458     0.000001577511     0.000007727686

  **** Optimization is complete! (in 7 steps) ****
    Final optimized geometry and variables:
    Molecular point group: c1

    Geometry (in Angstrom), charge = 0, multiplicity = 1:

    H            2.870289975182    -0.503018427496     0.847470011498
    N            2.490645339145    -0.319960247515    -0.058140085250
    C            1.271738874530     0.475160516063     0.013389668939
    H            2.348222398251    -1.192688742972    -0.525611277971
    C           -0.025933791019    -0.331986409267    -0.017765037980
    H            1.276898025236     1.204393985783    -0.792842195863
    H            1.308110678458     1.059190681855     0.928901155791
    C           -1.281036158569     0.540136392661     0.039498173317
    H           -0.047763003809    -0.933009854525    -0.926576677077
    H           -0.028424945110    -1.033587384364     0.815073103352
    C           -2.575163357157    -0.271508264613    -0.005374027399
    H           -1.268129202322     1.244109724226    -0.789650702077
    H           -1.262686050986     1.138674761930     0.947954222522
    H           -2.640014802229    -0.855337152126    -0.919167704879
    H           -3.446178589273     0.374999458156     0.036345245173
    H           -2.634703918424    -0.961345961404     0.831709938799

  Mulliken Charges: (a.u.)
   Center  Symbol    Alpha    Beta     Spin     Total
       1     H     0.33140  0.33140  0.00000  0.33720
       2     N     3.92966  3.92966  0.00000 -0.85931
       3     C     3.05140  3.05140  0.00000 -0.10280
       4     H     0.33223  0.33223  0.00000  0.33554
       5     C     3.16116  3.16116  0.00000 -0.32233
       6     H     0.41982  0.41982  0.00000  0.16036
       7     H     0.42433  0.42433  0.00000  0.15135
       8     C     3.15547  3.15547  0.00000 -0.31095
       9     H     0.42533  0.42533  0.00000  0.14934
      10     H     0.42526  0.42526  0.00000  0.14948
      11     C     3.23883  3.23883  0.00000 -0.47766
      12     H     0.42089  0.42089  0.00000  0.15821
      13     H     0.42253  0.42253  0.00000  0.15493
      14     H     0.42131  0.42131  0.00000  0.15738
      15     H     0.41866  0.41866  0.00000  0.16267
      16     H     0.42171  0.42171  0.00000  0.15658

   Total alpha = 21.00000, Total beta = 21.00000, Total charge =  0.00000
