                              Psi4 1.0.54 Driver

  ==> Input File <==

--------------------------------------------------------------------------
set {
	reference rhf
	basis cc-pvtz
}

set_num_threads( 4 )
memory 2 gb

molecule MOL {
0 1

H	 -4.340537	 -0.784487	 0.000000
O	 -3.958786	 0.074640	 0.000000
C	 -2.613554	 0.009900	 0.000000
C	 -1.973435	 -0.020906	 -1.227792
C	 -1.869944	 -0.025887	 1.163894
H	 -2.560247	 0.007334	 -2.124294
C	 -0.599055	 -0.087049	 -1.286108
H	 -2.359395	 -0.002332	 2.120162
C	 -0.489848	 -0.092305	 1.103553
H	 -0.105727	 -0.110791	 -2.236808
C	 0.140078	 -0.122620	 -0.119046
H	 0.082672	 -0.119858	 2.008631
Br	 2.034334	 -0.213782	 -0.204843

	symmetry c1
}
set optking {
	frozen_dihedral = ("
		4 3 2 1
	")
}

ee,wfn = optimize('scf', return_wfn=True)
oeprop( wfn, 'DIPOLE', 'QUADRUPOLE', 'MULLIKEN_CHARGES')
f=open( 'psi4out.xyz', 'w' )
f.write( "13  " )
f.write( str(ee) + "\n" )
f.write( MOL.save_string_xyz() )
f.close()
--------------------------------------------------------------------------

    Molecular point group: c1
  Charge       = 0
  Multiplicity = 1
  Basis Set: CC-PVTZ
  Basis Set:
  @DF-RHF Final Energy: -2877.54182289672281
    Total Energy =                      -2877.5418228967246250
    Molecular point group: c1
  Basis Set: CC-PVTZ
  Basis Set:
  Basis Set: CC-PVTZ
  Basis Set:
  @DF-RHF Final Energy: -2877.54269884586120
    Total Energy =                      -2877.5426988458598316
  Basis Set: CC-PVTZ
  Basis Set:
  Basis Set: CC-PVTZ
  Basis Set:
  @DF-RHF Final Energy: -2877.54275765042530
    Total Energy =                      -2877.5427576504289391
  Basis Set: CC-PVTZ
  Basis Set:
  Basis Set: CC-PVTZ
  Basis Set:
  @DF-RHF Final Energy: -2877.54276410507828
    Total Energy =                      -2877.5427641050796410
  Basis Set: CC-PVTZ
  Basis Set:
  Charge       = 0
  Multiplicity = 1
  Basis Set: CC-PVTZ
  Basis Set:

    Orbital Energies (a.u.)
    -----------------------

    Doubly Occupied:

       1A   -490.021053     2A    -65.161387     3A    -58.516611
       4A    -58.515246     5A    -58.515230     6A    -20.582256
       7A    -11.302691     8A    -11.294285     9A    -11.251892
      10A    -11.251844    11A    -11.242189    12A    -11.242063
      13A     -9.835192    14A     -7.446815    15A     -7.440025
      16A     -7.440007    17A     -3.190508    18A     -3.186965
      19A     -3.186817    20A     -3.178181    21A     -3.178177
      22A     -1.409881    23A     -1.180844    24A     -1.067804
      25A     -1.041841    26A     -0.970627    27A     -0.862193
      28A     -0.826336    29A     -0.752585    30A     -0.677004
      31A     -0.665203    32A     -0.646594    33A     -0.610490
      34A     -0.599738    35A     -0.547088    36A     -0.532865
      37A     -0.502655    38A     -0.486490    39A     -0.435676
      40A     -0.415814    41A     -0.358930    42A     -0.329897

  @DF-RHF Final Energy: -2877.54276535595045

   => Energetics <=

    Nuclear Repulsion Energy =            525.1197772080645336
    One-Electron Energy =               -5041.5251118479263823
    Two-Electron Energy =                1638.8625692839129897
    DFT Exchange-Correlation Energy =       0.0000000000000000
    Empirical Dispersion Energy =           0.0000000000000000
    PCM Polarization Energy =               0.0000000000000000
    EFP Energy =                            0.0000000000000000
    Total Energy =                      -2877.5427653559481769
    Molecular point group: c1
  Basis Set: CC-PVTZ
  Basis Set:

  -Total Gradient:
     Atom            X                  Y                   Z
    ------   -----------------  -----------------  -----------------
       1       -0.000014903042    -0.000010761269     0.000098832206
       2       -0.000178982350     0.000023393194    -0.000140003796
       3        0.000262128157    -0.000044838104     0.000215934653
       4        0.000001642692     0.000058609980    -0.000103687394
       5       -0.000152918011    -0.000027555949    -0.000034484276
       6        0.000026429607     0.000007317096     0.000021849450
       7       -0.000080819888    -0.000040859473    -0.000055609607
       8       -0.000030082500     0.000011184537    -0.000012229973
       9        0.000148426788    -0.000024007207    -0.000096969941
      10        0.000042924988     0.000004707218     0.000010141094
      11        0.000019709460     0.000047416946     0.000135646532
      12       -0.000013137488     0.000000974534    -0.000009394103
      13       -0.000030418128    -0.000005581467    -0.000030024900

  **** Optimization is complete! (in 5 steps) ****
    Final optimized geometry and variables:
    Molecular point group: c1

    Geometry (in Angstrom), charge = 0, multiplicity = 1:

    H           -4.359685990946    -0.650405694706     0.154131387496
    O           -3.964005865080     0.203766981079     0.158273563917
    C           -2.603153073097     0.106265575063     0.103483317781
    C           -1.961037453056     0.084128407276    -1.119027572942
    C           -1.866778679314     0.081476782382     1.270979516357
    H           -2.542083931029     0.121237791063    -2.019647884030
    C           -0.582139608944     0.026054315456    -1.176642457173
    H           -2.375432230436     0.115923467734     2.214478631673
    C           -0.487195971901     0.024146604664     1.219358956337
    H           -0.082569579559     0.009068709202    -2.124037913241
    C            0.145408032371    -0.005424898605    -0.005385528804
    H            0.085164429042     0.005355070642     2.124566234697
    BR           2.040208698717    -0.084353721894    -0.081058374857

  Mulliken Charges: (a.u.)
   Center  Symbol    Alpha    Beta     Spin     Total
       1     H     0.38735  0.38735  0.00000  0.22530
       2     O     4.18891  4.18891  0.00000 -0.37782
       3     C     2.88203  2.88203  0.00000  0.23595
       4     C     3.09311  3.09311  0.00000 -0.18622
       5     C     3.09241  3.09241  0.00000 -0.18482
       6     H     0.41375  0.41375  0.00000  0.17250
       7     C     3.08918  3.08918  0.00000 -0.17837
       8     H     0.41359  0.41359  0.00000  0.17282
       9     C     3.08918  3.08918  0.00000 -0.17835
      10     H     0.41004  0.41004  0.00000  0.17991
      11     C     2.96648  2.96648  0.00000  0.06704
      12     H     0.41002  0.41002  0.00000  0.17996
      13    BR    17.56395 17.56395  0.00000 -0.12790

   Total alpha = 42.00000, Total beta = 42.00000, Total charge =  0.00000

*** Psi4 exiting successfully. Buy a developer a beer!
