  ==> Input File <==

--------------------------------------------------------------------------
set {
	reference rhf
	basis 6-31G*
}

set_num_threads( 4 )
memory 2 gb

molecule MOL {
0 1

H	 -2.646374	 -0.642757	 1.268656
C	 -2.083525	 -0.384536	 0.393091
O	 -0.807605	 -0.127164	 0.768327
F	 -2.118945	 -1.383102	 -0.486752
F	 -2.621877	 0.670592	 -0.209486
C	 0.084052	 0.273579	 -0.209957
C	 1.353033	 -0.546803	 -0.018071
Cl	 0.433844	 2.004619	 -0.074457
H	 -0.288836	 0.092657	 -1.202930
F	 2.263949	 -0.197648	 -0.901509
F	 1.067705	 -1.819904	 -0.205789
F	 1.855523	 -0.406879	 1.184384

	symmetry c1
}
set optking {
	frozen_dihedral = ("
		10 7 6 9
	")
}

ee = optimize('scf')
oeprop('DIPOLE', 'QUADRUPOLE', 'MULLIKEN_CHARGES')
f=open( 'psi4out.xyz', 'w' )
f.write( "12  " )
f.write( str(ee) + "\n" )
f.write( MOL.save_string_xyz() )
f.close()
--------------------------------------------------------------------------

    Molecular point group: c1
  Charge       = 0
  Multiplicity = 1
  Basis Set: 6-31G*
  Basis Set:
  @DF-RHF Final Energy: -1146.31435784316272
    Total Energy =                      -1146.3143578431627247
    Molecular point group: c1
  Basis Set: 6-31G*
  Basis Set:
  Basis Set: 6-31G*
  Basis Set:
  @DF-RHF Final Energy: -1146.31436270734957
    Total Energy =                      -1146.3143627073491189
  Basis Set: 6-31G*
  Basis Set:
  Basis Set: 6-31G*
  Basis Set:
  @DF-RHF Final Energy: -1146.31436579478463
    Total Energy =                      -1146.3143657947839529
  Basis Set: 6-31G*
  Basis Set:
  Charge       = 0
  Multiplicity = 1
  Basis Set: 6-31G*
  Basis Set:

    Orbital Energies (a.u.)
    -----------------------

    Doubly Occupied:

       1A   -104.843880     2A    -26.359852     3A    -26.358587
       4A    -26.357217     5A    -26.346477     6A    -26.346010
       7A    -20.649572     8A    -11.527334     9A    -11.489526
      10A    -11.400678    11A    -10.578602    12A     -8.047965
      13A     -8.044418    14A     -8.044330    15A     -1.760904
      16A     -1.717780    17A     -1.657324    18A     -1.656012
      19A     -1.638428    20A     -1.485904    21A     -1.179939
      22A     -1.051922    23A     -0.986453    24A     -0.919467
      25A     -0.859747    26A     -0.852113    27A     -0.845308
      28A     -0.823757    29A     -0.810979    30A     -0.789687
      31A     -0.727287    32A     -0.725772    33A     -0.705973
      34A     -0.701630    35A     -0.678257    36A     -0.674718
      37A     -0.658079    38A     -0.657263    39A     -0.645546
      40A     -0.634043    41A     -0.597256    42A     -0.580863
      43A     -0.524227    44A     -0.476778    45A     -0.468933

  @DF-RHF Final Energy: -1146.31436590540761

   => Energetics <=

    Nuclear Repulsion Energy =            738.1643771321943177
    One-Electron Energy =               -3059.1838906797374875
    Two-Electron Energy =                1174.7051476421354437
    DFT Exchange-Correlation Energy =       0.0000000000000000
    Empirical Dispersion Energy =           0.0000000000000000
    PCM Polarization Energy =               0.0000000000000000
    EFP Energy =                            0.0000000000000000
    Total Energy =                      -1146.3143659054078398
    Molecular point group: c1
  Basis Set: 6-31G*
  Basis Set:

  -Total Gradient:
     Atom            X                  Y                   Z
    ------   -----------------  -----------------  -----------------
       1        0.000006398052     0.000003384788     0.000003179405
       2       -0.000031620587    -0.000024691164    -0.000005946585
       3        0.000001651359     0.000009347205    -0.000013428159
       4        0.000008804791     0.000016126731     0.000006653011
       5       -0.000006644847    -0.000009791860     0.000000235101
       6        0.000508220235     0.000741538605    -0.000149814790
       7       -0.000342669770    -0.000613443001    -0.000413214205
       8        0.000020615027     0.000029301404    -0.000003205254
       9       -0.000371454028    -0.000518991541     0.000236213563
      10        0.000217242163     0.000396548070     0.000370098232
      11       -0.000002326702    -0.000027952159     0.000007859830
      12       -0.000008215702    -0.000001377154    -0.000038630153

  **** Optimization is complete! (in 4 steps) ****
    Final optimized geometry and variables:
    Molecular point group: c1

    Geometry (in Angstrom), charge = 0, multiplicity = 1:

    H           -2.644899125547    -0.647075899304     1.266914134175
    C           -2.082840396290    -0.385498494357     0.391896985985
    O           -0.806512085625    -0.129938223137     0.766734159756
    F           -2.119110623129    -1.380943433907    -0.491538857165
    F           -2.621701558723     0.671821020705    -0.206359090729
    C            0.084769326178     0.274371243389    -0.211098866979
    C            1.353136588709    -0.547249319630    -0.019203825112
    CL           0.432253067300     2.005008535786    -0.071988620195
    H           -0.290733074670     0.091592103204    -1.202821561383
    F            2.264876019805    -0.204273955432    -0.903659289910
    F            1.065194514686    -1.820723503130    -0.199214181788
    F            1.857227355167    -0.401625132958     1.182287147297

  Mulliken Charges: (a.u.)
   Center  Symbol    Alpha    Beta     Spin     Total
       1     H     0.40119  0.40119  0.00000  0.19762
       2     C     2.56562  2.56562  0.00000  0.86875
       3     O     4.29842  4.29842  0.00000 -0.59685
       4     F     4.68631  4.68631  0.00000 -0.37261
       5     F     4.68427  4.68427  0.00000 -0.36853
       6     C     3.04692  3.04692  0.00000 -0.09385
       7     C     2.43340  2.43340  0.00000  1.13319
       8    CL     8.49890  8.49890  0.00000  0.00221
       9     H     0.36679  0.36679  0.00000  0.26641
      10     F     4.67365  4.67365  0.00000 -0.34729
      11     F     4.67585  4.67585  0.00000 -0.35169
      12     F     4.66868  4.66868  0.00000 -0.33736

   Total alpha = 45.00000, Total beta = 45.00000, Total charge = -0.00000
