  ==> Input File <==

--------------------------------------------------------------------------
set {
	reference rhf
	basis 6-31G*
}

set_num_threads( 4 )
memory 2 gb

molecule MOL {
0 1

H	 3.643279	 -1.045227	 -0.441304
O	 2.773595	 -1.229908	 -0.100279
C	 2.025268	 -0.139181	 -0.263798
C	 0.624473	 -0.343591	 0.253101
O	 2.452802	 0.851042	 -0.761482
C	 -0.265902	 0.883932	 0.072916
H	 0.224177	 -1.216050	 -0.252814
H	 0.705537	 -0.619412	 1.301483
C	 -1.728698	 0.646073	 0.462102
H	 -0.209144	 1.219470	 -0.958188
H	 0.135059	 1.692851	 0.673903
C	 -2.482460	 -0.343073	 -0.431425
H	 -2.245265	 1.602650	 0.432430
H	 -1.779332	 0.308348	 1.496285
C	 -3.960546	 -0.461025	 -0.060175
H	 -2.395034	 -0.026811	 -1.468912
H	 -2.024850	 -1.327147	 -0.371646
H	 -4.472726	 -1.168004	 -0.705284
H	 -4.465146	 0.496508	 -0.151489
H	 -4.081218	 -0.800940	 0.964585

	symmetry c1
}
set optking {
	frozen_dihedral = ("
		7 4 6 10
	")
}

ee = optimize('scf')
oeprop('DIPOLE', 'QUADRUPOLE', 'MULLIKEN_CHARGES')
f=open( 'psi4out.xyz', 'w' )
f.write( "20  " )
f.write( str(ee) + "\n" )
f.write( MOL.save_string_xyz() )
f.close()
--------------------------------------------------------------------------

    Molecular point group: c1
  Charge       = 0
  Multiplicity = 1
  Basis Set: 6-31G*
  Basis Set:
  @DF-RHF Final Energy:  -383.94842058706490
    Total Energy =                       -383.9484205870652431
    Molecular point group: c1
  Basis Set: 6-31G*
  Basis Set:
  Basis Set: 6-31G*
  Basis Set:
  @DF-RHF Final Energy:  -383.94823610594153
    Total Energy =                       -383.9482361059415894
  Basis Set: 6-31G*
  Basis Set:
  Basis Set: 6-31G*
  Basis Set:
  @DF-RHF Final Energy:  -383.94848576369452
    Total Energy =                       -383.9484857636944071
  Basis Set: 6-31G*
  Basis Set:
  Basis Set: 6-31G*
  Basis Set:
  @DF-RHF Final Energy:  -383.94849254942966
    Total Energy =                       -383.9484925494295453
  Basis Set: 6-31G*
  Basis Set:
  Basis Set: 6-31G*
  Basis Set:
  @DF-RHF Final Energy:  -383.94843388227264
    Total Energy =                       -383.9484338822724681
  Basis Set: 6-31G*
  Basis Set:
  Basis Set: 6-31G*
  Basis Set:
  @DF-RHF Final Energy:  -383.94849825999631
    Total Energy =                       -383.9484982599963132
  Basis Set: 6-31G*
  Basis Set:
  Charge       = 0
  Multiplicity = 1
  Basis Set: 6-31G*
  Basis Set:

    Orbital Energies (a.u.)
    -----------------------

    Doubly Occupied:

       1A    -20.612580     2A    -20.551677     3A    -11.381327
       4A    -11.240091     5A    -11.222928     6A    -11.220770
       7A    -11.220112     8A    -11.212346     9A     -1.474657
      10A     -1.365704    11A     -1.095978    12A     -1.041066
      13A     -0.961220    14A     -0.869050    15A     -0.815694
      16A     -0.777684    17A     -0.699600    18A     -0.690515
      19A     -0.663047    20A     -0.635652    21A     -0.603460
      22A     -0.593990    23A     -0.575407    24A     -0.556726
      25A     -0.538241    26A     -0.512885    27A     -0.495482
      28A     -0.479251    29A     -0.471334    30A     -0.467484
      31A     -0.456820    32A     -0.443824

  @DF-RHF Final Energy:  -383.94849842644527

   => Energetics <=

    Nuclear Repulsion Energy =            375.9668701754789595
    One-Electron Energy =               -1267.9375291141759590
    Two-Electron Energy =                 508.0221605122516166
    DFT Exchange-Correlation Energy =       0.0000000000000000
    Empirical Dispersion Energy =           0.0000000000000000
    PCM Polarization Energy =               0.0000000000000000
    EFP Energy =                            0.0000000000000000
    Total Energy =                       -383.9484984264453260
    Molecular point group: c1
  Basis Set: 6-31G*
  Basis Set:

  -Total Gradient:
     Atom            X                  Y                   Z
    ------   -----------------  -----------------  -----------------
       1        0.000001028647    -0.000002503806     0.000001243515
       2        0.000027461560     0.000018296654     0.000033987521
       3       -0.000035462584    -0.000049108703    -0.000124669473
       4        0.001276806742     0.000702664829    -0.001496618998
       5        0.000027826253     0.000013363516     0.000044451395
       6       -0.001632301613    -0.001230576820    -0.000098803610
       7       -0.000772500298    -0.000355555596     0.001269450970
       8       -0.000017565931    -0.000001283589    -0.000003392346
       9       -0.000016978953     0.000021730909     0.000012147616
      10        0.001164980904     0.000903600371     0.000345622599
      11        0.000000207594    -0.000006770686    -0.000002345074
      12        0.000008259774    -0.000024601172     0.000017664370
      13       -0.000004112942     0.000008257333     0.000005014434
      14       -0.000027049043    -0.000004644154    -0.000006274422
      15       -0.000002147988     0.000011932781    -0.000007566679
      16       -0.000011166733    -0.000001715515    -0.000000126982
      17        0.000007132274     0.000000349632     0.000006423216
      18       -0.000000521582     0.000007693087    -0.000006327866
      19        0.000004526668     0.000000949754     0.000012957529
      20        0.000001577244    -0.000012078825    -0.000002837715

  **** Optimization is complete! (in 7 steps) ****
    Final optimized geometry and variables:
    Molecular point group: c1

    Geometry (in Angstrom), charge = 0, multiplicity = 1:

    H            3.693431393594    -0.991337988612    -0.274818847406
    O            2.820208933154    -1.180403156434     0.054551102212
    C            2.061217739470    -0.103071182123    -0.144258337446
    C            0.654955841093    -0.314114882345     0.352884332329
    O            2.485276249346     0.882995025295    -0.653096527507
    C           -0.246430038048     0.902187675823     0.150324001934
    H            0.265938754174    -1.200586876266    -0.137058143337
    H            0.723510817515    -0.573822794091     1.406352063860
    C           -1.703910502196     0.668015829362     0.560996650907
    H           -0.193270373664     1.222199908339    -0.885287422921
    H            0.157423970570     1.725443826393     0.731047730906
    C           -2.482095003806    -0.294900678519    -0.340430686261
    H           -2.213346703459     1.628778473556     0.559559174014
    H           -1.740380729519     0.309877924121     1.588916958260
    C           -3.950091341959    -0.422110995259     0.066238247741
    H           -2.421404783564     0.052026669624    -1.369796832107
    H           -2.025528001225    -1.281017418360    -0.322550460000
    H           -4.481493778120    -1.105483981479    -0.588667244114
    H           -4.453989598122     0.539089374656     0.021080715261
    H           -4.044492840943    -0.796530224972     1.081687819983

  Mulliken Charges: (a.u.)
   Center  Symbol    Alpha    Beta     Spin     Total
       1     H     0.26784  0.26784  0.00000  0.46433
       2     O     4.35154  4.35154  0.00000 -0.70308
       3     C     2.62197  2.62197  0.00000  0.75606
       4     C     3.21313  3.21313  0.00000 -0.42627
       5     O     4.27931  4.27931  0.00000 -0.55861
       6     C     3.15488  3.15488  0.00000 -0.30977
       7     H     0.39698  0.39698  0.00000  0.20605
       8     H     0.39883  0.39883  0.00000  0.20234
       9     C     3.15566  3.15566  0.00000 -0.31132
      10     H     0.40936  0.40936  0.00000  0.18128
      11     H     0.41079  0.41079  0.00000  0.17843
      12     C     3.15435  3.15435  0.00000 -0.30870
      13     H     0.41774  0.41774  0.00000  0.16452
      14     H     0.42386  0.42386  0.00000  0.15229
      15     C     3.23929  3.23929  0.00000 -0.47858
      16     H     0.42090  0.42090  0.00000  0.15819
      17     H     0.42326  0.42326  0.00000  0.15347
      18     H     0.41828  0.41828  0.00000  0.16345
      19     H     0.42066  0.42066  0.00000  0.15868
      20     H     0.42137  0.42137  0.00000  0.15725

   Total alpha = 32.00000, Total beta = 32.00000, Total charge =  0.00000
