                              Psi4 1.0.54 Driver

  ==> Input File <==

--------------------------------------------------------------------------
set {
	reference rhf
	basis cc-pvtz
}

set_num_threads( 4 )
memory 2 gb

molecule MOL {
0 1

O	 1.538848	 -0.241772	 -0.581067
C	 0.576499	 0.134701	 -0.003900
C	 -0.765656	 -0.550508	 -0.002152
O	 0.553360	 1.238431	 0.724946
C	 -1.945526	 0.411052	 0.000603
H	 -0.794329	 -1.203792	 -0.868145
H	 -0.791555	 -1.205429	 0.862701
C	 -3.282915	 -0.321280	 0.002596
H	 -1.880300	 1.059126	 -0.864925
H	 -1.877207	 1.057892	 0.866807
H	 -3.388495	 -0.952755	 -0.873419
H	 -4.107811	 0.380864	 0.004116
H	 -3.385717	 -0.953283	 0.878571
C	 1.749665	 1.986797	 0.807488
H	 2.540059	 1.394789	 1.244361
H	 1.527500	 2.833509	 1.436306
H	 2.058932	 2.320342	 -0.171871

	symmetry c1
}
set optking {
	frozen_dihedral = ("
		1 2 3 6
	")
}

ee,wfn = optimize('scf', return_wfn=True)
oeprop( wfn, 'DIPOLE', 'QUADRUPOLE', 'MULLIKEN_CHARGES')
f=open( 'psi4out.xyz', 'w' )
f.write( "17  " )
f.write( str(ee) + "\n" )
f.write( MOL.save_string_xyz() )
f.close()
--------------------------------------------------------------------------

    Molecular point group: c1
  Charge       = 0
  Multiplicity = 1
  Basis Set: CC-PVTZ
  Basis Set:
  @DF-RHF Final Energy:  -345.03281011537183
    Total Energy =                       -345.0328101153716602
    Molecular point group: c1
  Basis Set: CC-PVTZ
  Basis Set:
  Basis Set: CC-PVTZ
  Basis Set:
  @DF-RHF Final Energy:  -345.03096456733880
    Total Energy =                       -345.0309645673389127
  Basis Set: CC-PVTZ
  Basis Set:
  Basis Set: CC-PVTZ
  Basis Set:
  @DF-RHF Final Energy:  -345.03318080378358
    Total Energy =                       -345.0331808037837504
  Basis Set: CC-PVTZ
  Basis Set:
  Basis Set: CC-PVTZ
  Basis Set:
  @DF-RHF Final Energy:  -345.03351819128409
    Total Energy =                       -345.0335181912842017
  Basis Set: CC-PVTZ
  Basis Set:
  Basis Set: CC-PVTZ
  Basis Set:
  @DF-RHF Final Energy:  -345.03354107471500
    Total Energy =                       -345.0335410747151172
  Basis Set: CC-PVTZ
  Basis Set:
  Basis Set: CC-PVTZ
  Basis Set:
  @DF-RHF Final Energy:  -345.03354430576599
    Total Energy =                       -345.0335443057664975
  Basis Set: CC-PVTZ
  Basis Set:
  Charge       = 0
  Multiplicity = 1
  Basis Set: CC-PVTZ
  Basis Set:

    Orbital Energies (a.u.)
    -----------------------

    Doubly Occupied:

       1A    -20.598324     2A    -20.531923     3A    -11.364574
       4A    -11.279338     5A    -11.234113     6A    -11.226534
       7A    -11.215741     8A     -1.473066     9A     -1.364822
      10A     -1.084795    11A     -0.999102    12A     -0.943346
      13A     -0.832213    14A     -0.776783    15A     -0.699057
      16A     -0.685267    17A     -0.675795    18A     -0.639325
      19A     -0.597514    20A     -0.575574    21A     -0.555734
      22A     -0.539406    23A     -0.525956    24A     -0.514579
      25A     -0.490311    26A     -0.482521    27A     -0.459192
      28A     -0.434421

  @DF-RHF Final Energy:  -345.03354452115570

   => Energetics <=

    Nuclear Repulsion Energy =            314.7910900857831393
    One-Electron Energy =               -1094.0506190679452629
    Two-Electron Energy =                 434.2259844610064192
    DFT Exchange-Correlation Energy =       0.0000000000000000
    Empirical Dispersion Energy =           0.0000000000000000
    PCM Polarization Energy =               0.0000000000000000
    EFP Energy =                            0.0000000000000000
    Total Energy =                       -345.0335445211557044
    Molecular point group: c1
  Basis Set: CC-PVTZ
  Basis Set:

  -Total Gradient:
     Atom            X                  Y                   Z
    ------   -----------------  -----------------  -----------------
       1        0.000190445394    -0.000471123171     0.000772341580
       2       -0.000334611766     0.000774850212    -0.001232422618
       3        0.000451885409    -0.001006258491     0.000940784348
       4        0.000020090281     0.000065468621     0.000026502017
       5       -0.000007653625     0.000003075663    -0.000021839440
       6       -0.000300823993     0.000665112412    -0.000506424142
       7       -0.000000564525    -0.000011368133     0.000015917854
       8        0.000006302983    -0.000001904137     0.000011923779
       9        0.000002571154     0.000008777764    -0.000013627324
      10        0.000000817487    -0.000003115787     0.000007011904
      11        0.000002286601     0.000003061470    -0.000011178933
      12       -0.000004020387     0.000007358536     0.000001402431
      13       -0.000001495930    -0.000011713127     0.000011511454
      14       -0.000040291028    -0.000033855140     0.000002053000
      15        0.000012753480    -0.000008311855     0.000007989374
      16       -0.000003609852     0.000012864080     0.000007609675
      17        0.000005918324     0.000007081082    -0.000019554960

  **** Optimization is complete! (in 7 steps) ****
    Final optimized geometry and variables:
    Molecular point group: c1

    Geometry (in Angstrom), charge = 0, multiplicity = 1:

    O            1.708756533997    -0.700493554455    -0.683768671492
    C            0.762299261783    -0.257744202483    -0.126281280168
    C           -0.607191587288    -0.890141356740    -0.157271932941
    O            0.811455396775     0.827431108609     0.626532803320
    C           -1.783858070136     0.083656463396    -0.190399915629
    H           -0.623510722572    -1.543383886309    -1.018563681877
    H           -0.674179708039    -1.520698951090     0.725150826845
    C           -3.120750884864    -0.644546802455    -0.276262399057
    H           -1.677699496579     0.747094236208    -1.043023808207
    H           -1.762629772833     0.709880690985     0.691673524927
    H           -3.180394590258    -1.255577569838    -1.170431400024
    H           -3.943853877335     0.059473821049    -0.300998156479
    H           -3.267780090736    -1.295563281473     0.579156582564
    C            2.063689522467     1.470521324742     0.755219700415
    H            2.789106950654     0.805633212868     1.199911218590
    H            1.896445722404     2.321783787790     1.395017782657
    H            2.426403850809     1.793623229332    -0.209101952136

  Mulliken Charges: (a.u.)
   Center  Symbol    Alpha    Beta     Spin     Total
       1     O     4.20038  4.20038  0.00000 -0.40076
       2     C     2.81282  2.81282  0.00000  0.37436
       3     C     3.08122  3.08122  0.00000 -0.16245
       4     O     4.14600  4.14600  0.00000 -0.29199
       5     C     3.08625  3.08625  0.00000 -0.17249
       6     H     0.43657  0.43657  0.00000  0.12687
       7     H     0.44663  0.44663  0.00000  0.10674
       8     C     3.15188  3.15188  0.00000 -0.30376
       9     H     0.45067  0.45067  0.00000  0.09867
      10     H     0.44412  0.44412  0.00000  0.11176
      11     H     0.45360  0.45360  0.00000  0.09281
      12     H     0.44610  0.44610  0.00000  0.10780
      13     H     0.45470  0.45470  0.00000  0.09059
      14     C     3.03579  3.03579  0.00000 -0.07158
      15     H     0.45339  0.45339  0.00000  0.09322
      16     H     0.44619  0.44619  0.00000  0.10763
      17     H     0.45371  0.45371  0.00000  0.09258

   Total alpha = 28.00000, Total beta = 28.00000, Total charge =  0.00000

*** Psi4 exiting successfully. Buy a developer a beer!
