  ==> Input File <==

--------------------------------------------------------------------------
set {
	reference rhf
	basis 6-31G*
}

set_num_threads( 4 )
memory 2 gb

molecule MOL {
0 1

H	 -3.420663	 1.227371	 -1.044276
O	 -3.452007	 0.283848	 -0.965577
C	 -3.181085	 -0.079926	 0.364119
C	 -1.765924	 0.277073	 0.805136
H	 -3.327791	 -1.152017	 0.410903
H	 -3.905698	 0.375695	 1.036898
C	 -1.599062	 1.747701	 1.189750
H	 -1.486183	 -0.356952	 1.646990
H	 -1.081780	 0.025795	 -0.003583
C	 -0.181295	 2.090183	 1.652162
H	 -2.309585	 1.994270	 1.972739
H	 -1.859609	 2.369259	 0.334663
C	 -0.020510	 3.565185	 2.029789
H	 0.076260	 1.459489	 2.499694
H	 0.526811	 1.843772	 0.861927
C	 1.404959	 3.977094	 2.415175
H	 -0.696151	 3.802037	 2.850220
H	 -0.340501	 4.176469	 1.188507
C	 1.928080	 3.331598	 3.699731
H	 1.430955	 5.057693	 2.533159
H	 2.080490	 3.746039	 1.593911
H	 1.265245	 3.535447	 4.536531
H	 2.909320	 3.720282	 3.954543
H	 2.020084	 2.254670	 3.605255

	symmetry c1
}
set optking {
	frozen_dihedral = ("
		7 4 3 2
	")
}

ee = optimize('scf')
oeprop('DIPOLE', 'QUADRUPOLE', 'MULLIKEN_CHARGES')
f=open( 'psi4out.xyz', 'w' )
f.write( "24  " )
f.write( str(ee) + "\n" )
f.write( MOL.save_string_xyz() )
f.close()
--------------------------------------------------------------------------

    Molecular point group: c1
  Charge       = 0
  Multiplicity = 1
  Basis Set: 6-31G*
  Basis Set:
  @DF-RHF Final Energy:  -349.24589679936236
    Total Energy =                       -349.2458967993625834
    Molecular point group: c1
  Basis Set: 6-31G*
  Basis Set:
  Basis Set: 6-31G*
  Basis Set:
  @DF-RHF Final Energy:  -349.24610378840839
    Total Energy =                       -349.2461037884083908
  Basis Set: 6-31G*
  Basis Set:
  Basis Set: 6-31G*
  Basis Set:
  @DF-RHF Final Energy:  -349.24612998504733
    Total Energy =                       -349.2461299850472187
  Basis Set: 6-31G*
  Basis Set:
  Basis Set: 6-31G*
  Basis Set:
  @DF-RHF Final Energy:  -349.24612505910602
    Total Energy =                       -349.2461250591061344
  Basis Set: 6-31G*
  Basis Set:
  Basis Set: 6-31G*
  Basis Set:
  @DF-RHF Final Energy:  -349.24613495960347
    Total Energy =                       -349.2461349596035234
  Basis Set: 6-31G*
  Basis Set:
  Basis Set: 6-31G*
  Basis Set:
  @DF-RHF Final Energy:  -349.24613734158294
    Total Energy =                       -349.2461373415823687
  Basis Set: 6-31G*
  Basis Set:
  Charge       = 0
  Multiplicity = 1
  Basis Set: 6-31G*
  Basis Set:

    Orbital Energies (a.u.)
    -----------------------

    Doubly Occupied:

       1A    -20.551864     2A    -11.266739     3A    -11.221382
       4A    -11.217215     5A    -11.217017     6A    -11.216047
       7A    -11.215355     8A    -11.209701     9A     -1.358169
      10A     -1.093082    11A     -1.050889    12A     -0.987729
      13A     -0.918492    14A     -0.853024    15A     -0.799593
      16A     -0.780631    17A     -0.691627    18A     -0.655307
      19A     -0.623197    20A     -0.615558    21A     -0.596471
      22A     -0.587453    23A     -0.562775    24A     -0.536007
      25A     -0.529828    26A     -0.508342    27A     -0.492302
      28A     -0.486218    29A     -0.475723    30A     -0.462950
      31A     -0.458190    32A     -0.444864    33A     -0.422407

  @DF-RHF Final Energy:  -349.24613769063558

   => Energetics <=

    Nuclear Repulsion Energy =            383.1626957777588132
    One-Electron Energy =               -1232.6053664515045512
    Two-Electron Energy =                 500.1965329831102736
    DFT Exchange-Correlation Energy =       0.0000000000000000
    Empirical Dispersion Energy =           0.0000000000000000
    PCM Polarization Energy =               0.0000000000000000
    EFP Energy =                            0.0000000000000000
    Total Energy =                       -349.2461376906354644
    Molecular point group: c1
  Basis Set: 6-31G*
  Basis Set:

  -Total Gradient:
     Atom            X                  Y                   Z
    ------   -----------------  -----------------  -----------------
       1       -0.000001417140     0.000000500578    -0.000018516935
       2        0.000942758412    -0.002609208780    -0.000841537540
       3       -0.001608105957     0.003316884943     0.002186790801
       4        0.001370812707    -0.000206261021    -0.003840921986
       5       -0.000011149460     0.000019908928    -0.000027989567
       6       -0.000035547270    -0.000026247493     0.000025012417
       7       -0.000670420099    -0.000558278331     0.002524972265
       8        0.000014881208     0.000014577816    -0.000024429085
       9        0.000028198387    -0.000027776449    -0.000007219634
      10       -0.000045693436     0.000023413495     0.000032197032
      11        0.000026623304     0.000030434638    -0.000003243081
      12        0.000018532699     0.000020100109    -0.000001008643
      13        0.000008132991     0.000008424954    -0.000002907941
      14       -0.000028171230    -0.000010987423    -0.000009742722
      15       -0.000019263605     0.000001478749     0.000010729954
      16        0.000003572708     0.000012957909    -0.000014930268
      17        0.000010422018     0.000001116047     0.000008349985
      18       -0.000015272930    -0.000009275099    -0.000001999764
      19       -0.000001431296    -0.000006950255     0.000001513892
      20       -0.000002019012    -0.000003858360     0.000001698953
      21        0.000008696767     0.000010082424    -0.000002503171
      22        0.000004478939     0.000003877911     0.000001139737
      23       -0.000000247656    -0.000005160701    -0.000004483554
      24        0.000001628955     0.000000245419     0.000009028868

  **** Optimization is complete! (in 7 steps) ****
    Final optimized geometry and variables:
    Molecular point group: c1

    Geometry (in Angstrom), charge = 0, multiplicity = 1:

    H           -2.558203943031    -0.665883918832    -2.441669889243
    O           -2.518679965720    -1.608028059686    -2.357911157571
    C           -2.285575570742    -1.956676510686    -1.016315720868
    C           -0.879865473488    -1.597457908560    -0.540905596028
    H           -2.421328698751    -3.029659623977    -0.975662414116
    H           -3.035472896178    -1.511455857821    -0.364191708201
    C           -0.708115893109    -0.122714041555    -0.166761810207
    H           -0.646032952439    -2.205355471538     0.331409317002
    H           -0.176302296853    -1.878976708870    -1.319131024153
    C            0.710205331963     0.222630546219     0.291142121341
    H           -1.413632956257     0.128855686706     0.623326738913
    H           -0.965314023580     0.507250797219    -1.018151412285
    C            0.870735467838     1.695303180851     0.677624938801
    H            0.971902353946    -0.414363267009     1.132194004855
    H            1.411840206556    -0.018485297691    -0.505623923307
    C            2.299097078547     2.107049690326     1.052377011824
    H            0.202916978957     1.925248947111     1.506540452308
    H            0.541951632404     2.312177120087    -0.156388454455
    C            2.835746683694     1.452134040651     2.326492677412
    H            2.323761456828     3.186641944844     1.178631531721
    H            2.966637697394     1.883934658140     0.222573293651
    H            2.181453788834     1.648823446614     3.171673561992
    H            3.819000977791     1.840172188618     2.574018981262
    H            2.928184083963     0.376153046046     2.222817902876

  Mulliken Charges: (a.u.)
   Center  Symbol    Alpha    Beta     Spin     Total
       1     H     0.28143  0.28143  0.00000  0.43714
       2     O     4.37077  4.37077  0.00000 -0.74154
       3     C     2.99652  2.99652  0.00000  0.00697
       4     C     3.16581  3.16581  0.00000 -0.33163
       5     H     0.41439  0.41439  0.00000  0.17121
       6     H     0.43128  0.43128  0.00000  0.13744
       7     C     3.15749  3.15749  0.00000 -0.31499
       8     H     0.42338  0.42338  0.00000  0.15323
       9     H     0.41236  0.41236  0.00000  0.17527
      10     C     3.15287  3.15287  0.00000 -0.30575
      11     H     0.42257  0.42257  0.00000  0.15487
      12     H     0.43018  0.43018  0.00000  0.13965
      13     C     3.15266  3.15266  0.00000 -0.30532
      14     H     0.42069  0.42069  0.00000  0.15862
      15     H     0.42206  0.42206  0.00000  0.15588
      16     C     3.15252  3.15252  0.00000 -0.30503
      17     H     0.42429  0.42429  0.00000  0.15142
      18     H     0.42269  0.42269  0.00000  0.15462
      19     C     3.24135  3.24135  0.00000 -0.48271
      20     H     0.42076  0.42076  0.00000  0.15848
      21     H     0.42284  0.42284  0.00000  0.15431
      22     H     0.42234  0.42234  0.00000  0.15532
      23     H     0.41885  0.41885  0.00000  0.16231
      24     H     0.41989  0.41989  0.00000  0.16022

   Total alpha = 33.00000, Total beta = 33.00000, Total charge = -0.00000
