                              Psi4 1.0.54 Driver

  ==> Input File <==

--------------------------------------------------------------------------
set {
	reference rhf
	basis cc-pvtz
}

set_num_threads( 4 )
memory 2 gb

molecule MOL {
0 1

H	 -2.362939	 -1.309000	 -0.383250
C	 -1.359344	 -1.272457	 0.020748
C	 -0.684082	 0.000127	 -0.464918
H	 -0.825835	 -2.151141	 -0.318537
H	 -1.416276	 -1.292399	 1.099455
C	 -1.359089	 1.272668	 0.021259
N	 0.742439	 -0.000109	 0.007333
H	 -0.596914	 0.000345	 -1.538146
H	 -2.362696	 1.309620	 -0.382686
H	 -0.825392	 2.151374	 -0.317674
H	 -1.415983	 1.292181	 1.099973
O	 1.201620	 -1.036566	 0.351648
O	 1.319017	 1.036156	 0.005731

	symmetry c1
}
set optking {
	frozen_dihedral = ("
		12 7 3 8
	")
}

ee,wfn = optimize('scf', return_wfn=True)
oeprop( wfn, 'DIPOLE', 'QUADRUPOLE', 'MULLIKEN_CHARGES')
f=open( 'psi4out.xyz', 'w' )
f.write( "13  " )
f.write( str(ee) + "\n" )
f.write( MOL.save_string_xyz() )
f.close()
--------------------------------------------------------------------------

    Molecular point group: c1
  Charge       = 0
  Multiplicity = 1
  Basis Set: CC-PVTZ
  Basis Set:
  @DF-RHF Final Energy:  -321.86123350761648
    Total Energy =                       -321.8612335076162481
    Molecular point group: c1
  Basis Set: CC-PVTZ
  Basis Set:
  Basis Set: CC-PVTZ
  Basis Set:
  @DF-RHF Final Energy:  -321.85473793431953
    Total Energy =                       -321.8547379343194734
  Basis Set: CC-PVTZ
  Basis Set:
  Basis Set: CC-PVTZ
  Basis Set:
  @DF-RHF Final Energy:  -321.86184230340388
    Total Energy =                       -321.8618423034038756
  Basis Set: CC-PVTZ
  Basis Set:
  Basis Set: CC-PVTZ
  Basis Set:
  @DF-RHF Final Energy:  -321.85564465810614
    Total Energy =                       -321.8556446581060300
  Basis Set: CC-PVTZ
  Basis Set:
  @DF-RHF Final Energy:  -321.86049023066016
    Total Energy =                       -321.8604902306600479
  Basis Set: CC-PVTZ
  Basis Set:
  @DF-RHF Final Energy:  -321.86224465638429
    Total Energy =                       -321.8622446563845756
  Basis Set: CC-PVTZ
  Basis Set:
  Basis Set: CC-PVTZ
  Basis Set:
  @DF-RHF Final Energy:  -321.86225470330049
    Total Energy =                       -321.8622547033006640
  Basis Set: CC-PVTZ
  Basis Set:
  Basis Set: CC-PVTZ
  Basis Set:
  @DF-RHF Final Energy:  -321.86225647461100
    Total Energy =                       -321.8622564746111721
  Basis Set: CC-PVTZ
  Basis Set:
  Charge       = 0
  Multiplicity = 1
  Basis Set: CC-PVTZ
  Basis Set:

    Orbital Energies (a.u.)
    -----------------------

    Doubly Occupied:

       1A    -20.590055     2A    -20.586849     3A    -15.833957
       4A    -11.306989     5A    -11.239500     6A    -11.237533
       7A     -1.634509     8A     -1.418131     9A     -1.139741
      10A     -0.967717    11A     -0.958333    12A     -0.815046
      13A     -0.764941    14A     -0.730071    15A     -0.722890
      16A     -0.639982    17A     -0.595906    18A     -0.586457
      19A     -0.570341    20A     -0.522328    21A     -0.521382
      22A     -0.483361    23A     -0.472417    24A     -0.452166

  @DF-RHF Final Energy:  -321.86225653386009

   => Energetics <=

    Nuclear Repulsion Energy =            257.2154642255836734
    One-Electron Energy =                -948.5742322109280167
    Two-Electron Energy =                 369.4965114514840252
    DFT Exchange-Correlation Energy =       0.0000000000000000
    Empirical Dispersion Energy =           0.0000000000000000
    PCM Polarization Energy =               0.0000000000000000
    EFP Energy =                            0.0000000000000000
    Total Energy =                       -321.8622565338603181
    Molecular point group: c1
  Basis Set: CC-PVTZ
  Basis Set:

  -Total Gradient:
     Atom            X                  Y                   Z
    ------   -----------------  -----------------  -----------------
       1        0.000003212814     0.000003986221     0.000000372516
       2        0.000011680141     0.000008438963     0.000000340836
       3       -0.000150653977     0.000849357824    -0.000313334620
       4        0.000004162652    -0.000005042565    -0.000002403808
       5       -0.000001060756     0.000001399021     0.000002777862
       6       -0.000020990782     0.000000918286    -0.000003892980
       7       -0.000389977413    -0.000033134603     0.001009889868
       8        0.000233243012    -0.000755267809     0.000035218835
       9       -0.000008802128     0.000001192975     0.000002808638
      10       -0.000005811464    -0.000003581397    -0.000002396813
      11       -0.000000689733    -0.000001356451     0.000000806785
      12        0.000294003356    -0.000064462071    -0.000738124151
      13        0.000031684282    -0.000002448392     0.000007937033

  **** Optimization is complete! (in 9 steps) ****
    Final optimized geometry and variables:
    Molecular point group: c1

    Geometry (in Angstrom), charge = 0, multiplicity = 1:

    H           -1.905905589048    -1.921372700736    -0.400558135227
    C           -0.953448943757    -1.627199344337     0.022083756573
    C           -0.634205015820    -0.224406978975    -0.460563969546
    H           -0.203430746343    -2.337508331213    -0.286643812507
    H           -1.033573779065    -1.659768527572     1.100742019927
    C           -1.691296252007     0.801002219122    -0.084023701012
    N            0.717760620046     0.224799182479     0.047709036387
    H           -0.486817380534    -0.228076143692    -1.533007623469
    H           -2.640484970654     0.482111204436    -0.494757331757
    H           -1.453822173183     1.777753708419    -0.472223942752
    H           -1.794011009699     0.869691329519     0.992135081351
    O            1.465178098444    -0.599715849609     0.451752831384
    O            0.966161677025     1.381223526752    -0.032566437168

  Mulliken Charges: (a.u.)
   Center  Symbol    Alpha    Beta     Spin     Total
       1     H     0.45059  0.45059  0.00000  0.09882
       2     C     3.14262  3.14262  0.00000 -0.28524
       3     C     3.00660  3.00660  0.00000 -0.01320
       4     H     0.43350  0.43350  0.00000  0.13301
       5     H     0.44500  0.44500  0.00000  0.11001
       6     C     3.14394  3.14394  0.00000 -0.28787
       7     N     3.27540  3.27540  0.00000  0.44920
       8     H     0.43042  0.43042  0.00000  0.13917
       9     H     0.45047  0.45047  0.00000  0.09906
      10     H     0.43067  0.43067  0.00000  0.13866
      11     H     0.44662  0.44662  0.00000  0.10676
      12     O     4.17033  4.17033  0.00000 -0.34065
      13     O     4.17386  4.17386  0.00000 -0.34771

   Total alpha = 24.00000, Total beta = 24.00000, Total charge = -0.00000

*** Psi4 exiting successfully. Buy a developer a beer!
