  ==> Input File <==

--------------------------------------------------------------------------
set {
	reference rhf
	basis 6-31G*
}

set_num_threads( 4 )
memory 2 gb

molecule MOL {
0 1

H	 3.725055	 0.528746	 0.855000
N	 2.898823	 -0.037472	 0.871837
C	 1.865559	 0.531981	 0.018834
H	 2.589244	 -0.069383	 1.824713
C	 0.645745	 -0.382037	 -0.029944
H	 2.279949	 0.630441	 -0.979888
H	 1.556181	 1.533082	 0.329451
C	 -0.679275	 0.379305	 0.025956
H	 0.698998	 -0.976915	 -0.937203
H	 0.693479	 -1.083846	 0.802235
C	 -1.903357	 -0.536963	 -0.023547
H	 -0.726309	 1.082987	 -0.803784
H	 -0.717680	 0.977832	 0.934877
C	 -3.225172	 0.228290	 0.028445
H	 -1.867824	 -1.134999	 -0.931459
H	 -1.860449	 -1.239604	 0.805977
H	 -3.313397	 0.915643	 -0.808262
H	 -4.073500	 -0.448134	 -0.008893
H	 -3.306061	 0.809945	 0.942516

	symmetry c1
}
set optking {
	frozen_dihedral = ("
		6 3 5 9
	")
}

ee = optimize('scf')
oeprop('DIPOLE', 'QUADRUPOLE', 'MULLIKEN_CHARGES')
f=open( 'psi4out.xyz', 'w' )
f.write( "19  " )
f.write( str(ee) + "\n" )
f.write( MOL.save_string_xyz() )
f.close()
--------------------------------------------------------------------------

    Molecular point group: c1
  Charge       = 0
  Multiplicity = 1
  Basis Set: 6-31G*
  Basis Set:
  @DF-RHF Final Energy:  -251.34658490971864
    Total Energy =                       -251.3465849097186151
    Molecular point group: c1
  Basis Set: 6-31G*
  Basis Set:
  Basis Set: 6-31G*
  Basis Set:
  @DF-RHF Final Energy:  -251.34692211256245
    Total Energy =                       -251.3469221125623108
  Basis Set: 6-31G*
  Basis Set:
  Basis Set: 6-31G*
  Basis Set:
  @DF-RHF Final Energy:  -251.34703122649449
    Total Energy =                       -251.3470312264946642
  Basis Set: 6-31G*
  Basis Set:
  Basis Set: 6-31G*
  Basis Set:
  @DF-RHF Final Energy:  -251.34703240018618
    Total Energy =                       -251.3470324001863219
  Basis Set: 6-31G*
  Basis Set:
  Charge       = 0
  Multiplicity = 1
  Basis Set: 6-31G*
  Basis Set:

    Orbital Energies (a.u.)
    -----------------------

    Doubly Occupied:

       1A    -15.532167     2A    -11.240022     3A    -11.213940
       4A    -11.212760     5A    -11.209626     6A    -11.207797
       7A     -1.175270     8A     -1.072546     9A     -0.996877
      10A     -0.899826    11A     -0.814183    12A     -0.788715
      13A     -0.667913    14A     -0.636068    15A     -0.618982
      16A     -0.582281    17A     -0.569571    18A     -0.547768
      19A     -0.527519    20A     -0.503201    21A     -0.482862
      22A     -0.465051    23A     -0.460773    24A     -0.445074
      25A     -0.380089

  @DF-RHF Final Energy:  -251.34703272813880

   => Energetics <=

    Nuclear Repulsion Energy =            245.7345492007532357
    One-Electron Energy =                -825.6613989065824626
    Two-Electron Energy =                 328.5798169776903705
    DFT Exchange-Correlation Energy =       0.0000000000000000
    Empirical Dispersion Energy =           0.0000000000000000
    PCM Polarization Energy =               0.0000000000000000
    EFP Energy =                            0.0000000000000000
    Total Energy =                       -251.3470327281388563
    Molecular point group: c1
  Basis Set: 6-31G*
  Basis Set:

  -Total Gradient:
     Atom            X                  Y                   Z
    ------   -----------------  -----------------  -----------------
       1        0.000022242997    -0.000013161752     0.000018929426
       2        0.000010559852     0.000033741520    -0.000040699719
       3       -0.003561519549     0.004666243149    -0.001259129791
       4       -0.000017025117     0.000021083823    -0.000041303596
       5        0.003226384320    -0.004322304909     0.002604426084
       6        0.002454441608    -0.003280793989     0.000690205594
       7       -0.000008736384    -0.000040323974    -0.000001939130
       8        0.000007751788     0.000001177754     0.000045047077
       9       -0.002106713702     0.002913483192    -0.002004319101
      10        0.000002445753     0.000024929846     0.000009844155
      11       -0.000005868515     0.000010926638    -0.000024766685
      12        0.000031528417    -0.000011032862    -0.000007073386
      13       -0.000026816519     0.000007994786    -0.000001287409
      14       -0.000015763048    -0.000014017417     0.000026292830
      15       -0.000002538111     0.000000861712    -0.000007088221
      16       -0.000003074562    -0.000001092022    -0.000010661749
      17        0.000003547528    -0.000009835091    -0.000002450682
      18       -0.000009123600     0.000004242089     0.000007664873
      19       -0.000001723155     0.000007877509    -0.000001690572

  **** Optimization is complete! (in 5 steps) ****
    Final optimized geometry and variables:
    Molecular point group: c1

    Geometry (in Angstrom), charge = 0, multiplicity = 1:

    H            3.799133627299     0.482270682547     0.622837961647
    N            2.971134166345    -0.079760670181     0.673725371740
    C            1.903713870610     0.499535063642    -0.134195246105
    H            2.702416200750    -0.112830123578     1.638955056149
    C            0.676167337837    -0.426832016542    -0.155605548638
    H            2.304369263684     0.598066056108    -1.137094492278
    H            1.612609778585     1.496560385404     0.200942472225
    C           -0.652093653146     0.334571122777    -0.125741069405
    H            0.699095655900    -1.035111122980    -1.055192661313
    H            0.725199275683    -1.108121115572     0.688953154606
    C           -1.875262902987    -0.580364299789    -0.200390340825
    H           -0.682835071769     1.041017754417    -0.954435599305
    H           -0.705913701923     0.932666476640     0.782991015921
    C           -3.197992390650     0.184071649077    -0.158109886091
    H           -1.828468225178    -1.170045701067    -1.113402695452
    H           -1.842910148479    -1.291399646002     0.622552634144
    H           -3.275861976845     0.878970528053    -0.989604271544
    H           -4.045702374431    -0.492049835813    -0.212139284912
    H           -3.290565614213     0.757473283607     0.760046982743

  Mulliken Charges: (a.u.)
   Center  Symbol    Alpha    Beta     Spin     Total
       1     H     0.33354  0.33354  0.00000  0.33291
       2     N     3.92165  3.92165  0.00000 -0.84330
       3     C     3.06361  3.06361  0.00000 -0.12723
       4     H     0.33607  0.33607  0.00000  0.32787
       5     C     3.15350  3.15350  0.00000 -0.30700
       6     H     0.41861  0.41861  0.00000  0.16277
       7     H     0.43139  0.43139  0.00000  0.13722
       8     C     3.15630  3.15630  0.00000 -0.31260
       9     H     0.41774  0.41774  0.00000  0.16453
      10     H     0.41811  0.41811  0.00000  0.16378
      11     C     3.15137  3.15137  0.00000 -0.30274
      12     H     0.42440  0.42440  0.00000  0.15120
      13     H     0.42554  0.42554  0.00000  0.14892
      14     C     3.23906  3.23906  0.00000 -0.47812
      15     H     0.42253  0.42253  0.00000  0.15495
      16     H     0.42292  0.42292  0.00000  0.15415
      17     H     0.42200  0.42200  0.00000  0.15599
      18     H     0.41935  0.41935  0.00000  0.16129
      19     H     0.42229  0.42229  0.00000  0.15541

   Total alpha = 25.00000, Total beta = 25.00000, Total charge = -0.00000
