  ==> Input File <==

--------------------------------------------------------------------------
set {
	reference rhf
	basis 6-31G*
}

set_num_threads( 1 )
memory 2 gb

molecule MOL {
0 1

H	 -3.161837	 0.500524	 -0.000234
C	 -2.367097	 -0.232926	 -0.000000
O	 -1.158440	 0.455814	 -0.000122
H	 -2.468853	 -0.861886	 -0.882833
H	 -2.468942	 -0.861421	 0.883154
C	 -0.029776	 -0.365156	 0.000148
C	 1.212217	 0.508981	 0.000007
H	 -0.036772	 -1.013236	 -0.877259
H	 -0.036869	 -1.012778	 0.877897
C	 1.453935	 1.180708	 -1.351006
H	 1.105449	 1.258870	 0.777779
H	 2.065392	 -0.104978	 0.271752
H	 0.621051	 1.819892	 -1.630600
H	 2.345968	 1.797410	 -1.322716
H	 1.587134	 0.446285	 -2.140490

	symmetry c1
}
set optking {
	frozen_dihedral = ("
		6 3 2 4,
		8 6 3 2
	")
}

ee = energy('scf')
oeprop('DIPOLE', 'QUADRUPOLE', 'MULLIKEN_CHARGES')
f=open( 'psi4out.xyz', 'w' )
f.write( "15  " )
f.write( str(ee) + "\n" )
f.write( MOL.save_string_xyz() )
f.close()
--------------------------------------------------------------------------

    Molecular point group: c1

    Geometry (in Angstrom), charge = 0, multiplicity = 1:

       Center              X                  Y                   Z               Mass
    ------------   -----------------  -----------------  -----------------  -----------------
           H         -2.949214956617     0.198470253137     0.273648644334     1.007825032070
           C         -2.154474956617    -0.534979746863     0.273882644334    12.000000000000
           O         -0.945817956617     0.153760253137     0.273760644334    15.994914619560
           H         -2.256230956617    -1.163939746863    -0.608950355666     1.007825032070
           H         -2.256319956617    -1.163474746863     1.157036644334     1.007825032070
           C          0.182846043383    -0.667209746863     0.274030644334    12.000000000000
           C          1.424839043383     0.206927253137     0.273889644334    12.000000000000
           H          0.175850043383    -1.315289746863    -0.603376355666     1.007825032070
           H          0.175753043383    -1.314831746863     1.151779644334     1.007825032070
           C          1.666557043383     0.878654253137    -1.077123355666    12.000000000000
           H          1.318071043383     0.956816253137     1.051661644334     1.007825032070
           H          2.278014043383    -0.407031746863     0.545634644334     1.007825032070
           H          0.833673043383     1.517838253137    -1.356717355666     1.007825032070
           H          2.558590043383     1.495356253137    -1.048833355666     1.007825032070
           H          1.799756043383     0.144231253137    -1.866607355666     1.007825032070

  Charge       = 0
  Multiplicity = 1
  Basis Set: 6-31G*
  Basis Set:

    Orbital Energies (a.u.)
    -----------------------

    Doubly Occupied:

       1A    -20.554123     2A    -11.266167     3A    -11.264403
       4A    -11.214445     5A    -11.204762     6A     -1.379137
       7A     -1.054507     8A     -0.950676     9A     -0.884728
      10A     -0.801587    11A     -0.668630    12A     -0.662842
      13A     -0.632831    14A     -0.588282    15A     -0.569682
      16A     -0.546122    17A     -0.497275    18A     -0.485652
      19A     -0.479535    20A     -0.459503    21A     -0.412966

  @DF-RHF Final Energy:  -232.13905720850337

   => Energetics <=

    Nuclear Repulsion Energy =            192.5902968005083551
    One-Electron Energy =                -696.3029952378642520
    Two-Electron Energy =                 271.5736412288529209
    DFT Exchange-Correlation Energy =       0.0000000000000000
    Empirical Dispersion Energy =           0.0000000000000000
    PCM Polarization Energy =               0.0000000000000000
    EFP Energy =                            0.0000000000000000
    Total Energy =                       -232.1390572085030044

  Mulliken Charges: (a.u.)
   Center  Symbol    Alpha    Beta     Spin     Total
       1     H     0.41225  0.41225  0.00000  0.17550
       2     C     3.07909  3.07909  0.00000 -0.15819
       3     O     4.30364  4.30364  0.00000 -0.60729
       4     H     0.43023  0.43023  0.00000  0.13955
       5     H     0.43028  0.43028  0.00000  0.13944
       6     C     2.98913  2.98913  0.00000  0.02175
       7     C     3.15990  3.15990  0.00000 -0.31981
       8     H     0.43301  0.43301  0.00000  0.13398
       9     H     0.43064  0.43064  0.00000  0.13871
      10     C     3.24297  3.24297  0.00000 -0.48595
      11     H     0.41216  0.41216  0.00000  0.17567
      12     H     0.42259  0.42259  0.00000  0.15481
      13     H     0.40968  0.40968  0.00000  0.18064
      14     H     0.42020  0.42020  0.00000  0.15961
      15     H     0.42421  0.42421  0.00000  0.15158

   Total alpha = 21.00000, Total beta = 21.00000, Total charge =  0.00000
