  ==> Input File <==

--------------------------------------------------------------------------
set {
	reference rhf
	basis cc-pvtz
}

set_num_threads( 4 )
memory 2 gb

molecule MOL {
0 1

H	 -1.088256	 -1.364742	 0.152233
O	 -1.432053	 -0.565244	 -0.200812
C	 -0.727158	 0.534527	 0.310686
C	 0.680222	 0.664433	 -0.252229
H	 -1.306802	 1.408001	 0.044211
H	 -0.690821	 0.490158	 1.397609
C	 1.773645	 0.190747	 0.700711
H	 0.735039	 0.104886	 -1.180202
H	 0.846136	 1.708895	 -0.501670
H	 1.675654	 -0.865604	 0.925754
H	 2.755777	 0.334957	 0.266922
H	 1.743799	 0.738921	 1.637499

	symmetry c1
}
set optking {
	frozen_dihedral = ("
		8 4 3 2
	")
}

ee = optimize('scf')
oeprop('DIPOLE', 'QUADRUPOLE', 'MULLIKEN_CHARGES')
f=open( 'psi4out.xyz', 'w' )
f.write( "12  " )
f.write( str(ee) + "\n" )
f.write( MOL.save_string_xyz() )
f.close()
--------------------------------------------------------------------------

    Molecular point group: c1
  Charge       = 0
  Multiplicity = 1
  Basis Set: CC-PVTZ
  Basis Set:
  @DF-RHF Final Energy:  -193.18577876569765
    Total Energy =                       -193.1857787656978189
    Molecular point group: c1
  Basis Set: CC-PVTZ
  Basis Set:
  Basis Set: CC-PVTZ
  Basis Set:
  @DF-RHF Final Energy:  -193.18616954234761
    Total Energy =                       -193.1861695423476988
  Basis Set: CC-PVTZ
  Basis Set:
  Basis Set: CC-PVTZ
  Basis Set:
  @DF-RHF Final Energy:  -193.18624021881490
    Total Energy =                       -193.1862402188149304
  Basis Set: CC-PVTZ
  Basis Set:
  Basis Set: CC-PVTZ
  Basis Set:
  @DF-RHF Final Energy:  -193.18624255321171
    Total Energy =                       -193.1862425532117982
  Basis Set: CC-PVTZ
  Basis Set:
  Charge       = 0
  Multiplicity = 1
  Basis Set: CC-PVTZ
  Basis Set:

    Orbital Energies (a.u.)
    -----------------------

    Doubly Occupied:

       1A    -20.546211     2A    -11.265756     3A    -11.216494
       4A    -11.214751     5A     -1.363426     6A     -1.050935
       7A     -0.923216     8A     -0.815430     9A     -0.695869
      10A     -0.640737    11A     -0.594558    12A     -0.581281
      13A     -0.557584    14A     -0.509981    15A     -0.488195
      16A     -0.466096    17A     -0.433186

  @DF-RHF Final Energy:  -193.18624300512508

   => Energetics <=

    Nuclear Repulsion Energy =            131.8572562184027959
    One-Electron Energy =                -523.3595843142009016
    Two-Electron Energy =                 198.3160850906730275
    DFT Exchange-Correlation Energy =       0.0000000000000000
    Empirical Dispersion Energy =           0.0000000000000000
    PCM Polarization Energy =               0.0000000000000000
    EFP Energy =                            0.0000000000000000
    Total Energy =                       -193.1862430051251067
    Molecular point group: c1
  Basis Set: CC-PVTZ
  Basis Set:

  -Total Gradient:
     Atom            X                  Y                   Z
    ------   -----------------  -----------------  -----------------
       1        0.000002081747     0.000023930200     0.000010206228
       2       -0.001306304464     0.001961476350    -0.002652204555
       3        0.002060891407    -0.003448852344     0.004102860500
       4       -0.002045066931     0.005045184141    -0.003796911697
       5       -0.000003522545     0.000000712590    -0.000002935714
       6        0.000004486278    -0.000015290166    -0.000022517563
       7        0.000014339234     0.000002682064     0.000004147662
       8        0.001300107179    -0.003559923900     0.002307283989
       9       -0.000025374838    -0.000007532360     0.000039161792
      10        0.000000169866    -0.000002864401    -0.000002319799
      11       -0.000002163037    -0.000013085245     0.000009828825
      12        0.000000356102     0.000013563073     0.000003400332

  **** Optimization is complete! (in 5 steps) ****
    Final optimized geometry and variables:
    Molecular point group: c1

    Geometry (in Angstrom), charge = 0, multiplicity = 1:

    H           -1.062451011211    -1.544590785992    -0.026395813138
    O           -1.461273276645    -0.752052758791    -0.336832190779
    C           -0.779893376643     0.366270639509     0.169799608706
    C            0.636584997089     0.521587280712    -0.396330125802
    H           -1.386721588806     1.214653708864    -0.114483752705
    H           -0.755852897066     0.339699353659     1.256277998490
    C            1.727458889780     0.015864023027     0.547088079204
    H            0.685217121491    -0.047677124032    -1.317296830147
    H            0.825243686992     1.560914904934    -0.639629796211
    H            1.572965923097    -1.027638902447     0.805938524208
    H            2.708298793115     0.096187697439     0.093311320531
    H            1.742558558169     0.583611824871     1.471225674450

  Mulliken Charges: (a.u.)
   Center  Symbol    Alpha    Beta     Spin     Total
       1     H     0.39470  0.39470  0.00000  0.21059
       2     O     4.20189  4.20189  0.00000 -0.40379
       3     C     2.97025  2.97025  0.00000  0.05949
       4     C     3.09676  3.09676  0.00000 -0.19352
       5     H     0.45270  0.45270  0.00000  0.09460
       6     H     0.47232  0.47232  0.00000  0.05537
       7     C     3.14830  3.14830  0.00000 -0.29661
       8     H     0.44806  0.44806  0.00000  0.10388
       9     H     0.45300  0.45300  0.00000  0.09400
      10     H     0.46024  0.46024  0.00000  0.07952
      11     H     0.44718  0.44718  0.00000  0.10564
      12     H     0.45459  0.45459  0.00000  0.09082

   Total alpha = 17.00000, Total beta = 17.00000, Total charge = -0.00000
