                              Psi4 1.0.54 Driver

  ==> Input File <==

--------------------------------------------------------------------------
set {
	reference rhf
	basis cc-pvtz
}

set_num_threads( 4 )
memory 2 gb

molecule MOL {
0 1

O	 0.749630	 1.305591	 -0.000460
C	 0.576499	 0.134701	 -0.003900
C	 -0.765656	 -0.550508	 -0.002152
O	 1.564816	 -0.744612	 -0.000631
C	 -1.945526	 0.411052	 0.000603
H	 -0.794329	 -1.203792	 -0.868145
H	 -0.791555	 -1.205429	 0.862701
C	 -2.336043	 0.836530	 1.411769
H	 -2.789429	 -0.057480	 -0.491027
H	 -1.697411	 1.282691	 -0.592746
H	 -2.619846	 -0.017877	 2.017372
H	 -3.176731	 1.519362	 1.390633
H	 -1.515631	 1.338415	 1.914128
C	 2.884339	 -0.237801	 0.002883
H	 3.064150	 0.362814	 -0.876312
H	 3.533055	 -1.098529	 0.004958
H	 3.059365	 0.363432	 0.882614

	symmetry c1
}
set optking {
	frozen_dihedral = ("
		9 5 3 6
	")
}

ee,wfn = optimize('scf', return_wfn=True)
oeprop( wfn, 'DIPOLE', 'QUADRUPOLE', 'MULLIKEN_CHARGES')
f=open( 'psi4out.xyz', 'w' )
f.write( "17  " )
f.write( str(ee) + "\n" )
f.write( MOL.save_string_xyz() )
f.close()
--------------------------------------------------------------------------

    Molecular point group: c1
  Charge       = 0
  Multiplicity = 1
  Basis Set: CC-PVTZ
  Basis Set:
  @DF-RHF Final Energy:  -345.03347606396744
    Total Energy =                       -345.0334760639673277
    Molecular point group: c1
  Basis Set: CC-PVTZ
  Basis Set:
  Basis Set: CC-PVTZ
  Basis Set:
  @DF-RHF Final Energy:  -345.03346577610341
    Total Energy =                       -345.0334657761035260
  Basis Set: CC-PVTZ
  Basis Set:
  Basis Set: CC-PVTZ
  Basis Set:
  @DF-RHF Final Energy:  -345.03249898318876
    Total Energy =                       -345.0324989831888729
  Basis Set: CC-PVTZ
  Basis Set:
  Basis Set: CC-PVTZ
  Basis Set:
  @DF-RHF Final Energy:  -345.03372164417306
    Total Energy =                       -345.0337216441733403
  Basis Set: CC-PVTZ
  Basis Set:
  Basis Set: CC-PVTZ
  Basis Set:
  @DF-RHF Final Energy:  -345.03373325765199
    Total Energy =                       -345.0337332576519884
  Basis Set: CC-PVTZ
  Basis Set:
  Basis Set: CC-PVTZ
  Basis Set:
  @DF-RHF Final Energy:  -345.03373510648896
    Total Energy =                       -345.0337351064893028
  Basis Set: CC-PVTZ
  Basis Set:
  Charge       = 0
  Multiplicity = 1
  Basis Set: CC-PVTZ
  Basis Set:

    Orbital Energies (a.u.)
    -----------------------

    Doubly Occupied:

       1A    -20.597279     2A    -20.535321     3A    -11.365892
       4A    -11.279197     5A    -11.234185     6A    -11.219550
       7A    -11.207669     8A     -1.473401     9A     -1.366921
      10A     -1.079697    11A     -1.001269    12A     -0.939175
      13A     -0.829899    14A     -0.768606    15A     -0.705158
      16A     -0.684974    17A     -0.676063    18A     -0.619631
      19A     -0.613988    20A     -0.568916    21A     -0.568157
      22A     -0.535746    23A     -0.525564    24A     -0.488173
      25A     -0.482888    26A     -0.482438    27A     -0.461092
      28A     -0.442107

  @DF-RHF Final Energy:  -345.03373531102807

   => Energetics <=

    Nuclear Repulsion Energy =            317.1075725167742121
    One-Electron Energy =               -1098.7767026765545779
    Two-Electron Energy =                 436.6353948487522416
    DFT Exchange-Correlation Energy =       0.0000000000000000
    Empirical Dispersion Energy =           0.0000000000000000
    PCM Polarization Energy =               0.0000000000000000
    EFP Energy =                            0.0000000000000000
    Total Energy =                       -345.0337353110281242
    Molecular point group: c1
  Basis Set: CC-PVTZ
  Basis Set:

  -Total Gradient:
     Atom            X                  Y                   Z
    ------   -----------------  -----------------  -----------------
       1       -0.000016183232    -0.000001229159     0.000018118746
       2       -0.000003640416    -0.000005166226    -0.000005821643
       3        0.002260893375     0.002957612679    -0.002663592182
       4        0.000004713416     0.000000381474    -0.000006447367
       5       -0.001496935910    -0.002022133199     0.003717037999
       6       -0.001642179097    -0.002130758786     0.001624523980
       7       -0.000001160425     0.000001091731     0.000012900640
       8        0.000027923150    -0.000003444395    -0.000004736884
       9        0.000877323869     0.001200343197    -0.002691631678
      10        0.000001307759     0.000002640650    -0.000004759558
      11       -0.000002895941     0.000000978744     0.000005336610
      12       -0.000003598900    -0.000001891155    -0.000001862002
      13       -0.000002911274    -0.000000863549    -0.000001059143
      14       -0.000004024402     0.000001076429     0.000000633177
      15        0.000002106009     0.000001355578     0.000000138707
      16       -0.000002648624    -0.000000858923     0.000000623021
      17        0.000001910641     0.000000864908     0.000000597580

  **** Optimization is complete! (in 7 steps) ****
    Final optimized geometry and variables:
    Molecular point group: c1

    Geometry (in Angstrom), charge = 0, multiplicity = 1:

    O            0.616431804972     1.138204591079    -0.205712830652
    C            0.441567754298    -0.032642539309    -0.212972248298
    C           -0.900029924550    -0.720639577167    -0.233634364279
    O            1.429521783725    -0.911752814160    -0.205782676982
    C           -2.097482062767     0.226857228974    -0.200334336388
    H           -0.926477898633    -1.364065674695    -1.105678086432
    H           -0.917921986928    -1.400576865926     0.612480688892
    C           -2.487100045299     0.668220109121     1.205641297676
    H           -2.935228719307    -0.257819035874    -0.689422606879
    H           -1.866506926345     1.099458748793    -0.798168506438
    H           -2.769175340546    -0.181156944126     1.819587197211
    H           -3.328928875136     1.349882196609     1.177353603078
    H           -1.664957447834     1.178541726281     1.693002419572
    C            2.749125838440    -0.405689178685    -0.190663616942
    H            2.935781910755     0.198706362523    -1.065902245218
    H            3.397785834001    -1.266524095915    -0.187574149225
    H            2.918155163392     0.191739688071     0.692903692039

  Mulliken Charges: (a.u.)
   Center  Symbol    Alpha    Beta     Spin     Total
       1     O     4.19818  4.19818  0.00000 -0.39636
       2     C     2.80375  2.80375  0.00000  0.39249
       3     C     3.10418  3.10418  0.00000 -0.20835
       4     O     4.14666  4.14666  0.00000 -0.29331
       5     C     3.08631  3.08631  0.00000 -0.17262
       6     H     0.43262  0.43262  0.00000  0.13475
       7     H     0.44171  0.44171  0.00000  0.11658
       8     C     3.14932  3.14932  0.00000 -0.29864
       9     H     0.44794  0.44794  0.00000  0.10412
      10     H     0.44481  0.44481  0.00000  0.11038
      11     H     0.45817  0.45817  0.00000  0.08367
      12     H     0.44821  0.44821  0.00000  0.10358
      13     H     0.44757  0.44757  0.00000  0.10486
      14     C     3.03661  3.03661  0.00000 -0.07322
      15     H     0.45424  0.45424  0.00000  0.09151
      16     H     0.44532  0.44532  0.00000  0.10935
      17     H     0.45440  0.45440  0.00000  0.09121

   Total alpha = 28.00000, Total beta = 28.00000, Total charge = -0.00000

*** Psi4 exiting successfully. Buy a developer a beer!
