                              Psi4 1.0.54 Driver

  ==> Input File <==

--------------------------------------------------------------------------
set {
	reference rhf
	basis cc-pvtz
}

set_num_threads( 4 )
memory 2 gb

molecule MOL {
0 1

H	 -3.436473	 1.252944	 -1.023892
O	 -3.458596	 0.315260	 -0.960865
C	 -3.176635	 -0.080824	 0.355601
C	 -1.763371	 0.265266	 0.799691
H	 -3.321825	 -1.153438	 0.379502
H	 -3.895468	 0.357385	 1.043382
C	 -1.451709	 1.758465	 0.760370
H	 -1.606180	 -0.116532	 1.807355
H	 -1.067519	 -0.272447	 0.160127
C	 -0.041324	 2.090916	 1.240226
H	 -2.177024	 2.291035	 1.365515
H	 -1.580424	 2.119658	 -0.257214
C	 0.265915	 3.586403	 1.193615
H	 0.083286	 1.718135	 2.252350
H	 0.683427	 1.558594	 0.627670
C	 1.694952	 3.962666	 1.588745
H	 -0.433811	 4.116199	 1.835914
H	 0.081904	 3.946786	 0.185208
C	 2.044767	 3.694176	 3.050486
H	 1.839815	 5.019348	 1.385737
H	 2.395229	 3.433233	 0.947861
H	 1.356888	 4.206564	 3.715586
H	 3.044975	 4.045529	 3.277153
H	 2.009952	 2.637964	 3.288835

	symmetry c1
}
set optking {
	frozen_dihedral = ("
		7 4 3 2
	")
}

ee,wfn = optimize('scf', return_wfn=True)
oeprop( wfn, 'DIPOLE', 'QUADRUPOLE', 'MULLIKEN_CHARGES')
f=open( 'psi4out.xyz', 'w' )
f.write( "24  " )
f.write( str(ee) + "\n" )
f.write( MOL.save_string_xyz() )
f.close()
--------------------------------------------------------------------------

    Molecular point group: c1
  Charge       = 0
  Multiplicity = 1
  Basis Set: CC-PVTZ
  Basis Set:
  @DF-RHF Final Energy:  -349.37974685746917
    Total Energy =                       -349.3797468574691720
    Molecular point group: c1
  Basis Set: CC-PVTZ
  Basis Set:
  Basis Set: CC-PVTZ
  Basis Set:
  @DF-RHF Final Energy:  -349.37990523253205
    Total Energy =                       -349.3799052325317689
  Basis Set: CC-PVTZ
  Basis Set:
  Basis Set: CC-PVTZ
  Basis Set:
  @DF-RHF Final Energy:  -349.37997410896133
    Total Energy =                       -349.3799741089608233
  Basis Set: CC-PVTZ
  Basis Set:
  Basis Set: CC-PVTZ
  Basis Set:
  @DF-RHF Final Energy:  -349.37997707217193
    Total Energy =                       -349.3799770721717550
  Basis Set: CC-PVTZ
  Basis Set:
  Basis Set: CC-PVTZ
  Basis Set:
  @DF-RHF Final Energy:  -349.37997877198120
    Total Energy =                       -349.3799787719810865
  Basis Set: CC-PVTZ
  Basis Set:
  Charge       = 0
  Multiplicity = 1
  Basis Set: CC-PVTZ
  Basis Set:

    Orbital Energies (a.u.)
    -----------------------

    Doubly Occupied:

       1A    -20.545319     2A    -11.265153     3A    -11.217131
       4A    -11.214661     5A    -11.213997     6A    -11.213483
       7A    -11.213134     8A    -11.207304     9A     -1.363466
      10A     -1.093455    11A     -1.051312    12A     -0.988844
      13A     -0.920119    14A     -0.853904    15A     -0.796819
      16A     -0.780312    17A     -0.697250    18A     -0.653180
      19A     -0.626260    20A     -0.613907    21A     -0.601485
      22A     -0.589343    23A     -0.564259    24A     -0.537458
      25A     -0.526217    26A     -0.511983    27A     -0.489994
      28A     -0.487464    29A     -0.474474    30A     -0.462666
      31A     -0.457591    32A     -0.447195    33A     -0.424790

  @DF-RHF Final Energy:  -349.37997888393659

   => Energetics <=

    Nuclear Repulsion Energy =            384.9639242261807794
    One-Electron Energy =               -1236.4799420407118760
    Two-Electron Energy =                 502.1360389305943954
    DFT Exchange-Correlation Energy =       0.0000000000000000
    Empirical Dispersion Energy =           0.0000000000000000
    PCM Polarization Energy =               0.0000000000000000
    EFP Energy =                            0.0000000000000000
    Total Energy =                       -349.3799788839367011
    Molecular point group: c1
  Basis Set: CC-PVTZ
  Basis Set:

  -Total Gradient:
     Atom            X                  Y                   Z
    ------   -----------------  -----------------  -----------------
       1       -0.000032581390     0.000125899973    -0.000060390519
       2       -0.000301412173     0.000865092263     0.000524673407
       3        0.000596130464    -0.001324523828    -0.001022936358
       4       -0.000588184185     0.000468790193     0.001514470278
       5       -0.000021144824    -0.000015083489     0.000013944650
       6        0.000037725333    -0.000032270276    -0.000026129558
       7        0.000263872551    -0.000063337872    -0.000902423416
       8        0.000038876971     0.000010152529    -0.000046993596
       9       -0.000023938852    -0.000001593227     0.000037979290
      10        0.000032974686     0.000010042600     0.000044549255
      11        0.000040373687    -0.000023374545    -0.000045658761
      12       -0.000022637466    -0.000015615905     0.000026132286
      13       -0.000000361186    -0.000002420451    -0.000054877332
      14       -0.000003945476    -0.000006255690     0.000011083572
      15       -0.000005391240     0.000000840872     0.000002847791
      16       -0.000005449778     0.000024088081     0.000004091853
      17        0.000010976752    -0.000003675805    -0.000016260045
      18       -0.000005303854     0.000002273711    -0.000001860175
      19       -0.000003251324    -0.000006606023    -0.000009500674
      20        0.000000280710     0.000010995038     0.000009056012
      21        0.000001234312     0.000013000244    -0.000003412992
      22        0.000010647290     0.000001465737    -0.000009121337
      23       -0.000003332657    -0.000011662157     0.000001770057
      24       -0.000016158353    -0.000026221978     0.000008966308

  **** Optimization is complete! (in 6 steps) ****
    Final optimized geometry and variables:
    Molecular point group: c1

    Geometry (in Angstrom), charge = 0, multiplicity = 1:

    H           -2.792501366082    -0.687792407518    -1.986041454217
    O           -2.693149688740    -1.620405332129    -1.940848804310
    C           -2.391539184002    -2.013049194590    -0.628425806211
    C           -0.976247917683    -1.657905472385    -0.195661592983
    H           -2.521570521255    -3.086425648775    -0.600147531353
    H           -3.110034458572    -1.583606821858     0.067181807128
    C           -0.664559973168    -0.164022437091    -0.232747091484
    H           -0.831146151670    -2.035466657274     0.813519319706
    H           -0.274695967165    -2.187504798893    -0.833431792255
    C            0.740087861716     0.168400715699     0.265062011002
    H           -1.393584348056     0.373490811987     0.371203949888
    H           -0.770936986395     0.203542643568    -1.249238182246
    C            1.054469760509     1.662160333564     0.212640770059
    H            0.849193934332    -0.199511315451     1.280292575357
    H            1.467881540564    -0.371466855297    -0.336144852753
    C            2.480295855695     2.033635300965     0.623807883006
    H            0.349857066510     2.200104354384     0.843101168119
    H            0.885561199949     2.016932644062    -0.800467577476
    C            2.811850731835     1.766214018768     2.089974937494
    H            2.631519236664     3.089334303041     0.420506532523
    H            3.185513523268     1.500291801357    -0.008133904452
    H            2.118373797295     2.282348569977     2.746326251915
    H            3.810589815510     2.114240779781     2.327529824781
    H            2.770512471896     0.710580818463     2.329697752267

  Mulliken Charges: (a.u.)
   Center  Symbol    Alpha    Beta     Spin     Total
       1     H     0.39150  0.39150  0.00000  0.21700
       2     O     4.20604  4.20604  0.00000 -0.41208
       3     C     2.98102  2.98102  0.00000  0.03796
       4     C     3.08664  3.08664  0.00000 -0.17328
       5     H     0.44870  0.44870  0.00000  0.10261
       6     H     0.46958  0.46958  0.00000  0.06083
       7     C     3.10336  3.10336  0.00000 -0.20672
       8     H     0.45602  0.45602  0.00000  0.08797
       9     H     0.45186  0.45186  0.00000  0.09627
      10     C     3.09206  3.09206  0.00000 -0.18413
      11     H     0.45370  0.45370  0.00000  0.09259
      12     H     0.45451  0.45451  0.00000  0.09098
      13     C     3.09471  3.09471  0.00000 -0.18941
      14     H     0.45224  0.45224  0.00000  0.09552
      15     H     0.45282  0.45282  0.00000  0.09437
      16     C     3.09050  3.09050  0.00000 -0.18100
      17     H     0.45454  0.45454  0.00000  0.09093
      18     H     0.44995  0.44995  0.00000  0.10010
      19     C     3.15259  3.15259  0.00000 -0.30519
      20     H     0.44843  0.44843  0.00000  0.10315
      21     H     0.45430  0.45430  0.00000  0.09141
      22     H     0.45507  0.45507  0.00000  0.08986
      23     H     0.44616  0.44616  0.00000  0.10769
      24     H     0.45372  0.45372  0.00000  0.09257

   Total alpha = 33.00000, Total beta = 33.00000, Total charge =  0.00000

*** Psi4 exiting successfully. Buy a developer a beer!
