                              Psi4 1.0.54 Driver

  ==> Input File <==

--------------------------------------------------------------------------
set {
	reference rhf
	basis cc-pvtz
}

set_num_threads( 4 )
memory 2 gb

molecule MOL {
0 1

O	 -1.738068	 1.066543	 0.490737
C	 -1.081510	 0.147522	 0.122720
C	 0.327029	 -0.064006	 0.641890
C	 -1.603218	 -0.843613	 -0.890069
C	 1.349460	 -0.017068	 -0.500215
H	 0.399029	 -1.014606	 1.159950
H	 0.538021	 0.726928	 1.350471
C	 2.779782	 -0.209014	 -0.009215
H	 1.115007	 -0.782959	 -1.233891
H	 1.259071	 0.936707	 -1.006644
H	 3.481860	 -0.160270	 -0.833072
H	 2.903471	 -1.171535	 0.475559
H	 3.052569	 0.559584	 0.705428
H	 -0.888640	 -0.981403	 -1.693903
H	 -2.547706	 -0.506115	 -1.288232
H	 -1.735739	 -1.808103	 -0.410433

	symmetry c1
}
set optking {
	frozen_dihedral = ("
		4 2 3 5
	")
}

ee,wfn = optimize('scf', return_wfn=True)
oeprop( wfn, 'DIPOLE', 'QUADRUPOLE', 'MULLIKEN_CHARGES')
f=open( 'psi4out.xyz', 'w' )
f.write( "16  " )
f.write( str(ee) + "\n" )
f.write( MOL.save_string_xyz() )
f.close()
--------------------------------------------------------------------------

    Molecular point group: c1
  Charge       = 0
  Multiplicity = 1
  Basis Set: CC-PVTZ
  Basis Set:
  @DF-RHF Final Energy:  -270.12731486502423
    Total Energy =                       -270.1273148650241183
    Molecular point group: c1
  Basis Set: CC-PVTZ
  Basis Set:
  Basis Set: CC-PVTZ
  Basis Set:
  @DF-RHF Final Energy:  -270.12698384399721
    Total Energy =                       -270.1269838439973228
  Basis Set: CC-PVTZ
  Basis Set:
  Basis Set: CC-PVTZ
  Basis Set:
  @DF-RHF Final Energy:  -270.12854647493850
    Total Energy =                       -270.1285464749383323
  Basis Set: CC-PVTZ
  Basis Set:
  Basis Set: CC-PVTZ
  Basis Set:
  @DF-RHF Final Energy:  -270.12856134934822
    Total Energy =                       -270.1285613493481037
  Basis Set: CC-PVTZ
  Basis Set:
  @DF-RHF Final Energy:  -270.12870194326547
    Total Energy =                       -270.1287019432652414
  @DF-RHF Final Energy:  -270.12880257970937
    Total Energy =                       -270.1288025797095997
  @DF-RHF Final Energy:  -270.12887579978911
    Total Energy =                       -270.1288757997888297
  Basis Set: CC-PVTZ
  Basis Set:
  @DF-RHF Final Energy:  -270.12887962527122
    Total Energy =                       -270.1288796252713382
  Basis Set: CC-PVTZ
  Basis Set:
  Basis Set: CC-PVTZ
  Basis Set:
  @DF-RHF Final Energy:  -270.12893147866691
    Total Energy =                       -270.1289314786669706
  Basis Set: CC-PVTZ
  Basis Set:
  Basis Set: CC-PVTZ
  Basis Set:
  @DF-RHF Final Energy:  -270.12893350314869
    Total Energy =                       -270.1289335031487440
  Basis Set: CC-PVTZ
  Basis Set:
  Charge       = 0
  Multiplicity = 1
  Basis Set: CC-PVTZ
  Basis Set:

    Orbital Energies (a.u.)
    -----------------------

    Doubly Occupied:

       1A    -20.537791     2A    -11.319781     3A    -11.233793
       4A    -11.228989     5A    -11.226591     6A    -11.219326
       7A     -1.397465     8A     -1.086446     9A     -1.011658
      10A     -0.952013    11A     -0.833624    12A     -0.736192
      13A     -0.660728    14A     -0.652219    15A     -0.620382
      16A     -0.607239    17A     -0.578147    18A     -0.554678
      19A     -0.535706    20A     -0.522566    21A     -0.507482
      22A     -0.486932    23A     -0.477546    24A     -0.400886

  @DF-RHF Final Energy:  -270.12893441272803

   => Energetics <=

    Nuclear Repulsion Energy =            237.4086126660208151
    One-Electron Energy =                -836.2987287765017754
    Two-Electron Energy =                 328.7611816977527042
    DFT Exchange-Correlation Energy =       0.0000000000000000
    Empirical Dispersion Energy =           0.0000000000000000
    PCM Polarization Energy =               0.0000000000000000
    EFP Energy =                            0.0000000000000000
    Total Energy =                       -270.1289344127281993
    Molecular point group: c1
  Basis Set: CC-PVTZ
  Basis Set:

  -Total Gradient:
     Atom            X                  Y                   Z
    ------   -----------------  -----------------  -----------------
       1        0.000004193666    -0.000031940652    -0.000012957981
       2       -0.000069964671    -0.000109776879     0.000069482251
       3        0.000039073651     0.000170851336     0.000028123447
       4        0.000036435502     0.000053124120    -0.000041559808
       5        0.000003535792    -0.000127881464    -0.000015498663
       6        0.000004738914     0.000000179174    -0.000001400305
       7       -0.000002030760     0.000005792730     0.000005160990
       8       -0.000024555982     0.000007820370    -0.000028220599
       9        0.000032205693     0.000012683695     0.000003233582
      10        0.000018170122    -0.000011319170     0.000013850722
      11        0.000007847162     0.000000829519    -0.000009228551
      12       -0.000018145177     0.000007197643    -0.000004701251
      13       -0.000013937309    -0.000000476178    -0.000001302142
      14       -0.000002274208     0.000020959002    -0.000002846697
      15       -0.000010613417     0.000001241695    -0.000009254680
      16       -0.000004678976     0.000000715057     0.000007119690

  **** Optimization is complete! (in 11 steps) ****
    Final optimized geometry and variables:
    Molecular point group: c1

    Geometry (in Angstrom), charge = 0, multiplicity = 1:

    O           -1.769254090764     0.988147838994     0.589105144995
    C           -1.104591371464     0.118141959758     0.127822747524
    C            0.301952850170    -0.144045069383     0.627214295252
    C           -1.636136116521    -0.762884055068    -0.981145862897
    C            1.382109430811    -0.002802690510    -0.449876405026
    H            0.332755662469    -1.151310988515     1.035802950646
    H            0.486318533170     0.547773893429     1.437877053512
    C            2.785509641698    -0.190795725243     0.115717997873
    H            1.216339865236    -0.726266677325    -1.240680199094
    H            1.305642986505     0.979615645650    -0.905749499074
    H            3.534338542546    -0.085002666369    -0.660171606283
    H            2.900499151412    -1.175317725417     0.556397231684
    H            2.997659718811     0.543053998526     0.885021159723
    H           -1.176289280292    -0.479107292799    -1.921351936063
    H           -2.704544113379    -0.633797352711    -1.061872107390
    H           -1.398429234661    -1.805167312817    -0.803793309544

  Mulliken Charges: (a.u.)
   Center  Symbol    Alpha    Beta     Spin     Total
       1     O     4.17203  4.17203  0.00000 -0.34406
       2     C     2.85766  2.85766  0.00000  0.28469
       3     C     3.09671  3.09671  0.00000 -0.19343
       4     C     3.16296  3.16296  0.00000 -0.32593
       5     C     3.09706  3.09706  0.00000 -0.19411
       6     H     0.44929  0.44929  0.00000  0.10142
       7     H     0.43866  0.43866  0.00000  0.12269
       8     C     3.14858  3.14858  0.00000 -0.29716
       9     H     0.45100  0.45100  0.00000  0.09800
      10     H     0.44564  0.44564  0.00000  0.10872
      11     H     0.44615  0.44615  0.00000  0.10770
      12     H     0.45444  0.45444  0.00000  0.09111
      13     H     0.45057  0.45057  0.00000  0.09886
      14     H     0.44743  0.44743  0.00000  0.10514
      15     H     0.43254  0.43254  0.00000  0.13492
      16     H     0.44928  0.44928  0.00000  0.10145

   Total alpha = 24.00000, Total beta = 24.00000, Total charge =  0.00000

*** Psi4 exiting successfully. Buy a developer a beer!
