  ==> Input File <==

--------------------------------------------------------------------------
set {
	reference rhf
	basis cc-pvtz
}

set_num_threads( 4 )
memory 2 gb

molecule MOL {
0 1

H	 2.542722	 0.687448	 0.138414
O	 2.063695	 -0.083403	 -0.105237
C	 0.742924	 0.005675	 0.350750
H	 0.731380	 0.039219	 1.440080
C	 -0.064076	 -1.193495	 -0.124425
C	 -0.047832	 1.190568	 -0.194462
H	 0.194729	 -1.376165	 -1.161308
H	 0.163013	 -2.094508	 0.429933
C	 -1.533112	 -0.752002	 0.006102
H	 0.148003	 1.266545	 -1.259275
H	 0.226235	 2.136493	 0.259722
C	 -1.506634	 0.799189	 0.067162
H	 -2.124360	 -1.110499	 -0.826089
H	 -1.983103	 -1.158030	 0.903403
H	 -2.183808	 1.252169	 -0.644677
H	 -1.813926	 1.138698	 1.049457

	symmetry c1
}
set optking {
	frozen_dihedral = ("
		1 2 3 6
	")
}

ee = optimize('scf')
oeprop('DIPOLE', 'QUADRUPOLE', 'MULLIKEN_CHARGES')
f=open( 'psi4out.xyz', 'w' )
f.write( "16  " )
f.write( str(ee) + "\n" )
f.write( MOL.save_string_xyz() )
f.close()
--------------------------------------------------------------------------

    Molecular point group: c1
  Charge       = 0
  Multiplicity = 1
  Basis Set: CC-PVTZ
  Basis Set:
  @DF-RHF Final Energy:  -270.11686151651315
    Total Energy =                       -270.1168615165130404
    Molecular point group: c1
  Basis Set: CC-PVTZ
  Basis Set:
  Basis Set: CC-PVTZ
  Basis Set:
  @DF-RHF Final Energy:  -270.11686387540095
    Total Energy =                       -270.1168638754011226
  Basis Set: CC-PVTZ
  Basis Set:
  Charge       = 0
  Multiplicity = 1
  Basis Set: CC-PVTZ
  Basis Set:

    Orbital Energies (a.u.)
    -----------------------

    Doubly Occupied:

       1A    -20.545759     2A    -11.267166     3A    -11.215394
       4A    -11.213474     5A    -11.211132     6A    -11.207080
       7A     -1.365807     8A     -1.115215     9A     -0.967139
      10A     -0.949336    11A     -0.791072    12A     -0.777339
      13A     -0.704648    14A     -0.659247    15A     -0.618383
      16A     -0.591962    17A     -0.569213    18A     -0.526532
      19A     -0.506078    20A     -0.482207    21A     -0.471331
      22A     -0.456996    23A     -0.448810    24A     -0.423233

  @DF-RHF Final Energy:  -270.11686416420076

   => Energetics <=

    Nuclear Repulsion Energy =            255.6290005397830214
    One-Electron Energy =                -873.3226218022316516
    Two-Electron Energy =                 347.5767570982478674
    DFT Exchange-Correlation Energy =       0.0000000000000000
    Empirical Dispersion Energy =           0.0000000000000000
    PCM Polarization Energy =               0.0000000000000000
    EFP Energy =                            0.0000000000000000
    Total Energy =                       -270.1168641642008197
    Molecular point group: c1
  Basis Set: CC-PVTZ
  Basis Set:

  -Total Gradient:
     Atom            X                  Y                   Z
    ------   -----------------  -----------------  -----------------
       1       -0.000162307975     0.000263861247    -0.000486557311
       2        0.000271144301    -0.000239995533     0.000722845988
       3       -0.000231479027    -0.000218651357    -0.000477610934
       4        0.000011967293     0.000001020113    -0.000005302375
       5       -0.000010466625     0.000007246398    -0.000037313792
       6        0.000090545269     0.000177727178     0.000272006288
       7        0.000001064665     0.000001466486     0.000001685720
       8       -0.000001904480     0.000005227332     0.000004217440
       9        0.000017109790    -0.000000359425     0.000014312453
      10       -0.000001420046    -0.000003081526    -0.000021671642
      11       -0.000001507203    -0.000006851142     0.000009213785
      12        0.000017699786     0.000008324148     0.000009350706
      13        0.000002672300     0.000001240751    -0.000004063325
      14       -0.000002385124     0.000005860715    -0.000002323261
      15        0.000001316468    -0.000000317499    -0.000002030923
      16       -0.000002049395    -0.000002717884     0.000003241183

  **** Optimization is complete! (in 3 steps) ****
    Final optimized geometry and variables:
    Molecular point group: c1

    Geometry (in Angstrom), charge = 0, multiplicity = 1:

    H            2.542826950272     0.686795798715     0.145836501825
    O            2.065000445218    -0.083873068660    -0.101238622150
    C            0.742644758732     0.004941276916     0.349719214124
    H            0.728725617472     0.039780806581     1.439146946325
    C           -0.063923323803    -1.194383981857    -0.125030995807
    C           -0.047710636975     1.189976021056    -0.195129803940
    H            0.193112341268    -1.376763812048    -1.162341764520
    H            0.163613166294    -2.095472683068     0.429004676834
    C           -1.532765663538    -0.752601329823     0.008221207136
    H            0.145889150705     1.266718784532    -1.260501876974
    H            0.226792004524     2.135538314912     0.259747453586
    C           -1.506210398277     0.798592728767     0.068397813389
    H           -2.125349769360    -1.111385230543    -0.822893403518
    H           -1.981321128968    -1.158073279017     0.906436667653
    H           -2.184174604782     1.251296667913    -0.642850618222
    H           -1.811939453845     1.138729285083     1.050909290123

  Mulliken Charges: (a.u.)
   Center  Symbol    Alpha    Beta     Spin     Total
       1     H     0.39514  0.39514  0.00000  0.20971
       2     O     4.20052  4.20052  0.00000 -0.40103
       3     C     2.92230  2.92230  0.00000  0.15541
       4     H     0.46639  0.46639  0.00000  0.06722
       5     C     3.10198  3.10198  0.00000 -0.20395
       6     C     3.10470  3.10470  0.00000 -0.20940
       7     H     0.45136  0.45136  0.00000  0.09729
       8     H     0.44330  0.44330  0.00000  0.11340
       9     C     3.10978  3.10978  0.00000 -0.21955
      10     H     0.45317  0.45317  0.00000  0.09366
      11     H     0.44937  0.44937  0.00000  0.10125
      12     C     3.11444  3.11444  0.00000 -0.22887
      13     H     0.44543  0.44543  0.00000  0.10914
      14     H     0.44854  0.44854  0.00000  0.10292
      15     H     0.44329  0.44329  0.00000  0.11342
      16     H     0.45030  0.45030  0.00000  0.09940

   Total alpha = 24.00000, Total beta = 24.00000, Total charge = -0.00000
