  ==> Input File <==

--------------------------------------------------------------------------
set {
	reference rhf
	basis 6-31G*
}

set_num_threads( 4 )
memory 2 gb

molecule MOL {
0 1

H	 2.591676	 2.013956	 0.335017
O	 3.341076	 1.666752	 -0.126416
C	 3.569581	 0.339145	 0.272707
C	 2.539767	 -0.640285	 -0.279495
H	 4.553106	 0.084646	 -0.100901
H	 3.608576	 0.269204	 1.359154
C	 2.328653	 -1.879510	 0.593788
H	 1.595980	 -0.115405	 -0.402509
H	 2.863221	 -0.948385	 -1.272379
C	 1.329870	 -2.868219	 -0.014246
H	 1.980684	 -1.569640	 1.575248
H	 3.283523	 -2.383448	 0.744158
C	 1.145802	 -4.167267	 0.778807
H	 0.365236	 -2.377272	 -0.129566
H	 1.662173	 -3.122229	 -1.018613
C	 0.496013	 -3.995840	 2.154621
H	 0.532628	 -4.844440	 0.187816
H	 2.111205	 -4.657653	 0.894376
C	 0.237371	 -5.327889	 2.861860
H	 -0.445991	 -3.460873	 2.042601
H	 1.124145	 -3.376844	 2.790700
C	 -0.405330	 -5.159307	 4.238152
H	 -0.403132	 -5.947983	 2.238381
H	 1.176060	 -5.868173	 2.965989
H	 -1.362431	 -4.650661	 4.164247
H	 -0.577662	 -6.120448	 4.712647
H	 0.228587	 -4.573888	 4.898302

	symmetry c1
}
set optking {
	frozen_dihedral = ("
		8 4 3 2
	")
}

ee = optimize('scf')
oeprop('DIPOLE', 'QUADRUPOLE', 'MULLIKEN_CHARGES')
f=open( 'psi4out.xyz', 'w' )
f.write( "27  " )
f.write( str(ee) + "\n" )
f.write( MOL.save_string_xyz() )
f.close()
--------------------------------------------------------------------------

    Molecular point group: c1
  Charge       = 0
  Multiplicity = 1
  Basis Set: 6-31G*
  Basis Set:
  @DF-RHF Final Energy:  -388.27859429946892
    Total Energy =                       -388.2785942994686366
    Molecular point group: c1
  Basis Set: 6-31G*
  Basis Set:
  Basis Set: 6-31G*
  Basis Set:
  @DF-RHF Final Energy:  -388.27901664451889
    Total Energy =                       -388.2790166445186060
  Basis Set: 6-31G*
  Basis Set:
  Basis Set: 6-31G*
  Basis Set:
  @DF-RHF Final Energy:  -388.27906382615896
    Total Energy =                       -388.2790638261593585
  Basis Set: 6-31G*
  Basis Set:
  Basis Set: 6-31G*
  Basis Set:
  @DF-RHF Final Energy:  -388.27905860879196
    Total Energy =                       -388.2790586087925249
  Basis Set: 6-31G*
  Basis Set:
  Basis Set: 6-31G*
  Basis Set:
  @DF-RHF Final Energy:  -388.27906500006077
    Total Energy =                       -388.2790650000606547
  Basis Set: 6-31G*
  Basis Set:
  Basis Set: 6-31G*
  Basis Set:
  @DF-RHF Final Energy:  -388.27906732225688
    Total Energy =                       -388.2790673222567648
  Basis Set: 6-31G*
  Basis Set:
  Charge       = 0
  Multiplicity = 1
  Basis Set: 6-31G*
  Basis Set:

    Orbital Energies (a.u.)
    -----------------------

    Doubly Occupied:

       1A    -20.551530     2A    -11.267075     3A    -11.219783
       4A    -11.217242     5A    -11.216623     6A    -11.216114
       7A    -11.215549     8A    -11.214308     9A    -11.209604
      10A     -1.358753    11A     -1.095604    12A     -1.062264
      13A     -1.011212    14A     -0.945395    15A     -0.884322
      16A     -0.824300    17A     -0.805325    18A     -0.778965
      19A     -0.689100    20A     -0.649362    21A     -0.643740
      22A     -0.607269    23A     -0.604761    24A     -0.586352
      25A     -0.572757    26A     -0.553904    27A     -0.545936
      28A     -0.522109    29A     -0.510683    30A     -0.500998
      31A     -0.482701    32A     -0.476180    33A     -0.463824
      34A     -0.460472    35A     -0.452083    36A     -0.443512
      37A     -0.421331

  @DF-RHF Final Energy:  -388.27906808394431

   => Energetics <=

    Nuclear Repulsion Energy =            453.4790983819040662
    One-Electron Energy =               -1424.9542491243016684
    Two-Electron Energy =                 583.1960826584539745
    DFT Exchange-Correlation Energy =       0.0000000000000000
    Empirical Dispersion Energy =           0.0000000000000000
    PCM Polarization Energy =               0.0000000000000000
    EFP Energy =                            0.0000000000000000
    Total Energy =                       -388.2790680839435709
    Molecular point group: c1
  Basis Set: 6-31G*
  Basis Set:

  -Total Gradient:
     Atom            X                  Y                   Z
    ------   -----------------  -----------------  -----------------
       1        0.000035233485    -0.000046212094     0.000010137032
       2       -0.002210245291     0.000696057127     0.002969564908
       3        0.003262985023    -0.000539563904    -0.005054192157
       4       -0.002496983222    -0.001163530974     0.006480560788
       5       -0.000018945437     0.000027532219     0.000017190094
       6        0.000048627684    -0.000046555437     0.000008080683
       7        0.000040353247    -0.000047277043     0.000034896038
       8        0.001406985880     0.001143465962    -0.004501594997
       9       -0.000061280670     0.000002691509     0.000015032804
      10        0.000012475884     0.000001989089    -0.000012868389
      11        0.000013197710     0.000003565669     0.000013600575
      12       -0.000019816814    -0.000030911965     0.000027539562
      13        0.000013811521     0.000001029333    -0.000004563136
      14       -0.000007163556     0.000000081542    -0.000001148061
      15       -0.000006954974    -0.000002327097    -0.000001867407
      16       -0.000006966502     0.000000597198    -0.000001541273
      17       -0.000001941661     0.000005085105    -0.000002577108
      18       -0.000004624800    -0.000006389867     0.000001065872
      19        0.000005292637     0.000001064554     0.000003312330
      20       -0.000007376785    -0.000003453755    -0.000000508005
      21       -0.000000973659     0.000002731689    -0.000001107043
      22        0.000004576540    -0.000000094654     0.000000824484
      23       -0.000001097834     0.000002652096     0.000001602818
      24        0.000000351647    -0.000002557517    -0.000001197337
      25       -0.000000127182     0.000000135056    -0.000001249263
      26        0.000000418572     0.000000126392    -0.000000122682
      27        0.000000188548     0.000000069769     0.000001128865

  **** Optimization is complete! (in 7 steps) ****
    Final optimized geometry and variables:
    Molecular point group: c1

    Geometry (in Angstrom), charge = 0, multiplicity = 1:

    H            0.918558533529     4.353149747901    -0.944304658203
    O            1.743056131132     4.039704835460    -1.288114411920
    C            1.938758576140     2.712471924471    -0.874573848918
    C            0.889599505104     1.747535595851    -1.437037626019
    H            2.930377437468     2.436653429834    -1.207545054505
    H            1.942798012203     2.661864649543     0.214040405895
    C            0.676254259425     0.506788960379    -0.570072972584
    H           -0.044338816328     2.288584431326    -1.579428873465
    H            1.188961760133     1.447136385344    -2.438586342949
    C           -0.323383411847    -0.479776919611    -1.179182209188
    H            0.341478242246     0.817379145009     0.416341852511
    H            1.630759382057     0.002441620578    -0.422915524333
    C           -0.504372959890    -1.781438970651    -0.389725444505
    H           -1.289237948357     0.010444021683    -1.290816849132
    H            0.006002778200    -0.730495006754    -2.185150026935
    C           -1.151080650019    -1.615051368714     0.988107468351
    H           -1.117850816476    -2.457712923771    -0.981416282129
    H            0.461996354897    -2.270524258923    -0.277686823114
    C           -1.403693773473    -2.949490365606     1.693037513172
    H           -2.095434155759    -1.083162771781     0.879541148157
    H           -0.523077174595    -0.995572978115     1.623705429683
    C           -2.043909819227    -2.786015051284     3.071092376888
    H           -2.043371511418    -3.570557591205     1.069663873683
    H           -0.462889588403    -3.486566079779     1.794096903282
    H           -3.003119037498    -2.280795712186     3.000344284861
    H           -2.211736623576    -3.748713558289     3.544019263865
    H           -1.410562518592    -2.199664035063     3.730940667188

  Mulliken Charges: (a.u.)
   Center  Symbol    Alpha    Beta     Spin     Total
       1     H     0.28342  0.28342  0.00000  0.43315
       2     O     4.37108  4.37108  0.00000 -0.74217
       3     C     2.99024  2.99024  0.00000  0.01953
       4     C     3.16892  3.16892  0.00000 -0.33784
       5     H     0.41462  0.41462  0.00000  0.17075
       6     H     0.43151  0.43151  0.00000  0.13699
       7     C     3.16142  3.16142  0.00000 -0.32284
       8     H     0.42451  0.42451  0.00000  0.15098
       9     H     0.41605  0.41605  0.00000  0.16790
      10     C     3.15294  3.15294  0.00000 -0.30588
      11     H     0.42092  0.42092  0.00000  0.15815
      12     H     0.42239  0.42239  0.00000  0.15522
      13     C     3.15346  3.15346  0.00000 -0.30692
      14     H     0.42348  0.42348  0.00000  0.15304
      15     H     0.42056  0.42056  0.00000  0.15887
      16     C     3.15267  3.15267  0.00000 -0.30535
      17     H     0.42130  0.42130  0.00000  0.15740
      18     H     0.42366  0.42366  0.00000  0.15268
      19     C     3.15120  3.15120  0.00000 -0.30240
      20     H     0.42479  0.42479  0.00000  0.15043
      21     H     0.42260  0.42260  0.00000  0.15480
      22     C     3.23919  3.23919  0.00000 -0.47838
      23     H     0.42294  0.42294  0.00000  0.15412
      24     H     0.42292  0.42292  0.00000  0.15415
      25     H     0.42194  0.42194  0.00000  0.15612
      26     H     0.41916  0.41916  0.00000  0.16168
      27     H     0.42209  0.42209  0.00000  0.15581

   Total alpha = 37.00000, Total beta = 37.00000, Total charge = -0.00000
