  ==> Input File <==

--------------------------------------------------------------------------
set {
	reference rhf
	basis 6-31G*
}

set_num_threads( 1 )
memory 2 gb

molecule MOL {
0 1

H	 -3.261111	 -0.295142	 1.469456
C	 -3.306842	 -0.277400	 0.373456
C	 -2.660244	 0.921717	 -0.272021
O	 -3.838538	 -1.161155	 -0.216482
C	 -1.220012	 1.144545	 0.209990
H	 -2.705793	 0.797307	 -1.347733
H	 -3.263782	 1.790044	 -0.010477
C	 -0.252658	 0.041456	 -0.226725
H	 -0.873521	 2.100229	 -0.171974
H	 -1.211708	 1.231594	 1.295398
C	 1.180775	 0.282413	 0.250794
H	 -0.266029	 -0.034465	 -1.312038
H	 -0.597733	 -0.921000	 0.146291
C	 2.148627	 -0.814315	 -0.201312
H	 1.516199	 1.249228	 -0.115937
H	 1.192670	 0.346017	 1.338083
C	 3.580890	 -0.659131	 0.322722
H	 2.166869	 -0.852443	 -1.289387
H	 1.762857	 -1.776509	 0.128956
C	 3.766681	 0.467071	 1.340941
H	 4.237674	 -0.474599	 -0.523759
H	 3.908230	 -1.599982	 0.760408
H	 3.431992	 1.418468	 0.935854
H	 3.212802	 0.283640	 2.255570
H	 4.813071	 0.573397	 1.610678

	symmetry c1
}
set optking {
	frozen_dihedral = ("
		6 3 5 8,
		6 3 2 4,
		3 5 8 12,
		12 8 11 14,
		8 11 14 18
	")
}

ee = energy('scf')
oeprop('DIPOLE', 'QUADRUPOLE', 'MULLIKEN_CHARGES')
f=open( 'psi4out.xyz', 'w' )
f.write( "25  " )
f.write( str(ee) + "\n" )
f.write( MOL.save_string_xyz() )
f.close()
--------------------------------------------------------------------------

    Molecular point group: c1

    Geometry (in Angstrom), charge = 0, multiplicity = 1:

       Center              X                  Y                   Z               Mass
    ------------   -----------------  -----------------  -----------------  -----------------
           H         -3.195721146202    -0.283976665417     1.287428622770     1.007825032070
           C         -3.241452146202    -0.266234665417     0.191428622770    12.000000000000
           C         -2.594854146202     0.932882334583    -0.454048377230    12.000000000000
           O         -3.773148146202    -1.149989665417    -0.398509377230    15.994914619560
           C         -1.154622146202     1.155710334583     0.027962622770    12.000000000000
           H         -2.640403146202     0.808472334583    -1.529760377230     1.007825032070
           H         -3.198392146202     1.801209334583    -0.192504377230     1.007825032070
           C         -0.187268146202     0.052621334583    -0.408752377230    12.000000000000
           H         -0.808131146202     2.111394334583    -0.354001377230     1.007825032070
           H         -1.146318146202     1.242759334583     1.113370622770     1.007825032070
           C          1.246164853798     0.293578334583     0.068766622770    12.000000000000
           H         -0.200639146202    -0.023299665417    -1.494065377230     1.007825032070
           H         -0.532343146202    -0.909834665417    -0.035736377230     1.007825032070
           C          2.214016853798    -0.803149665417    -0.383339377230    12.000000000000
           H          1.581588853798     1.260393334583    -0.297964377230     1.007825032070
           H          1.258059853798     0.357182334583     1.156055622770     1.007825032070
           C          3.646279853798    -0.647965665417     0.140694622770    12.000000000000
           H          2.232258853798    -0.841277665417    -1.471414377230     1.007825032070
           H          1.828246853798    -1.765343665417    -0.053071377230     1.007825032070
           C          3.832070853798     0.478236334583     1.158913622770    12.000000000000
           H          4.303063853798    -0.463433665417    -0.705786377230     1.007825032070
           H          3.973619853798    -1.588816665417     0.578380622770     1.007825032070
           H          3.497381853798     1.429633334583     0.753826622770     1.007825032070
           H          3.278191853798     0.294805334583     2.073542622770     1.007825032070
           H          4.878460853798     0.584562334583     1.428650622770     1.007825032070

  Charge       = 0
  Multiplicity = 1
  Basis Set: 6-31G*
  Basis Set:

    Orbital Energies (a.u.)
    -----------------------

    Doubly Occupied:

       1A    -20.561813     2A    -11.325963     3A    -11.234995
       4A    -11.234350     5A    -11.223037     6A    -11.219144
       7A    -11.216489     8A    -11.215501     9A    -11.210222
      10A     -1.401794    11A     -1.104294    12A     -1.070637
      13A     -1.010891    14A     -0.940475    15A     -0.880924
      16A     -0.824063    17A     -0.787662    18A     -0.770801
      19A     -0.665318    20A     -0.663896    21A     -0.639202
      22A     -0.623427    23A     -0.605837    24A     -0.587401
      25A     -0.571397    26A     -0.556515    27A     -0.532389
      28A     -0.521955    29A     -0.517144    30A     -0.495571
      31A     -0.489695    32A     -0.481614    33A     -0.461521
      34A     -0.447270    35A     -0.442326    36A     -0.409337

  @DF-RHF Final Energy:  -387.11190599248437

   => Energetics <=

    Nuclear Repulsion Energy =            442.4604036749344687
    One-Electron Energy =               -1401.2549293450044843
    Two-Electron Energy =                 571.6826196775870130
    DFT Exchange-Correlation Energy =       0.0000000000000000
    Empirical Dispersion Energy =           0.0000000000000000
    PCM Polarization Energy =               0.0000000000000000
    EFP Energy =                            0.0000000000000000
    Total Energy =                       -387.1119059924830026

  Mulliken Charges: (a.u.)
   Center  Symbol    Alpha    Beta     Spin     Total
       1     H     0.43268  0.43268  0.00000  0.13465
       2     C     2.83079  2.83079  0.00000  0.33841
       3     C     3.20807  3.20807  0.00000 -0.41615
       4     O     4.23780  4.23780  0.00000 -0.47561
       5     C     3.16649  3.16649  0.00000 -0.33298
       6     H     0.39972  0.39972  0.00000  0.20056
       7     H     0.40678  0.40678  0.00000  0.18644
       8     C     3.15343  3.15343  0.00000 -0.30687
       9     H     0.41308  0.41308  0.00000  0.17384
      10     H     0.41980  0.41980  0.00000  0.16040
      11     C     3.15767  3.15767  0.00000 -0.31534
      12     H     0.41846  0.41846  0.00000  0.16308
      13     H     0.41868  0.41868  0.00000  0.16265
      14     C     3.15570  3.15570  0.00000 -0.31140
      15     H     0.42174  0.42174  0.00000  0.15652
      16     H     0.42068  0.42068  0.00000  0.15864
      17     C     3.15487  3.15487  0.00000 -0.30974
      18     H     0.41971  0.41971  0.00000  0.16059
      19     H     0.42030  0.42030  0.00000  0.15940
      20     C     3.24485  3.24485  0.00000 -0.48970
      21     H     0.42045  0.42045  0.00000  0.15910
      22     H     0.41919  0.41919  0.00000  0.16162
      23     H     0.42029  0.42029  0.00000  0.15943
      24     H     0.42092  0.42092  0.00000  0.15816
      25     H     0.41785  0.41785  0.00000  0.16430

   Total alpha = 36.00000, Total beta = 36.00000, Total charge =  0.00000
