                              Psi4 1.0.54 Driver

  ==> Input File <==

--------------------------------------------------------------------------
set {
	reference rhf
	basis cc-pvtz
}

set_num_threads( 4 )
memory 2 gb

molecule MOL {
0 1

H	 -0.766905	 4.100883	 1.177452
O	 0.049264	 3.623984	 1.189839
C	 -0.151822	 2.430835	 0.637667
C	 1.105804	 1.604920	 0.621196
O	 -1.209024	 2.098652	 0.225418
C	 0.926581	 0.227233	 0.000178
H	 1.454168	 1.533480	 1.646509
H	 1.858954	 2.180969	 0.093322
C	 2.220156	 -0.582071	 -0.000088
H	 0.156085	 -0.311213	 0.540407
H	 0.561362	 0.337061	 -1.014698
C	 3.466689	 0.296012	 -0.000457
H	 2.239073	 -1.234095	 -0.869382
H	 2.239505	 -1.233985	 0.869270
H	 3.493549	 0.935857	 -0.875887
H	 4.368821	 -0.304526	 -0.001199
H	 3.494559	 0.935166	 0.875458

	symmetry c1
}
set optking {
	frozen_dihedral = ("
		10 6 9 13
	")
}

ee,wfn = optimize('scf', return_wfn=True)
oeprop( wfn, 'DIPOLE', 'QUADRUPOLE', 'MULLIKEN_CHARGES')
f=open( 'psi4out.xyz', 'w' )
f.write( "17  " )
f.write( str(ee) + "\n" )
f.write( MOL.save_string_xyz() )
f.close()
--------------------------------------------------------------------------

    Molecular point group: c1
  Charge       = 0
  Multiplicity = 1
  Basis Set: CC-PVTZ
  Basis Set:
  @DF-RHF Final Energy:  -345.03897067271942
    Total Energy =                       -345.0389706727194152
    Molecular point group: c1
  Basis Set: CC-PVTZ
  Basis Set:
  Basis Set: CC-PVTZ
  Basis Set:
  @DF-RHF Final Energy:  -345.01327415649365
    Total Energy =                       -345.0132741564932530
  Basis Set: CC-PVTZ
  Basis Set:
  Basis Set: CC-PVTZ
  Basis Set:
  @DF-RHF Final Energy:  -345.04081270577626
    Total Energy =                       -345.0408127057765455
  Basis Set: CC-PVTZ
  Basis Set:
  Basis Set: CC-PVTZ
  Basis Set:
  @DF-RHF Final Energy:  -345.04203017821374
    Total Energy =                       -345.0420301782137358
  Basis Set: CC-PVTZ
  Basis Set:
  @DF-RHF Final Energy:  -345.03868344731006
    Total Energy =                       -345.0386834473097224
  Basis Set: CC-PVTZ
  Basis Set:
  @DF-RHF Final Energy:  -345.04210480952861
    Total Energy =                       -345.0421048095284391
  Basis Set: CC-PVTZ
  Basis Set:
  Basis Set: CC-PVTZ
  Basis Set:
  @DF-RHF Final Energy:  -345.04221698975772
    Total Energy =                       -345.0422169897576623
  Basis Set: CC-PVTZ
  Basis Set:
  Basis Set: CC-PVTZ
  Basis Set:
  @DF-RHF Final Energy:  -345.04222079359243
    Total Energy =                       -345.0422207935924916
  Basis Set: CC-PVTZ
  Basis Set:
  Charge       = 0
  Multiplicity = 1
  Basis Set: CC-PVTZ
  Basis Set:

    Orbital Energies (a.u.)
    -----------------------

    Doubly Occupied:

       1A    -20.603621     2A    -20.540392     3A    -11.373168
       4A    -11.238384     5A    -11.221775     6A    -11.221184
       7A    -11.213404     8A     -1.477258     9A     -1.368791
      10A     -1.090818    11A     -1.015668    12A     -0.921093
      13A     -0.834157    14A     -0.773696    15A     -0.703485
      16A     -0.693164    17A     -0.670706    18A     -0.629572
      19A     -0.605646    20A     -0.578268    21A     -0.561904
      22A     -0.549471    23A     -0.524878    24A     -0.484405
      25A     -0.477085    26A     -0.472092    27A     -0.466948
      28A     -0.447014

  @DF-RHF Final Energy:  -345.04222143126975

   => Energetics <=

    Nuclear Repulsion Energy =            308.7760539706055738
    One-Electron Energy =               -1082.1204639311258688
    Two-Electron Energy =                 428.3021885292507704
    DFT Exchange-Correlation Energy =       0.0000000000000000
    Empirical Dispersion Energy =           0.0000000000000000
    PCM Polarization Energy =               0.0000000000000000
    EFP Energy =                            0.0000000000000000
    Total Energy =                       -345.0422214312695814
    Molecular point group: c1
  Basis Set: CC-PVTZ
  Basis Set:

  -Total Gradient:
     Atom            X                  Y                   Z
    ------   -----------------  -----------------  -----------------
       1       -0.000020555051     0.000042288963     0.000017465046
       2        0.000011206574    -0.000025875165     0.000009982046
       3       -0.000090397362    -0.000011867543    -0.000040359161
       4       -0.000003567143    -0.000015862230     0.000016168899
       5        0.000093013564     0.000012309550     0.000013508740
       6       -0.003339417141    -0.001894966994    -0.007000633997
       7        0.000008662355     0.000008616058     0.000007053301
       8        0.000000947891     0.000006691740    -0.000010354755
       9       -0.002457450358    -0.004931405978     0.005664953688
      10        0.003177593960     0.002327979384     0.005073290254
      11       -0.000011714842     0.000001518100    -0.000015105558
      12       -0.000028301114     0.000024307512    -0.000031659526
      13        0.002617386992     0.004475127249    -0.003715795125
      14       -0.000011524453    -0.000016352325     0.000005942701
      15        0.000016131199     0.000000888149    -0.000017993377
      16        0.000031452528    -0.000028069830    -0.000004296901
      17        0.000006532402     0.000024673363     0.000027833722

  **** Optimization is complete! (in 9 steps) ****
    Final optimized geometry and variables:
    Molecular point group: c1

    Geometry (in Angstrom), charge = 0, multiplicity = 1:

    H           -1.325464321232     2.668676314015     1.377856851264
    O           -0.548490502891     2.170425373983     1.173324721850
    C           -0.917448376994     1.048539360562     0.560745632806
    C            0.270121133316     0.197423085080     0.198279552386
    O           -2.052118932195     0.794033186589     0.346895922731
    C           -0.118163196933    -1.103987580744    -0.498565450339
    H            0.815132572572     0.010141711201     1.117806820762
    H            0.920045882253     0.813742138568    -0.410796383925
    C            1.061171984628    -2.048758706536    -0.803051585743
    H           -0.807017802630    -1.609320783030     0.166225894939
    H           -0.658501296744    -0.867889996227    -1.405801663163
    C            2.399202487392    -1.374063805339    -1.112733204367
    H            0.802907667922    -2.626811778735    -1.683432864534
    H            1.197859689775    -2.744302345226     0.017166515677
    H            2.310633112458    -0.678483002940    -1.941043194391
    H            3.135186579726    -2.119086157745    -1.391763056449
    H            2.795254382079    -0.830283840876    -0.263551897845

  Mulliken Charges: (a.u.)
   Center  Symbol    Alpha    Beta     Spin     Total
       1     H     0.38245  0.38245  0.00000  0.23511
       2     O     4.15979  4.15979  0.00000 -0.31958
       3     C     2.80878  2.80878  0.00000  0.38245
       4     C     3.11246  3.11246  0.00000 -0.22491
       5     O     4.19067  4.19067  0.00000 -0.38134
       6     C     3.09011  3.09011  0.00000 -0.18021
       7     H     0.43701  0.43701  0.00000  0.12599
       8     H     0.43536  0.43536  0.00000  0.12929
       9     C     3.09045  3.09045  0.00000 -0.18090
      10     H     0.44300  0.44300  0.00000  0.11399
      11     H     0.44339  0.44339  0.00000  0.11322
      12     C     3.15884  3.15884  0.00000 -0.31768
      13     H     0.44845  0.44845  0.00000  0.10309
      14     H     0.44977  0.44977  0.00000  0.10047
      15     H     0.45297  0.45297  0.00000  0.09405
      16     H     0.44338  0.44338  0.00000  0.11323
      17     H     0.45312  0.45312  0.00000  0.09375

   Total alpha = 28.00000, Total beta = 28.00000, Total charge =  0.00000

*** Psi4 exiting successfully. Buy a developer a beer!
