  ==> Input File <==

--------------------------------------------------------------------------
set {
	reference rhf
	basis 6-31G*
}

set_num_threads( 4 )
memory 2 gb

molecule MOL {
0 1

O	 1.846825	 1.296220	 0.000415
C	 1.705091	 0.115954	 0.001797
C	 0.381791	 -0.609817	 0.001258
O	 2.721346	 -0.737485	 -0.000216
C	 -0.823008	 0.326187	 0.001381
H	 0.371250	 -1.265087	 -0.865474
H	 0.370908	 -1.265746	 0.867490
C	 -0.555917	 1.616126	 -0.775652
H	 -1.092654	 0.561795	 1.026061
H	 -1.677497	 -0.190709	 -0.424033
C	 -1.753906	 2.567228	 -0.785047
H	 0.304208	 2.127980	 -0.346482
H	 -0.283736	 1.373076	 -1.801677
C	 -1.486852	 3.855377	 -1.562611
H	 -2.025458	 2.813040	 0.239149
H	 -2.613687	 2.057649	 -1.214283
H	 -0.653142	 4.405727	 -1.135696
H	 -2.354095	 4.508224	 -1.551193
H	 -1.245577	 3.644269	 -2.600652
C	 4.024888	 -0.184556	 -0.001949
H	 4.179030	 0.422472	 -0.882452
H	 4.701782	 -1.024608	 -0.003642
H	 4.181981	 0.421185	 0.878906

	symmetry c1
}
set optking {
	frozen_dihedral = ("
		9 5 3 6
	")
}

ee = optimize('scf')
oeprop('DIPOLE', 'QUADRUPOLE', 'MULLIKEN_CHARGES')
f=open( 'psi4out.xyz', 'w' )
f.write( "23  " )
f.write( str(ee) + "\n" )
f.write( MOL.save_string_xyz() )
f.close()
--------------------------------------------------------------------------

    Molecular point group: c1
  Charge       = 0
  Multiplicity = 1
  Basis Set: 6-31G*
  Basis Set:
  @DF-RHF Final Energy:  -422.95284888486856
    Total Energy =                       -422.9528488848688994
    Molecular point group: c1
  Basis Set: 6-31G*
  Basis Set:
  Basis Set: 6-31G*
  Basis Set:
  @DF-RHF Final Energy:  -422.96612100990194
    Total Energy =                       -422.9661210099018263
  Basis Set: 6-31G*
  Basis Set:
  Basis Set: 6-31G*
  Basis Set:
  @DF-RHF Final Energy:  -422.96904921683961
    Total Energy =                       -422.9690492168396077
  Basis Set: 6-31G*
  Basis Set:
  Basis Set: 6-31G*
  Basis Set:
  @DF-RHF Final Energy:  -422.96725151772898
    Total Energy =                       -422.9672515177290961
  Basis Set: 6-31G*
  Basis Set:
  @DF-RHF Final Energy:  -422.97050432712433
    Total Energy =                       -422.9705043271241038
  @DF-RHF Final Energy:  -422.97076507679981
    Total Energy =                       -422.9707650767996938
  @DF-RHF Final Energy:  -422.97094021797136
    Total Energy =                       -422.9709402179714743
  @DF-RHF Final Energy:  -422.97108767196801
    Total Energy =                       -422.9710876719678936
  @DF-RHF Final Energy:  -422.97141448801739
    Total Energy =                       -422.9714144880180129
  @DF-RHF Final Energy:  -422.97156903673306
    Total Energy =                       -422.9715690367329444
  Basis Set: 6-31G*
  Basis Set:
  @DF-RHF Final Energy:  -422.97158433656921
    Total Energy =                       -422.9715843365695491
  Basis Set: 6-31G*
  Basis Set:
  Basis Set: 6-31G*
  Basis Set:
  @DF-RHF Final Energy:  -422.97158652963805
    Total Energy =                       -422.9715865296381025
  Basis Set: 6-31G*
  Basis Set:
  Basis Set: 6-31G*
  Basis Set:
  @DF-RHF Final Energy:  -422.97158788174215
    Total Energy =                       -422.9715878817422663
  Basis Set: 6-31G*
  Basis Set:
  Charge       = 0
  Multiplicity = 1
  Basis Set: 6-31G*
  Basis Set:

    Orbital Energies (a.u.)
    -----------------------

    Doubly Occupied:

       1A    -20.605542     2A    -20.543666     3A    -11.373174
       4A    -11.281183     5A    -11.235603     6A    -11.223640
       7A    -11.213856     8A    -11.211148     9A    -11.206531
      10A     -1.470209    11A     -1.362395    12A     -1.089847
      13A     -1.041196    14A     -0.985809    15A     -0.932144
      16A     -0.845126    17A     -0.796002    18A     -0.766679
      19A     -0.696739    20A     -0.680127    21A     -0.670951
      22A     -0.644318    23A     -0.608447    24A     -0.600508
      25A     -0.569019    26A     -0.564012    27A     -0.550068
      28A     -0.526992    29A     -0.521900    30A     -0.504454
      31A     -0.487209    32A     -0.470902    33A     -0.462948
      34A     -0.454454    35A     -0.451740    36A     -0.432348

  @DF-RHF Final Energy:  -422.97158853277097

   => Energetics <=

    Nuclear Repulsion Energy =            464.4791080909217271
    One-Electron Energy =               -1496.7396263383964197
    Two-Electron Energy =                 609.2889297147041816
    DFT Exchange-Correlation Energy =       0.0000000000000000
    Empirical Dispersion Energy =           0.0000000000000000
    PCM Polarization Energy =               0.0000000000000000
    EFP Energy =                            0.0000000000000000
    Total Energy =                       -422.9715885327705109
    Molecular point group: c1
  Basis Set: 6-31G*
  Basis Set:

  -Total Gradient:
     Atom            X                  Y                   Z
    ------   -----------------  -----------------  -----------------
       1       -0.000020723139    -0.000008436816    -0.000020898005
       2       -0.000013599322     0.000001913870    -0.000000907419
       3        0.003791273583     0.004199256942    -0.004253806824
       4       -0.000028960016     0.000020389568     0.000035819886
       5        0.004329468503     0.005077945459     0.000792432237
       6       -0.003797327909    -0.004310165137     0.003385668574
       7       -0.000008629676     0.000009492610    -0.000008722803
       8       -0.000002943257    -0.000006253213     0.000038545961
       9       -0.004291684455    -0.004966483764     0.000055391676
      10        0.000000264681    -0.000000484557     0.000003324115
      11        0.000025660971    -0.000013971436     0.000004057250
      12        0.000006875213    -0.000017257574     0.000005015434
      13        0.000003446351    -0.000007930965    -0.000010572891
      14       -0.000003433299     0.000006243433    -0.000005098444
      15       -0.000008717884     0.000002968866     0.000001338305
      16       -0.000001546303     0.000000839605     0.000003808660
      17       -0.000000608701    -0.000003599511    -0.000002238867
      18        0.000000253488     0.000004935163    -0.000002201996
      19       -0.000001081964     0.000001336651     0.000000159225
      20        0.000012189943     0.000021400121    -0.000042581252
      21        0.000011091100    -0.000006538876     0.000006531590
      22        0.000006619954    -0.000001236173     0.000007579121
      23       -0.000007887870    -0.000004364264     0.000007356464

  **** Optimization is complete! (in 14 steps) ****
    Final optimized geometry and variables:
    Molecular point group: c1

    Geometry (in Angstrom), charge = 0, multiplicity = 1:

    O            1.290990346738     0.096127360989     1.217838823129
    C            1.043511217061    -0.863430204160     0.559164404895
    C           -0.332394563368    -1.452010991070     0.374166160251
    O            1.973932031573    -1.577394702221    -0.058103016257
    C           -1.495961882260    -0.448179708456     0.352606832682
    H           -0.356443582322    -2.107091014596    -0.487468521561
    H           -0.467331369644    -2.116589935800     1.226431321577
    C           -1.283782859323     0.803564785154    -0.499661744821
    H           -1.778335577254    -0.191833806545     1.368617399203
    H           -2.353271743323    -0.990680199618    -0.041391315861
    C           -2.545200827588     1.663441146258    -0.600297982166
    H           -0.476318673651     1.396321881207    -0.086202888454
    H           -0.974283030947     0.505587004430    -1.501441526488
    C           -2.339795801129     2.922314273350    -1.442043973539
    H           -2.865462420578     1.947556881874     0.399806152391
    H           -3.355081617924     1.073682697287    -1.024847394750
    H           -1.559572659316     3.550506050500    -1.022207571484
    H           -3.248926273608     3.513463272794    -1.494001744930
    H           -2.050064317608     2.671345451201    -2.458665120057
    C            3.317382411263    -1.159605448684     0.105602376549
    H            3.451798460356    -0.157299687263    -0.274542777534
    H            3.914184285943    -1.857896349090    -0.460130152927
    H            3.598535262430    -1.184812946439     1.148572161698

  Mulliken Charges: (a.u.)
   Center  Symbol    Alpha    Beta     Spin     Total
       1     O     4.28857  4.28857  0.00000 -0.57715
       2     C     2.60362  2.60362  0.00000  0.79275
       3     C     3.21337  3.21337  0.00000 -0.42673
       4     O     4.30499  4.30499  0.00000 -0.60997
       5     C     3.15022  3.15022  0.00000 -0.30045
       6     H     0.39938  0.39938  0.00000  0.20124
       7     H     0.39853  0.39853  0.00000  0.20295
       8     C     3.16243  3.16243  0.00000 -0.32486
       9     H     0.41226  0.41226  0.00000  0.17547
      10     H     0.41962  0.41962  0.00000  0.16076
      11     C     3.15249  3.15249  0.00000 -0.30498
      12     H     0.40229  0.40229  0.00000  0.19543
      13     H     0.42630  0.42630  0.00000  0.14741
      14     C     3.23944  3.23944  0.00000 -0.47887
      15     H     0.42131  0.42131  0.00000  0.15737
      16     H     0.42460  0.42460  0.00000  0.15079
      17     H     0.41968  0.41968  0.00000  0.16064
      18     H     0.41968  0.41968  0.00000  0.16064
      19     H     0.42250  0.42250  0.00000  0.15501
      20     C     3.09299  3.09299  0.00000 -0.18598
      21     H     0.40849  0.40849  0.00000  0.18303
      22     H     0.40829  0.40829  0.00000  0.18341
      23     H     0.40895  0.40895  0.00000  0.18209

   Total alpha = 36.00000, Total beta = 36.00000, Total charge =  0.00000
