  ==> Input File <==

--------------------------------------------------------------------------
set {
	reference rhf
	basis cc-pvtz
}

set_num_threads( 4 )
memory 2 gb

molecule MOL {
0 1

O	 -1.278239	 1.034789	 -0.784693
C	 -1.204115	 0.062668	 -0.112312
C	 -2.386398	 -0.667698	 0.460323
O	 -0.068058	 -0.518372	 0.226882
H	 -2.382952	 -1.693172	 0.114333
H	 -3.296656	 -0.175702	 0.158400
H	 -2.312537	 -0.685191	 1.540100
C	 1.169086	 0.037484	 -0.230612
C	 1.871528	 0.578007	 0.998828
C	 0.899588	 1.103512	 -1.277303
H	 1.749274	 -0.760581	 -0.668291
H	 2.039733	 -0.210557	 1.721063
H	 2.830448	 0.999915	 0.722825
H	 1.278898	 1.352920	 1.470249
H	 1.834712	 1.534049	 -1.615950
H	 0.392505	 0.681371	 -2.133639
H	 0.288560	 1.897203	 -0.862594

	symmetry c1
}
set optking {
	frozen_dihedral = ("
		11 8 4 2
	")
}

ee = optimize('scf')
oeprop('DIPOLE', 'QUADRUPOLE', 'MULLIKEN_CHARGES')
f=open( 'psi4out.xyz', 'w' )
f.write( "17  " )
f.write( str(ee) + "\n" )
f.write( MOL.save_string_xyz() )
f.close()
--------------------------------------------------------------------------

    Molecular point group: c1
  Charge       = 0
  Multiplicity = 1
  Basis Set: CC-PVTZ
  Basis Set:
  @DF-RHF Final Energy:  -344.99791152205654
    Total Energy =                       -344.9979115220562562
    Molecular point group: c1
  Basis Set: CC-PVTZ
  Basis Set:
  Basis Set: CC-PVTZ
  Basis Set:
  @DF-RHF Final Energy:  -345.02393879523083
    Total Energy =                       -345.0239387952310608
  Basis Set: CC-PVTZ
  Basis Set:
  Basis Set: CC-PVTZ
  Basis Set:
  @DF-RHF Final Energy:  -345.02923566629607
    Total Energy =                       -345.0292356662958468
  Basis Set: CC-PVTZ
  Basis Set:
  Basis Set: CC-PVTZ
  Basis Set:
  @DF-RHF Final Energy:  -345.02519744336820
    Total Energy =                       -345.0251974433685973
  Basis Set: CC-PVTZ
  Basis Set:
  @DF-RHF Final Energy:  -345.03181786020303
    Total Energy =                       -345.0318178602032617
  @DF-RHF Final Energy:  -345.03206583538571
    Total Energy =                       -345.0320658353859358
  @DF-RHF Final Energy:  -345.03210557637982
    Total Energy =                       -345.0321055763798768
  Basis Set: CC-PVTZ
  Basis Set:
  @DF-RHF Final Energy:  -345.03212310503335
    Total Energy =                       -345.0321231050332358
  Basis Set: CC-PVTZ
  Basis Set:
  Basis Set: CC-PVTZ
  Basis Set:
  @DF-RHF Final Energy:  -345.03212543560284
    Total Energy =                       -345.0321254356026088
  Basis Set: CC-PVTZ
  Basis Set:
  Basis Set: CC-PVTZ
  Basis Set:
  @DF-RHF Final Energy:  -345.03212663572918
    Total Energy =                       -345.0321266357292416
  Basis Set: CC-PVTZ
  Basis Set:
  Charge       = 0
  Multiplicity = 1
  Basis Set: CC-PVTZ
  Basis Set:

    Orbital Energies (a.u.)
    -----------------------

    Doubly Occupied:

       1A    -20.587553     2A    -20.526996     3A    -11.366734
       4A    -11.295341     5A    -11.227525     6A    -11.217865
       7A    -11.210969     8A     -1.461070     9A     -1.363212
      10A     -1.080395    11A     -1.002463    12A     -0.946907
      13A     -0.867613    14A     -0.738182    15A     -0.690984
      16A     -0.676928    17A     -0.660487    18A     -0.616972
      19A     -0.584259    20A     -0.580060    21A     -0.565924
      22A     -0.549814    23A     -0.533185    24A     -0.517442
      25A     -0.508983    26A     -0.482354    27A     -0.441558
      28A     -0.430997

  @DF-RHF Final Energy:  -345.03212735474830

   => Energetics <=

    Nuclear Repulsion Energy =            324.5099838607637253
    One-Electron Energy =               -1113.6186827974595417
    Two-Electron Energy =                 444.0765715819474053
    DFT Exchange-Correlation Energy =       0.0000000000000000
    Empirical Dispersion Energy =           0.0000000000000000
    PCM Polarization Energy =               0.0000000000000000
    EFP Energy =                            0.0000000000000000
    Total Energy =                       -345.0321273547484680
    Molecular point group: c1
  Basis Set: CC-PVTZ
  Basis Set:

  -Total Gradient:
     Atom            X                  Y                   Z
    ------   -----------------  -----------------  -----------------
       1       -0.000022890513    -0.000050702038     0.000008464792
       2       -0.000218328860    -0.001724355929    -0.002365692423
       3        0.000010528260    -0.000024541508    -0.000044275257
       4        0.000070552290     0.002808361044     0.003332473520
       5        0.000006966946    -0.000000330328     0.000017327256
       6        0.000003688972     0.000010995436    -0.000002725804
       7        0.000004077192     0.000019949450     0.000002945451
       8        0.001283319918    -0.001587350643     0.001727723383
       9        0.000015228232    -0.000010007682     0.000017181548
      10       -0.000010912089     0.000041031408     0.000009227513
      11       -0.001179995699     0.000525091644    -0.002684971726
      12       -0.000000845786     0.000004555248     0.000001816511
      13       -0.000007445114     0.000002102330     0.000003758772
      14       -0.000004423650     0.000003137410     0.000000020356
      15        0.000006866266    -0.000004975937     0.000009585706
      16       -0.000000126208     0.000013679368    -0.000003540609
      17        0.000043739841    -0.000026639270    -0.000029318991

  **** Optimization is complete! (in 11 steps) ****
    Final optimized geometry and variables:
    Molecular point group: c1

    Geometry (in Angstrom), charge = 0, multiplicity = 1:

    O           -1.375417875419     0.846283433080    -0.520529852844
    C           -1.146813798362    -0.172820829448     0.034997852629
    C           -2.212931670501    -1.096903646509     0.560885543653
    O            0.051206533845    -0.656035498096     0.300800777328
    H           -2.131096169862    -2.059559631303     0.072562595524
    H           -3.184738287521    -0.668739830659     0.375928273237
    H           -2.068890250252    -1.254076524857     1.621798567565
    C            1.321385488590    -0.158443180666    -0.155792333725
    C            2.073826316737     0.341121870806     1.062995472105
    C            1.297287540420     0.859599300892    -1.286078678877
    H            1.799247626925    -1.048319908319    -0.543533482206
    H            2.103392263338    -0.419797700813     1.831928040690
    H            3.091373505669     0.599065812947     0.794500680085
    H            1.593570361066     1.223773447537     1.469052700617
    H            2.322503854929     0.987698605808    -1.617086222105
    H            0.713346981831     0.512689176662    -2.126171396566
    H            0.908612971570     1.816060096002    -0.975595236786

  Mulliken Charges: (a.u.)
   Center  Symbol    Alpha    Beta     Spin     Total
       1     O     4.19814  4.19814  0.00000 -0.39628
       2     C     2.80670  2.80670  0.00000  0.38661
       3     C     3.13668  3.13668  0.00000 -0.27336
       4     O     4.16404  4.16404  0.00000 -0.32808
       5     H     0.44738  0.44738  0.00000  0.10524
       6     H     0.43937  0.43937  0.00000  0.12125
       7     H     0.44599  0.44599  0.00000  0.10803
       8     C     2.93916  2.93916  0.00000  0.12169
       9     C     3.14339  3.14339  0.00000 -0.28677
      10     C     3.15429  3.15429  0.00000 -0.30858
      11     H     0.44405  0.44405  0.00000  0.11190
      12     H     0.44593  0.44593  0.00000  0.10814
      13     H     0.45277  0.45277  0.00000  0.09446
      14     H     0.44983  0.44983  0.00000  0.10034
      15     H     0.45193  0.45193  0.00000  0.09614
      16     H     0.44202  0.44202  0.00000  0.11596
      17     H     0.43833  0.43833  0.00000  0.12333

   Total alpha = 28.00000, Total beta = 28.00000, Total charge = -0.00000
