                              Psi4 1.0.54 Driver

  ==> Input File <==

--------------------------------------------------------------------------
set {
	reference rhf
	basis cc-pvtz
}

set_num_threads( 4 )
memory 2 gb

molecule MOL {
0 1

O	 -3.681723	 -0.451741	 0.176025
C	 -2.664672	 0.129869	 0.003507
C	 -2.580146	 1.614612	 -0.226006
O	 -1.481217	 -0.452708	 0.001092
H	 -3.027822	 2.119525	 0.619410
H	 -1.562027	 1.945043	 -0.355974
H	 -3.163626	 1.860712	 -1.102967
C	 -0.332055	 0.384012	 -0.000250
C	 0.892252	 -0.506059	 -0.000295
H	 -0.360822	 1.020205	 -0.874146
H	 -0.359817	 1.021310	 0.872861
C	 2.188199	 0.299473	 -0.001416
H	 0.857046	 -1.152781	 -0.871031
H	 0.857910	 -1.151798	 0.871202
C	 3.437151	 -0.577593	 -0.000991
H	 2.209565	 0.950707	 -0.871712
H	 2.210062	 0.952234	 0.867721
C	 4.732399	 0.226982	 -0.000914
H	 3.417321	 -1.229122	 -0.869998
H	 3.416993	 -1.228707	 0.868337
H	 4.797903	 0.863451	 -0.876963
H	 5.598517	 -0.424436	 -0.000420
H	 4.797415	 0.864118	 0.874691

	symmetry c1
}
set optking {
	frozen_dihedral = ("
		1 2 4 8
	")
}

ee,wfn = optimize('scf', return_wfn=True)
oeprop( wfn, 'DIPOLE', 'QUADRUPOLE', 'MULLIKEN_CHARGES')
f=open( 'psi4out.xyz', 'w' )
f.write( "23  " )
f.write( str(ee) + "\n" )
f.write( MOL.save_string_xyz() )
f.close()
--------------------------------------------------------------------------

    Molecular point group: c1
  Charge       = 0
  Multiplicity = 1
  Basis Set: CC-PVTZ
  Basis Set:
  @DF-RHF Final Energy:  -423.10327706395492
    Total Energy =                       -423.1032770639546925
    Molecular point group: c1
  Basis Set: CC-PVTZ
  Basis Set:
  Basis Set: CC-PVTZ
  Basis Set:
  @DF-RHF Final Energy:  -423.04774470893909
    Total Energy =                       -423.0477447089392626
  Basis Set: CC-PVTZ
  Basis Set:
  Basis Set: CC-PVTZ
  Basis Set:
  @DF-RHF Final Energy:  -423.11035444996145
    Total Energy =                       -423.1103544499616191
  Basis Set: CC-PVTZ
  Basis Set:
  Basis Set: CC-PVTZ
  Basis Set:
  @DF-RHF Final Energy:  -423.11749885266107
    Total Energy =                       -423.1174988526609013
  Basis Set: CC-PVTZ
  Basis Set:
  @DF-RHF Final Energy:  -423.11929438307953
    Total Energy =                       -423.1192943830790227
  @DF-RHF Final Energy:  -423.07027778407360
    Total Energy =                       -423.0702777840733688
  @DF-RHF Final Energy:  -423.11719061020051
    Total Energy =                       -423.1171906102002822
  @DF-RHF Final Energy:  -423.11950989355444
    Total Energy =                       -423.1195098935548913
  @DF-RHF Final Energy:  -423.11955163382038
    Total Energy =                       -423.1195516338202651
  @DF-RHF Final Energy:  -423.11981795152633
    Total Energy =                       -423.1198179515265565
  @DF-RHF Final Energy:  -423.11991342258915
    Total Energy =                       -423.1199134225892067
  @DF-RHF Final Energy:  -423.11692747750811
    Total Energy =                       -423.1169274775077156
  @DF-RHF Final Energy:  -423.12060575336596
    Total Energy =                       -423.1206057533655667
  @DF-RHF Final Energy:  -423.02058261128639
    Total Energy =                       -423.0205826112858176
  @DF-RHF Final Energy:  -423.11320841785277
    Total Energy =                       -423.1132084178523201
  @DF-RHF Final Energy:  -423.12074047717510
    Total Energy =                       -423.1207404771753318
  @DF-RHF Final Energy:  -423.11853374792270
    Total Energy =                       -423.1185337479231521
  @DF-RHF Final Energy:  -423.12166694513030
    Total Energy =                       -423.1216669451301868
  @DF-RHF Final Energy:  -423.12149087443760
    Total Energy =                       -423.1214908744377681
  @DF-RHF Final Energy:  -423.12187469762489
    Total Energy =                       -423.1218746976248894
  Basis Set: CC-PVTZ
  Basis Set:
  @DF-RHF Final Energy:  -423.12195787325180
    Total Energy =                       -423.1219578732514037
  Basis Set: CC-PVTZ
  Basis Set:
  Basis Set: CC-PVTZ
  Basis Set:
  @DF-RHF Final Energy:  -423.12202810950396
    Total Energy =                       -423.1220281095041855
  Basis Set: CC-PVTZ
  Basis Set:
  Basis Set: CC-PVTZ
  Basis Set:
  @DF-RHF Final Energy:  -423.12203968001864
    Total Energy =                       -423.1220396800185881
  Basis Set: CC-PVTZ
  Basis Set:
  Charge       = 0
  Multiplicity = 1
  Basis Set: CC-PVTZ
  Basis Set:

    Orbital Energies (a.u.)
    -----------------------

    Doubly Occupied:

       1A    -20.592262     2A    -20.526059     3A    -11.367488
       4A    -11.294160     5A    -11.239797     6A    -11.227584
       7A    -11.226961     8A    -11.223222     9A    -11.214424
      10A     -1.464665    11A     -1.366090    12A     -1.099200
      13A     -1.037705    14A     -1.016191    15A     -0.944725
      16A     -0.849301    17A     -0.808176    18A     -0.780193
      19A     -0.701914    20A     -0.697996    21A     -0.662829
      22A     -0.651864    23A     -0.610784    24A     -0.597082
      25A     -0.582968    26A     -0.573852    27A     -0.569868
      28A     -0.541770    29A     -0.533645    30A     -0.507026
      31A     -0.500542    32A     -0.482864    33A     -0.476175
      34A     -0.474733    35A     -0.446472    36A     -0.432514

  @DF-RHF Final Energy:  -423.12204025658565

   => Energetics <=

    Nuclear Repulsion Energy =            450.4467038873701199
    One-Electron Energy =               -1468.4912875229533711
    Two-Electron Energy =                 594.9225433789979434
    DFT Exchange-Correlation Energy =       0.0000000000000000
    Empirical Dispersion Energy =           0.0000000000000000
    PCM Polarization Energy =               0.0000000000000000
    EFP Energy =                            0.0000000000000000
    Total Energy =                       -423.1220402565852510
    Molecular point group: c1
  Basis Set: CC-PVTZ
  Basis Set:

  -Total Gradient:
     Atom            X                  Y                   Z
    ------   -----------------  -----------------  -----------------
       1        0.000087149654     0.000140757594     0.001031139538
       2       -0.000157541589    -0.000168289275    -0.000943324970
       3        0.000006787409    -0.000012747579     0.000234332674
       4       -0.000012512636     0.000022584554    -0.001003161087
       5       -0.000024766781    -0.000044540727    -0.000071440371
       6        0.000030049953     0.000027203436    -0.000116732762
       7        0.000025397566    -0.000011460233    -0.000028502228
       8        0.000035651199     0.000053665399     0.000910061197
       9        0.000001295660    -0.000017397789    -0.000004615395
      10        0.000021578201    -0.000006356435     0.000003415908
      11       -0.000007839032     0.000008972356     0.000001896299
      12       -0.000008844127     0.000011900069    -0.000004338441
      13        0.000009524310     0.000003584548     0.000002628356
      14       -0.000004701432     0.000007022516    -0.000007064507
      15        0.000002187429    -0.000014268659    -0.000004785093
      16        0.000002577059    -0.000007163275     0.000001553634
      17       -0.000003584373    -0.000007181253    -0.000007660387
      18        0.000002018636     0.000006187691     0.000005752684
      19        0.000001560724     0.000009628395     0.000003793617
      20       -0.000001528146     0.000004757453    -0.000006011162
      21       -0.000000299084    -0.000007158937     0.000006551387
      22       -0.000004987346     0.000005103219     0.000002227951
      23        0.000000826756    -0.000004803065    -0.000005716845

  **** Optimization is complete! (in 24 steps) ****
    Final optimized geometry and variables:
    Molecular point group: c1

    Geometry (in Angstrom), charge = 0, multiplicity = 1:

    O           -3.575649458917    -0.720549885032     0.615487106680
    C           -2.707485074172     0.006781295726     0.286752056587
    C           -2.948277661475     1.457367844703    -0.052202113343
    O           -1.467114277861    -0.460580557478     0.192076552877
    H           -2.376983610889     2.110984624318     0.593859104469
    H           -2.656953297602     1.662530586859    -1.074878696636
    H           -3.999021702633     1.659201428971     0.069994849104
    C           -0.337175544622     0.366497820023     0.007898024124
    C            0.884653081074    -0.527387496652    -0.045281072486
    H           -0.429603107901     0.931610095729    -0.911839241887
    H           -0.255197111775     1.067080426868     0.830996623324
    C            2.174394681529     0.264602117965    -0.237504388889
    H            0.757815804606    -1.238417307795    -0.854438700768
    H            0.931691804217    -1.103172445855     0.872400459757
    C            3.415470447026    -0.622031949411    -0.291416762375
    H            2.111995133983     0.845859535846    -1.154629331926
    H            2.284789338085     0.982641321708     0.571818299567
    C            4.705806031416     0.167540226223    -0.482093352689
    H            3.307874529686    -1.338874115781    -1.100302949016
    H            3.479600903398    -1.203100614624     0.623955731312
    H            4.686064851125     0.733058744597    -1.407762895934
    H            5.565907177380    -0.490752632426    -0.515788723693
    H            4.859023283327     0.870043431794     0.330338216503

  Mulliken Charges: (a.u.)
   Center  Symbol    Alpha    Beta     Spin     Total
       1     O     4.18229  4.18229  0.00000 -0.36458
       2     C     2.82238  2.82238  0.00000  0.35525
       3     C     3.16813  3.16813  0.00000 -0.33626
       4     O     4.12539  4.12539  0.00000 -0.25079
       5     H     0.44743  0.44743  0.00000  0.10514
       6     H     0.44544  0.44544  0.00000  0.10913
       7     H     0.42525  0.42525  0.00000  0.14950
       8     C     2.98457  2.98457  0.00000  0.03087
       9     C     3.08058  3.08058  0.00000 -0.16115
      10     H     0.46205  0.46205  0.00000  0.07590
      11     H     0.46069  0.46069  0.00000  0.07863
      12     C     3.09933  3.09933  0.00000 -0.19866
      13     H     0.44660  0.44660  0.00000  0.10679
      14     H     0.44547  0.44547  0.00000  0.10906
      15     C     3.08591  3.08591  0.00000 -0.17183
      16     H     0.45447  0.45447  0.00000  0.09105
      17     H     0.45413  0.45413  0.00000  0.09174
      18     C     3.14942  3.14942  0.00000 -0.29885
      19     H     0.45212  0.45212  0.00000  0.09576
      20     H     0.45185  0.45185  0.00000  0.09629
      21     H     0.45498  0.45498  0.00000  0.09004
      22     H     0.44667  0.44667  0.00000  0.10665
      23     H     0.45484  0.45484  0.00000  0.09032

   Total alpha = 36.00000, Total beta = 36.00000, Total charge = -0.00000

*** Psi4 exiting successfully. Buy a developer a beer!
