  ==> Input File <==

--------------------------------------------------------------------------
set {
	reference rhf
	basis cc-pvtz
}

set_num_threads( 4 )
memory 2 gb

molecule MOL {
0 1

H	 -0.000105	 1.988529	 0.748933
O	 -0.000098	 1.879786	 -0.188206
C	 -0.000014	 0.545691	 -0.532416
C	 -1.286000	 -0.125171	 -0.046657
C	 1.286016	 -0.125031	 -0.046584
H	 0.000021	 0.481103	 -1.610604
F	 -1.899333	 0.671383	 0.793690
F	 -2.111970	 -0.387150	 -1.027908
F	 -1.029733	 -1.250682	 0.584949
F	 2.317750	 0.468717	 -0.594166
F	 1.336617	 -1.393765	 -0.365123
F	 1.414467	 -0.024806	 1.259108

	symmetry c1
}
set optking {
	frozen_dihedral = ("
		7 4 3 6
	")
}

ee = optimize('scf')
oeprop('DIPOLE', 'QUADRUPOLE', 'MULLIKEN_CHARGES')
f=open( 'psi4out.xyz', 'w' )
f.write( "12  " )
f.write( str(ee) + "\n" )
f.write( MOL.save_string_xyz() )
f.close()
--------------------------------------------------------------------------

    Molecular point group: c1
  Charge       = 0
  Multiplicity = 1
  Basis Set: CC-PVTZ
  Basis Set:
  @DF-RHF Final Energy:  -786.58248692442248
    Total Energy =                       -786.5824869244224828
    Molecular point group: c1
  Basis Set: CC-PVTZ
  Basis Set:
  Basis Set: CC-PVTZ
  Basis Set:
  @DF-RHF Final Energy:  -786.58333037566308
    Total Energy =                       -786.5833303756630812
  Basis Set: CC-PVTZ
  Basis Set:
  Basis Set: CC-PVTZ
  Basis Set:
  @DF-RHF Final Energy:  -786.58418854326135
    Total Energy =                       -786.5841885432608933
  Basis Set: CC-PVTZ
  Basis Set:
  Basis Set: CC-PVTZ
  Basis Set:
  @DF-RHF Final Energy:  -786.58427791491670
    Total Energy =                       -786.5842779149170383
  Basis Set: CC-PVTZ
  Basis Set:
  Basis Set: CC-PVTZ
  Basis Set:
  @DF-RHF Final Energy:  -786.58429348853031
    Total Energy =                       -786.5842934885304203
  Basis Set: CC-PVTZ
  Basis Set:
  Charge       = 0
  Multiplicity = 1
  Basis Set: CC-PVTZ
  Basis Set:

    Orbital Energies (a.u.)
    -----------------------

    Doubly Occupied:

       1A    -26.359826     2A    -26.358140     3A    -26.357021
       4A    -26.355476     5A    -26.354835     6A    -26.352047
       7A    -20.608057     8A    -11.523082     9A    -11.517330
      10A    -11.351772    11A     -1.772644    12A     -1.765673
      13A     -1.667435    14A     -1.663799    15A     -1.663333
      16A     -1.659416    17A     -1.438073    18A     -1.100169
      19A     -1.001197    20A     -0.944135    21A     -0.872887
      22A     -0.866340    23A     -0.858335    24A     -0.853448
      25A     -0.841774    26A     -0.820864    27A     -0.740671
      28A     -0.737783    29A     -0.734292    30A     -0.730456
      31A     -0.694346    32A     -0.692586    33A     -0.688008
      34A     -0.683554    35A     -0.675811    36A     -0.668654
      37A     -0.663302    38A     -0.653675    39A     -0.622918
      40A     -0.553130    41A     -0.508800

  @DF-RHF Final Energy:  -786.58429529821069

   => Energetics <=

    Nuclear Repulsion Energy =            669.5979487326999333
    One-Electron Energy =               -2426.4142963328167752
    Two-Electron Energy =                 970.2320523019059237
    DFT Exchange-Correlation Energy =       0.0000000000000000
    Empirical Dispersion Energy =           0.0000000000000000
    PCM Polarization Energy =               0.0000000000000000
    EFP Energy =                            0.0000000000000000
    Total Energy =                       -786.5842952982109182
    Molecular point group: c1
  Basis Set: CC-PVTZ
  Basis Set:

  -Total Gradient:
     Atom            X                  Y                   Z
    ------   -----------------  -----------------  -----------------
       1        0.000011136566     0.000024475803    -0.000005482291
       2       -0.000007874419    -0.000043587232     0.000037911740
       3        0.001511927832    -0.003219919537    -0.000410125580
       4        0.001600591469    -0.001007350797     0.003059496743
       5       -0.000083422901     0.000015125318    -0.000186977392
       6       -0.001637665887     0.002958992702    -0.000210805719
       7       -0.001412740049     0.001141888277    -0.002191439152
       8       -0.000119253353    -0.000003168827    -0.000227448937
       9        0.000043732289     0.000123842221    -0.000039828853
      10        0.000055329777    -0.000026719243     0.000003102565
      11        0.000020195377     0.000099484608     0.000102569894
      12        0.000018043301    -0.000063063291     0.000069026981

  **** Optimization is complete! (in 6 steps) ****
    Final optimized geometry and variables:
    Molecular point group: c1

    Geometry (in Angstrom), charge = 0, multiplicity = 1:

    H           -0.065245914468     2.052022202260     0.673054706556
    O            0.033930318718     1.894558221451    -0.250885951958
    C            0.007247440385     0.548499407230    -0.541304429626
    C           -1.289312105095    -0.124677882450    -0.018804268350
    C            1.289550078434    -0.124801240375    -0.057075859873
    H           -0.012556250265     0.471499598617    -1.616938685701
    F           -1.913342847923     0.659464051627     0.828923871597
    F           -2.108917980397    -0.348009145063    -1.021296856184
    F           -1.077482909047    -1.269246307776     0.580635338457
    F            2.328330690320     0.501328094335    -0.550355893155
    F            1.357513157270    -1.375349269986    -0.441995566302
    F            1.384732883480    -0.085970113455     1.255216667766

  Mulliken Charges: (a.u.)
   Center  Symbol    Alpha    Beta     Spin     Total
       1     H     0.38144  0.38144  0.00000  0.23711
       2     O     4.18536  4.18536  0.00000 -0.37073
       3     C     3.02277  3.02277  0.00000 -0.04554
       4     C     2.67343  2.67343  0.00000  0.65313
       5     C     2.67847  2.67847  0.00000  0.64307
       6     H     0.42726  0.42726  0.00000  0.14549
       7     F     4.60723  4.60723  0.00000 -0.21446
       8     F     4.60538  4.60538  0.00000 -0.21077
       9     F     4.60039  4.60039  0.00000 -0.20079
      10     F     4.60099  4.60099  0.00000 -0.20199
      11     F     4.60524  4.60524  0.00000 -0.21049
      12     F     4.61202  4.61202  0.00000 -0.22405

   Total alpha = 41.00000, Total beta = 41.00000, Total charge =  0.00000
