                              Psi4 1.0.54 Driver

  ==> Input File <==

--------------------------------------------------------------------------
set {
	reference rhf
	basis cc-pvtz
}

set_num_threads( 4 )
memory 2 gb

molecule MOL {
0 1

H	 3.808185	 4.737920	 1.657259
C	 3.299186	 3.853265	 1.324871
C	 1.973259	 3.924651	 0.936976
C	 3.970662	 2.645967	 1.285705
H	 1.452707	 4.862087	 0.967640
C	 1.319868	 2.787441	 0.509976
H	 4.998916	 2.591663	 1.586730
C	 3.317787	 1.506384	 0.858385
H	 0.293546	 2.824728	 0.206114
C	 1.989504	 1.574264	 0.469069
H	 3.834902	 0.569833	 0.826857
C	 1.238974	 0.374429	 0.000004
O	 1.968286	 -0.725612	 -0.000027
O	 0.103528	 0.398063	 -0.339676
C	 3.373556	 -0.568203	 0.000011
H	 3.695416	 -0.031588	 -0.879663
H	 3.782700	 -1.565294	 -0.000152
H	 3.695405	 -0.031851	 0.879862

	symmetry c1
}
set optking {
	frozen_dihedral = ("
		10 12 13 15
	")
}

ee,wfn = optimize('scf', return_wfn=True)
oeprop( wfn, 'DIPOLE', 'QUADRUPOLE', 'MULLIKEN_CHARGES')
f=open( 'psi4out.xyz', 'w' )
f.write( "18  " )
f.write( str(ee) + "\n" )
f.write( MOL.save_string_xyz() )
f.close()
--------------------------------------------------------------------------

    Molecular point group: c1
  Charge       = 0
  Multiplicity = 1
  Basis Set: CC-PVTZ
  Basis Set:
  @DF-RHF Final Energy:  -457.22695104631759
    Total Energy =                       -457.2269510463173674
    Molecular point group: c1
  Basis Set: CC-PVTZ
  Basis Set:
  Basis Set: CC-PVTZ
  Basis Set:
  @DF-RHF Final Energy:  -457.35700906795654
    Total Energy =                       -457.3570090679569375
  Basis Set: CC-PVTZ
  Basis Set:
  Basis Set: CC-PVTZ
  Basis Set:
  @DF-RHF Final Energy:  -457.41084159640758
    Total Energy =                       -457.4108415964077494
  Basis Set: CC-PVTZ
  Basis Set:
  Basis Set: CC-PVTZ
  Basis Set:
  @DF-RHF Final Energy:  -457.43148649327759
    Total Energy =                       -457.4314864932774753
  Basis Set: CC-PVTZ
  Basis Set:
  @DF-RHF Final Energy:  -457.46047493432167
    Total Energy =                       -457.4604749343216099
  @DF-RHF Final Energy:  -457.47241831736835
    Total Energy =                       -457.4724183173684651
  @DF-RHF Final Energy:  -456.15721804367939
    Total Energy =                       -456.1572180436795634
  @DF-RHF Final Energy:  -456.62738660145527
    Total Energy =                       -456.6273866014551004
  @DF-RHF Final Energy:  -457.10288053726680
    Total Energy =                       -457.1028805372664010
  @DF-RHF Final Energy:  -457.37089817299858
    Total Energy =                       -457.3708981729985226
  @DF-RHF Final Energy:  -456.18751441815698
    Total Energy =                       -456.1875144181573205
  @DF-RHF Final Energy:  -456.59275589957502
    Total Energy =                       -456.5927558995750815
  @DF-RHF Final Energy:  -456.99614728884558
    Total Energy =                       -456.9961472888453500
  @DF-RHF Final Energy:  -457.24430424115258
    Total Energy =                       -457.2443042411521219
  @DF-RHF Final Energy:  -457.36747008458616
    Total Energy =                       -457.3674700845858752
  @DF-RHF Final Energy:  -457.03873902703168
    Total Energy =                       -457.0387390270319656
  @DF-RHF Final Energy:  -457.22890741557393
    Total Energy =                       -457.2289074155742128
  @DF-RHF Final Energy:  -457.31423393746877
    Total Energy =                       -457.3142339374691119
  @DF-RHF Final Energy:  -457.38012919623043
    Total Energy =                       -457.3801291962311097
  @DF-RHF Final Energy:  -457.10697171901444
    Total Energy =                       -457.1069717190139272
  @DF-RHF Final Energy:  -457.48131112620916
    Total Energy =                       -457.4813111262094480
  @DF-RHF Final Energy:  -457.48300378581365
    Total Energy =                       -457.4830037858141623
  @DF-RHF Final Energy:  -457.48529620875644
    Total Energy =                       -457.4852962087568358
  @DF-RHF Final Energy:  -457.48658306376228
    Total Energy =                       -457.4865830637622821
  @DF-RHF Final Energy:  -457.48741081511298
    Total Energy =                       -457.4874108151134351
  @DF-RHF Final Energy:  -457.48111421048674
    Total Energy =                       -457.4811142104870214
  @DF-RHF Final Energy:  -457.48773684198324
    Total Energy =                       -457.4877368419831782
  @DF-RHF Final Energy:  -457.48853177109970
    Total Energy =                       -457.4885317710997015
  @DF-RHF Final Energy:  -457.48781318364502
    Total Energy =                       -457.4878131836452440
  @DF-RHF Final Energy:  -457.48851918377568
    Total Energy =                       -457.4885191837754519
  @DF-RHF Final Energy:  -457.48875771443664
    Total Energy =                       -457.4887577144361330
  @DF-RHF Final Energy:  -457.48811492771756
    Total Energy =                       -457.4881149277175609
  @DF-RHF Final Energy:  -457.48877975870846
    Total Energy =                       -457.4887797587084606
  @DF-RHF Final Energy:  -457.48880159589299
    Total Energy =                       -457.4888015958930509
  @DF-RHF Final Energy:  -457.48879881320067
    Total Energy =                       -457.4887988132007877
  @DF-RHF Final Energy:  -457.48882369393533
    Total Energy =                       -457.4888236939351600
  Basis Set: CC-PVTZ
  Basis Set:
  @DF-RHF Final Energy:  -457.48882246065642
    Total Energy =                       -457.4888224606572749
  Basis Set: CC-PVTZ
  Basis Set:
  Basis Set: CC-PVTZ
  Basis Set:
  @DF-RHF Final Energy:  -457.48882564565093
    Total Energy =                       -457.4888256456506497
  Basis Set: CC-PVTZ
  Basis Set:
  Basis Set: CC-PVTZ
  Basis Set:
  @DF-RHF Final Energy:  -457.48882718125168
    Total Energy =                       -457.4888271812520770
  Basis Set: CC-PVTZ
  Basis Set:
  Charge       = 0
  Multiplicity = 1
  Basis Set: CC-PVTZ
  Basis Set:

    Orbital Energies (a.u.)
    -----------------------

    Doubly Occupied:

       1A    -20.597156     2A    -20.532101     3A    -11.373982
       4A    -11.291803     5A    -11.255569     6A    -11.251712
       7A    -11.247672     8A    -11.247277     9A    -11.245147
      10A    -11.243313    11A     -1.468919    12A     -1.370415
      13A     -1.178193    14A     -1.051118    15A     -1.037077
      16A     -0.987966    17A     -0.879171    18A     -0.849309
      19A     -0.788297    20A     -0.741495    21A     -0.693300
      22A     -0.681498    23A     -0.678019    24A     -0.643458
      25A     -0.633838    26A     -0.607500    27A     -0.600619
      28A     -0.568594    29A     -0.542043    30A     -0.522349
      31A     -0.516817    32A     -0.506062    33A     -0.455269
      34A     -0.444202    35A     -0.356184    36A     -0.353595

  @DF-RHF Final Energy:  -457.48882718531490

   => Energetics <=

    Nuclear Repulsion Energy =            499.1278423547303191
    One-Electron Energy =               -1612.3512571820278936
    Two-Electron Energy =                 655.7345876419826709
    DFT Exchange-Correlation Energy =       0.0000000000000000
    Empirical Dispersion Energy =           0.0000000000000000
    PCM Polarization Energy =               0.0000000000000000
    EFP Energy =                            0.0000000000000000
    Total Energy =                       -457.4888271853149035
    Molecular point group: c1
  Basis Set: CC-PVTZ
  Basis Set:

  -Total Gradient:
     Atom            X                  Y                   Z
    ------   -----------------  -----------------  -----------------
       1        0.000005723799     0.000093599147    -0.000022721002
       2       -0.000022934406    -0.000118421699     0.000022110212
       3        0.000059597325     0.000011009593    -0.000080792760
       4        0.000002696003     0.000122242587    -0.000079788655
       5       -0.000022387458     0.000027157755     0.000040180044
       6       -0.000103601915    -0.000061004302     0.000067341544
       7        0.000030687365    -0.000040989247    -0.000021667648
       8       -0.000012051535    -0.000044745238     0.000151825302
       9       -0.000003191899    -0.000020644089    -0.000033469096
      10       -0.000761377107     0.000237004398     0.000397838733
      11       -0.000007697693     0.000009017200     0.000003455256
      12        0.001887419828    -0.000589877700    -0.000457120159
      13       -0.001869011506     0.000928935470     0.000007664672
      14       -0.000075205182    -0.000012394205    -0.000106531252
      15        0.000919352758    -0.000540818348     0.000041340128
      16       -0.000042852296    -0.000012867551     0.000053442649
      17       -0.000004874759    -0.000008973806    -0.000017148947
      18        0.000019708678     0.000021770037     0.000034040986

  **** Optimization is complete! (in 26 steps) ****
    Final optimized geometry and variables:
    Molecular point group: c1

    Geometry (in Angstrom), charge = 0, multiplicity = 1:

    H           -0.490754295276    -3.117233332014     2.238715908254
    C           -0.373982366327    -2.289821337302     1.565621179251
    C           -1.437513680291    -1.877900825744     0.784190762293
    C            0.843011356371    -1.642028848419     1.472225472326
    H           -2.381002789352    -2.384450076177     0.848565197821
    C           -1.283029964430    -0.822580461414    -0.092129531081
    H            1.676057322449    -1.971942452289     2.062362845210
    C            0.990484879935    -0.568903827971     0.615265731941
    H           -2.092547496410    -0.517452324516    -0.724973699146
    C           -0.073234745487    -0.152047099531    -0.167033882058
    H            1.941332387532    -0.078758752144     0.540880935932
    C            0.060421307781     0.949295753914    -1.178433320040
    O            0.634362922728     2.092958175702    -0.822714951532
    O           -0.330802704357     0.818482001379    -2.283263879285
    C            0.776767045854     2.529480837931     0.510283166692
    H           -0.022161160079     2.168698047467     1.140842481040
    H            0.742634482516     3.606895457126     0.474815743766
    H            1.727321353238     2.220651938404     0.920083982924

  Mulliken Charges: (a.u.)
   Center  Symbol    Alpha    Beta     Spin     Total
       1     H     0.41985  0.41985  0.00000  0.16030
       2     C     3.07517  3.07517  0.00000 -0.15033
       3     C     3.06710  3.06710  0.00000 -0.13420
       4     C     3.07335  3.07335  0.00000 -0.14671
       5     H     0.41979  0.41979  0.00000  0.16042
       6     C     3.08400  3.08400  0.00000 -0.16800
       7     H     0.42044  0.42044  0.00000  0.15911
       8     C     3.08232  3.08232  0.00000 -0.16464
       9     H     0.41153  0.41153  0.00000  0.17694
      10     C     3.01218  3.01218  0.00000 -0.02436
      11     H     0.41799  0.41799  0.00000  0.16401
      12     C     2.81238  2.81238  0.00000  0.37523
      13     O     4.12925  4.12925  0.00000 -0.25850
      14     O     4.18318  4.18318  0.00000 -0.36637
      15     C     3.04896  3.04896  0.00000 -0.09792
      16     H     0.45149  0.45149  0.00000  0.09702
      17     H     0.43221  0.43221  0.00000  0.13557
      18     H     0.45879  0.45879  0.00000  0.08241

   Total alpha = 36.00000, Total beta = 36.00000, Total charge = -0.00000

*** Psi4 exiting successfully. Buy a developer a beer!
