  ==> Input File <==

--------------------------------------------------------------------------
set {
	reference rhf
	basis 6-31G*
}

set_num_threads( 4 )
memory 2 gb

molecule MOL {
0 1

H	 2.866480	 -0.465706	 0.876907
C	 2.405773	 -0.024801	 0.000000
N	 0.988830	 -0.304158	 0.000000
H	 2.866480	 -0.465706	 -0.876907
H	 2.629928	 1.045948	 0.000000
C	 0.534705	 -0.861365	 1.260658
C	 0.592334	 -1.153670	 -1.107740
H	 1.023532	 -1.816494	 1.478091
H	 0.783331	 -0.173442	 2.062651
C	 -0.970300	 -1.068994	 1.217762
H	 0.883158	 -0.679785	 -2.039996
H	 1.085361	 -2.130098	 -1.062892
C	 -0.914199	 -1.353547	 -1.087829
H	 -1.314182	 -1.566002	 2.115396
H	 -1.469635	 -0.104708	 1.141697
O	 -1.332699	 -1.883680	 0.138454
H	 -1.217616	 -2.055801	 -1.853202
H	 -1.410895	 -0.402649	 -1.272370

	symmetry c1
}
set optking {
	frozen_dihedral = ("
		6 3 2 5
	")
}

ee = optimize('scf')
oeprop('DIPOLE', 'QUADRUPOLE', 'MULLIKEN_CHARGES')
f=open( 'psi4out.xyz', 'w' )
f.write( "18  " )
f.write( str(ee) + "\n" )
f.write( MOL.save_string_xyz() )
f.close()
--------------------------------------------------------------------------

    Molecular point group: c1
  Charge       = 0
  Multiplicity = 1
  Basis Set: 6-31G*
  Basis Set:
  @DF-RHF Final Energy:  -325.02170630734207
    Total Energy =                       -325.0217063073425834
    Molecular point group: c1
  Basis Set: 6-31G*
  Basis Set:
  Basis Set: 6-31G*
  Basis Set:
  @DF-RHF Final Energy:  -325.02233447422100
    Total Energy =                       -325.0223344742212817
  Basis Set: 6-31G*
  Basis Set:
  Basis Set: 6-31G*
  Basis Set:
  @DF-RHF Final Energy:  -325.02248533402906
    Total Energy =                       -325.0224853340290565
  Basis Set: 6-31G*
  Basis Set:
  Charge       = 0
  Multiplicity = 1
  Basis Set: 6-31G*
  Basis Set:

    Orbital Energies (a.u.)
    -----------------------

    Doubly Occupied:

       1A    -20.553183     2A    -15.546178     3A    -11.265231
       4A    -11.265212     5A    -11.243849     6A    -11.243760
       7A    -11.240777     8A     -1.382572     9A     -1.226938
      10A     -1.037711    11A     -0.980013    12A     -0.881891
      13A     -0.869869    14A     -0.773987    15A     -0.682600
      16A     -0.643355    17A     -0.642589    18A     -0.630298
      19A     -0.626030    20A     -0.569880    21A     -0.558125
      22A     -0.547118    23A     -0.526889    24A     -0.500021
      25A     -0.483028    26A     -0.451467    27A     -0.406818
      28A     -0.347480

  @DF-RHF Final Energy:  -325.02248743224067

   => Energetics <=

    Nuclear Repulsion Energy =            340.9145055422653172
    One-Electron Energy =               -1117.6202423002334854
    Two-Electron Energy =                 451.6832493257277292
    DFT Exchange-Correlation Energy =       0.0000000000000000
    Empirical Dispersion Energy =           0.0000000000000000
    PCM Polarization Energy =               0.0000000000000000
    EFP Energy =                            0.0000000000000000
    Total Energy =                       -325.0224874322404958
    Molecular point group: c1
  Basis Set: 6-31G*
  Basis Set:

  -Total Gradient:
     Atom            X                  Y                   Z
    ------   -----------------  -----------------  -----------------
       1        0.000007715093    -0.000007327989    -0.000004490562
       2        0.000134248123    -0.000393799701     0.002071428595
       3       -0.000217033842     0.001740792289     0.000132102325
       4        0.000001696548     0.000010467026     0.000000783250
       5        0.000044886925    -0.000020525503    -0.001741382523
       6        0.000220217700    -0.001254765711    -0.000400028095
       7       -0.000103358871    -0.000034468284    -0.000028280901
       8        0.000003471741     0.000028747034    -0.000025239557
       9        0.000001921771    -0.000002730322    -0.000020639002
      10       -0.000011355268     0.000003594497     0.000035374994
      11       -0.000005638545    -0.000000502922     0.000022117019
      12       -0.000014584933     0.000038823576     0.000014405595
      13       -0.000000032974    -0.000061162287    -0.000069738868
      14       -0.000045994665    -0.000020929842     0.000009915812
      15        0.000005213865    -0.000017564387    -0.000007667536
      16        0.000020689789     0.000039466674     0.000004268236
      17       -0.000065121642    -0.000027536861    -0.000015043626
      18        0.000023059186    -0.000020577285     0.000022114845

  **** Optimization is complete! (in 4 steps) ****
    Final optimized geometry and variables:
    Molecular point group: c1

    Geometry (in Angstrom), charge = 0, multiplicity = 1:

    H            2.738557807882     0.545748870271     0.815275397586
    C            2.232503129410     0.949349692397    -0.057628588685
    N            0.812464292037     0.627540468404    -0.058831944314
    H            2.724986274906     0.534997768195    -0.931350221268
    H            2.387906333163     2.023816726266    -0.077318533732
    C            0.344780800586     0.079925621208     1.200916657580
    C            0.402275169386    -0.212847614704    -1.169253235848
    H            0.817147503004    -0.881968780121     1.423727707438
    H            0.598808994194     0.765833894083     2.002846344963
    C           -1.163181837197    -0.102569405579     1.155263165642
    H            0.695680142314     0.260467948795    -2.100471521735
    H            0.876872383105    -1.198448831250    -1.131664995721
    C           -1.107512230525    -0.385928424598    -1.150209374919
    H           -1.517512498808    -0.593929151823     2.052166283749
    H           -1.645558402953     0.870142714185     1.078146238171
    O           -1.537199800887    -0.910147853713     0.074675594679
    H           -1.423718834605    -1.080602375808    -1.917605594857
    H           -1.585691289623     0.574776290912    -1.332487167327

  Mulliken Charges: (a.u.)
   Center  Symbol    Alpha    Beta     Spin     Total
       1     H     0.42290  0.42290  0.00000  0.15419
       2     C     3.13989  3.13989  0.00000 -0.27979
       3     N     3.79225  3.79225  0.00000 -0.58449
       4     H     0.42077  0.42077  0.00000  0.15846
       5     H     0.41496  0.41496  0.00000  0.17008
       6     C     3.06836  3.06836  0.00000 -0.13673
       7     C     3.06815  3.06815  0.00000 -0.13629
       8     H     0.42849  0.42849  0.00000  0.14301
       9     H     0.41636  0.41636  0.00000  0.16729
      10     C     2.99744  2.99744  0.00000  0.00513
      11     H     0.41647  0.41647  0.00000  0.16706
      12     H     0.42863  0.42863  0.00000  0.14275
      13     C     2.99754  2.99754  0.00000  0.00492
      14     H     0.41365  0.41365  0.00000  0.17270
      15     H     0.42416  0.42416  0.00000  0.15169
      16     O     4.31217  4.31217  0.00000 -0.62434
      17     H     0.41364  0.41364  0.00000  0.17271
      18     H     0.42418  0.42418  0.00000  0.15164

   Total alpha = 28.00000, Total beta = 28.00000, Total charge = -0.00000
