  ==> Input File <==

--------------------------------------------------------------------------
set {
	reference rhf
	basis cc-pvtz
}

set_num_threads( 4 )
memory 2 gb

molecule MOL {
0 1

H	 -1.832334	 2.050573	 -1.080950
C	 -0.817585	 1.676796	 -1.120240
C	 -0.600949	 0.658697	 -0.000002
H	 -0.139655	 2.513521	 -1.018321
H	 -0.655787	 1.224914	 -2.089626
C	 0.763408	 0.112229	 -0.000006
H	 -0.774684	 1.109626	 0.968198
H	 -1.287909	 -0.171723	 -0.097072
N	 1.806008	 -0.317179	 0.000007

	symmetry c1
}
set optking {
	frozen_dihedral = ("
		7 3 6 9
	")
}

ee = optimize('scf')
oeprop('DIPOLE', 'QUADRUPOLE', 'MULLIKEN_CHARGES')
f=open( 'psi4out.xyz', 'w' )
f.write( "9  " )
f.write( str(ee) + "\n" )
f.write( MOL.save_string_xyz() )
f.close()
--------------------------------------------------------------------------

    Molecular point group: c1
  Charge       = 0
  Multiplicity = 1
  Basis Set: CC-PVTZ
  Basis Set:
  @DF-RHF Final Energy:  -171.02344606209829
    Total Energy =                       -171.0234460620982304
    Molecular point group: c1
  Basis Set: CC-PVTZ
  Basis Set:
  Basis Set: CC-PVTZ
  Basis Set:
  @DF-RHF Final Energy:  -170.62958168093414
    Total Energy =                       -170.6295816809341375
  Basis Set: CC-PVTZ
  Basis Set:
  Basis Set: CC-PVTZ
  Basis Set:
  @DF-RHF Final Energy:  -170.65222772835773
    Total Energy =                       -170.6522277283577296
  Basis Set: CC-PVTZ
  Basis Set:
  Basis Set: CC-PVTZ
  Basis Set:
  @DF-RHF Final Energy:  -170.71972535338352
    Total Energy =                       -170.7197253533835237
  Basis Set: CC-PVTZ
  Basis Set:
  @DF-RHF Final Energy:  -170.82360744822589
    Total Energy =                       -170.8236074482257720
  @DF-RHF Final Energy:  -170.94679792999105
    Total Energy =                       -170.9467979299908791
  @DF-RHF Final Energy:  -170.83258617516609
    Total Energy =                       -170.8325861751660000
  @DF-RHF Final Energy:  -170.87663807922593
    Total Energy =                       -170.8766380792259554
  @DF-RHF Final Energy:  -170.85366877241268
    Total Energy =                       -170.8536687724126750
  @DF-RHF Final Energy:  -170.77390866000374
    Total Energy =                       -170.7739086600037695
  @DF-RHF Final Energy:  -170.84783834404377
    Total Energy =                       -170.8478383440437938
  @DF-RHF Final Energy:  -170.89008078680371
    Total Energy =                       -170.8900807868037646
  @DF-RHF Final Energy:  -170.99410660135464
    Total Energy =                       -170.9941066013544742
  @DF-RHF Final Energy:  -170.99773509018496
    Total Energy =                       -170.9977350901850457
  @DF-RHF Final Energy:  -171.01949049675886
    Total Energy =                       -171.0194904967589196
  @DF-RHF Final Energy:  -171.02282392879624
    Total Energy =                       -171.0228239287963277
  @DF-RHF Final Energy:  -171.02260831115802
    Total Energy =                       -171.0226083111580522
  @DF-RHF Final Energy:  -170.73230918483171
    Total Energy =                       -170.7323091848317063
  @DF-RHF Final Energy:  -170.78078351767397
    Total Energy =                       -170.7807835176739957
  @DF-RHF Final Energy:  -170.91903847919122
    Total Energy =                       -170.9190384791912152
  @DF-RHF Final Energy:  -171.02337903021987
    Total Energy =                       -171.0233790302197860
  @DF-RHF Final Energy:  -170.77700195082124
    Total Energy =                       -170.7770019508213011
  @DF-RHF Final Energy:  -170.82220584330821
    Total Energy =                       -170.8222058433082395
  @DF-RHF Final Energy:  -170.91776738693090
    Total Energy =                       -170.9177673869307625
  @DF-RHF Final Energy:  -170.98597240231501
    Total Energy =                       -170.9859724023148431
  @DF-RHF Final Energy:  -171.00790764054307
    Total Energy =                       -171.0079076405430953
  @DF-RHF Final Energy:  -170.95956358365754
    Total Energy =                       -170.9595635836575411
  @DF-RHF Final Energy:  -170.97789770052054
    Total Energy =                       -170.9778977005206002
  @DF-RHF Final Energy:  -170.89882374974226
    Total Energy =                       -170.8988237497423199
  @DF-RHF Final Energy:  -170.79928379155257
    Total Energy =                       -170.7992837915525399
  @DF-RHF Final Energy:  -170.84368675468363
    Total Energy =                       -170.8436867546835742
  @DF-RHF Final Energy:  -170.79060089912420
    Total Energy =                       -170.7906008991242004
  @DF-RHF Final Energy:  -170.65687436027474
    Total Energy =                       -170.6568743602746565
  @DF-RHF Final Energy:  -170.60042404108987
    Total Energy =                       -170.6004240410898660
  @DF-RHF Final Energy:  -170.75733141874593
    Total Energy =                       -170.7573314187459061
  @DF-RHF Final Energy:  -170.64316776075444
    Total Energy =                       -170.6431677607543804
  Basis Set: CC-PVTZ
  Basis Set:
  @DF-RHF Final Energy:  -170.77638155329322
    Total Energy =                       -170.7763815532931346
  Basis Set: CC-PVTZ
  Basis Set:
  Basis Set: CC-PVTZ
  Basis Set:
  @DF-RHF Final Energy:  -170.59264844781464
    Total Energy =                       -170.5926484478147245
  Basis Set: CC-PVTZ
  Basis Set:
  Basis Set: CC-PVTZ
  Basis Set:
  @DF-RHF Final Energy:  -170.70244262395212
    Total Energy =                       -170.7024426239521517
  Basis Set: CC-PVTZ
  Basis Set:
  Charge       = 0
  Multiplicity = 1
  Basis Set: CC-PVTZ
  Basis Set:

    Orbital Energies (a.u.)
    -----------------------

    Doubly Occupied:

       1A    -15.658527     2A    -11.366953     3A    -11.289055
       4A    -11.269945     5A     -1.100821     6A     -1.002465
       7A     -0.912349     8A     -0.717635     9A     -0.645753
      10A     -0.584150    11A     -0.537270    12A     -0.525059
      13A     -0.462565    14A     -0.424736    15A     -0.381469

  @DF-RHF Final Energy:  -170.63884312649080

   => Energetics <=

    Nuclear Repulsion Energy =             94.3003555828654214
    One-Electron Energy =                -416.1208947251724339
    Two-Electron Energy =                 151.1816960158162999
    DFT Exchange-Correlation Energy =       0.0000000000000000
    Empirical Dispersion Energy =           0.0000000000000000
    PCM Polarization Energy =               0.0000000000000000
    EFP Energy =                            0.0000000000000000
    Total Energy =                       -170.6388431264906842
    Molecular point group: c1
  Basis Set: CC-PVTZ
  Basis Set:

  -Total Gradient:
     Atom            X                  Y                   Z
    ------   -----------------  -----------------  -----------------
       1       -0.071914671297     0.063537828515     0.018469360672
       2        0.061226840188    -0.055592266508    -0.044435393293
       3        0.080479429202     0.056081676087    -0.022178946118
       4       -0.031243189157    -0.028471462033     0.000827516386
       5        0.016473696848     0.019906185070     0.029293038988
       6       -0.117687500967    -0.065336331365    -0.022673916957
       7        0.017577088995    -0.016995517846    -0.002757806323
       8       -0.073751827449    -0.033783061943     0.000850677862
       9        0.118840133635     0.060652950023     0.042605468782

    Molecular point group: c1

    Geometry (in Angstrom), charge = 0, multiplicity = 1:

    H           -1.840457848241     1.904950556503    -0.741460069730
    C           -0.893968266252     0.908870278607    -0.739781603340
    C           -0.895661965618    -0.044247805066     0.522947699982
    H           -0.011661273569     1.344664144533    -0.867803211746
    H           -1.055811545529     0.402170537871    -1.678962668154
    C            0.071820091037    -1.176042345370     0.825817424778
    H           -0.749957263765     0.438701647671     1.497438409509
    H           -2.049561420865    -0.542816287141     0.527542652311
    N            1.882860292474     0.011540839264    -0.430953406046

  Mulliken Charges: (a.u.)
   Center  Symbol    Alpha    Beta     Spin     Total
       1     H     0.47777  0.47777  0.00000  0.04445
       2     C     3.14100  3.14100  0.00000 -0.28201
       3     C     3.06283  3.06283  0.00000 -0.12566
       4     H     0.42912  0.42912  0.00000  0.14176
       5     H     0.42660  0.42660  0.00000  0.14680
       6     C     2.96873  2.96873  0.00000  0.06253
       7     H     0.42281  0.42281  0.00000  0.15438
       8     H     0.47191  0.47191  0.00000  0.05618
       9     N     3.59922  3.59922  0.00000 -0.19844

   Total alpha = 15.00000, Total beta = 15.00000, Total charge = -0.00000
