  ==> Input File <==

--------------------------------------------------------------------------
set {
	reference rhf
	basis 6-31G*
}

set_num_threads( 1 )
memory 2 gb

molecule MOL {
0 1

H	 2.900845	 -1.224425	 0.030197
N	 3.092854	 -0.246221	 -0.068770
C	 1.865559	 0.531981	 0.018834
H	 3.522119	 -0.124946	 -0.966464
C	 0.645745	 -0.382037	 -0.029944
H	 1.841966	 1.207024	 -0.831236
H	 1.815756	 1.155410	 0.915079
C	 -0.679275	 0.379305	 0.025956
H	 0.698998	 -0.976915	 -0.937203
H	 0.693479	 -1.083846	 0.802235
C	 -1.903357	 -0.536963	 -0.023547
H	 -0.726309	 1.082987	 -0.803784
H	 -0.717680	 0.977832	 0.934877
C	 -3.225172	 0.228290	 0.028445
H	 -1.867824	 -1.134999	 -0.931459
H	 -1.860449	 -1.239604	 0.805977
H	 -3.313397	 0.915643	 -0.808262
H	 -4.073500	 -0.448134	 -0.008893
H	 -3.306061	 0.809945	 0.942516

	symmetry c1
}
set optking {
	frozen_dihedral = ("
		6 3 5 9,
		12 8 5 9,
		12 8 11 15
	")
}

ee = energy('scf')
oeprop('DIPOLE', 'QUADRUPOLE', 'MULLIKEN_CHARGES')
f=open( 'psi4out.xyz', 'w' )
f.write( "19  " )
f.write( str(ee) + "\n" )
f.write( MOL.save_string_xyz() )
f.close()
--------------------------------------------------------------------------

    Molecular point group: c1

    Geometry (in Angstrom), charge = 0, multiplicity = 1:

       Center              X                  Y                   Z               Mass
    ------------   -----------------  -----------------  -----------------  -----------------
           H          2.908593844419    -1.214257656614     0.048441516075     1.007825032070
           N          3.100602844419    -0.236053656614    -0.050525483925    14.003074004780
           C          1.873307844419     0.542148343386     0.037078516075    12.000000000000
           H          3.529867844419    -0.114778656614    -0.948219483925     1.007825032070
           C          0.653493844419    -0.371869656614    -0.011699483925    12.000000000000
           H          1.849714844419     1.217191343386    -0.812991483925     1.007825032070
           H          1.823504844419     1.165577343386     0.933323516075     1.007825032070
           C         -0.671526155581     0.389472343386     0.044200516075    12.000000000000
           H          0.706746844419    -0.966747656614    -0.918958483925     1.007825032070
           H          0.701227844419    -1.073678656614     0.820479516075     1.007825032070
           C         -1.895608155581    -0.526795656614    -0.005302483925    12.000000000000
           H         -0.718560155581     1.093154343386    -0.785539483925     1.007825032070
           H         -0.709931155581     0.987999343386     0.953121516075     1.007825032070
           C         -3.217423155581     0.238457343386     0.046689516075    12.000000000000
           H         -1.860075155581    -1.124831656614    -0.913214483925     1.007825032070
           H         -1.852700155581    -1.229436656614     0.824221516075     1.007825032070
           H         -3.305648155581     0.925810343386    -0.790017483925     1.007825032070
           H         -4.065751155581    -0.437966656614     0.009351516075     1.007825032070
           H         -3.298312155581     0.820112343386     0.960760516075     1.007825032070

  Charge       = 0
  Multiplicity = 1
  Basis Set: 6-31G*
  Basis Set:

    Orbital Energies (a.u.)
    -----------------------

    Doubly Occupied:

       1A    -15.529471     2A    -11.239929     3A    -11.216914
       4A    -11.215971     5A    -11.215201     6A    -11.209654
       7A     -1.177666     8A     -1.075619     9A     -0.999984
      10A     -0.901061    11A     -0.819394    12A     -0.794530
      13A     -0.669821    14A     -0.641463    15A     -0.601246
      16A     -0.598724    17A     -0.567041    18A     -0.553985
      19A     -0.530021    20A     -0.501240    21A     -0.486665
      22A     -0.469659    23A     -0.465571    24A     -0.459443
      25A     -0.372937

  @DF-RHF Final Energy:  -251.34637350770237

   => Energetics <=

    Nuclear Repulsion Energy =            246.1941654128702339
    One-Electron Energy =                -826.4547476241309596
    Two-Electron Energy =                 328.9142087035578470
    DFT Exchange-Correlation Energy =       0.0000000000000000
    Empirical Dispersion Energy =           0.0000000000000000
    PCM Polarization Energy =               0.0000000000000000
    EFP Energy =                            0.0000000000000000
    Total Energy =                       -251.3463735077028787

  Mulliken Charges: (a.u.)
   Center  Symbol    Alpha    Beta     Spin     Total
       1     H     0.33176  0.33176  0.00000  0.33649
       2     N     3.92721  3.92721  0.00000 -0.85442
       3     C     3.04757  3.04757  0.00000 -0.09514
       4     H     0.33240  0.33240  0.00000  0.33521
       5     C     3.16831  3.16831  0.00000 -0.33662
       6     H     0.42667  0.42667  0.00000  0.14665
       7     H     0.42089  0.42089  0.00000  0.15821
       8     C     3.15435  3.15435  0.00000 -0.30870
       9     H     0.42481  0.42481  0.00000  0.15037
      10     H     0.42171  0.42171  0.00000  0.15657
      11     C     3.15108  3.15108  0.00000 -0.30215
      12     H     0.42372  0.42372  0.00000  0.15257
      13     H     0.42187  0.42187  0.00000  0.15625
      14     C     3.23941  3.23941  0.00000 -0.47882
      15     H     0.42329  0.42329  0.00000  0.15343
      16     H     0.42267  0.42267  0.00000  0.15465
      17     H     0.42180  0.42180  0.00000  0.15640
      18     H     0.41912  0.41912  0.00000  0.16176
      19     H     0.42136  0.42136  0.00000  0.15728

   Total alpha = 25.00000, Total beta = 25.00000, Total charge = -0.00000
