  ==> Input File <==

--------------------------------------------------------------------------
set {
	reference rhf
	basis cc-pvtz
}

set_num_threads( 4 )
memory 2 gb

molecule MOL {
0 1

H	 1.166964	 -1.062386	 0.758429
O	 1.324748	 -0.612467	 -0.052206
C	 0.706474	 0.636793	 -0.025501
C	 -0.711929	 0.643785	 -0.521198
H	 1.305668	 1.288952	 -0.649966
H	 0.730470	 1.060026	 0.976995
C	 -1.345392	 -0.377287	 -1.054531
H	 -1.220175	 1.587981	 -0.414292
H	 -0.867918	 -1.328449	 -1.193392
H	 -2.363459	 -0.287973	 -1.382589

	symmetry c1
}
set optking {
	frozen_dihedral = ("
		5 3 2 1
	")
}

ee = optimize('scf')
oeprop('DIPOLE', 'QUADRUPOLE', 'MULLIKEN_CHARGES')
f=open( 'psi4out.xyz', 'w' )
f.write( "10  " )
f.write( str(ee) + "\n" )
f.write( MOL.save_string_xyz() )
f.close()
--------------------------------------------------------------------------

    Molecular point group: c1
  Charge       = 0
  Multiplicity = 1
  Basis Set: CC-PVTZ
  Basis Set:
  @DF-RHF Final Energy:  -191.99798174890412
    Total Energy =                       -191.9979817489041523
    Molecular point group: c1
  Basis Set: CC-PVTZ
  Basis Set:
  Basis Set: CC-PVTZ
  Basis Set:
  @DF-RHF Final Energy:  -191.99810775262137
    Total Energy =                       -191.9981077526214790
  Basis Set: CC-PVTZ
  Basis Set:
  Basis Set: CC-PVTZ
  Basis Set:
  @DF-RHF Final Energy:  -191.99812768381329
    Total Energy =                       -191.9981276838133226
  Basis Set: CC-PVTZ
  Basis Set:
  Charge       = 0
  Multiplicity = 1
  Basis Set: CC-PVTZ
  Basis Set:

    Orbital Energies (a.u.)
    -----------------------

    Doubly Occupied:

       1A    -20.554318     2A    -11.278390     3A    -11.226500
       4A    -11.212351     5A     -1.374246     6A     -1.059918
       7A     -0.930046     8A     -0.766918     9A     -0.699516
      10A     -0.660967    11A     -0.617230    12A     -0.576446
      13A     -0.526639    14A     -0.504546    15A     -0.450319
      16A     -0.365497

  @DF-RHF Final Energy:  -191.99812811409765

   => Energetics <=

    Nuclear Repulsion Energy =            119.4228642779482783
    One-Electron Energy =                -497.2342925672184037
    Two-Electron Energy =                 185.8133001751725146
    DFT Exchange-Correlation Energy =       0.0000000000000000
    Empirical Dispersion Energy =           0.0000000000000000
    PCM Polarization Energy =               0.0000000000000000
    EFP Energy =                            0.0000000000000000
    Total Energy =                       -191.9981281140975966
    Molecular point group: c1
  Basis Set: CC-PVTZ
  Basis Set:

  -Total Gradient:
     Atom            X                  Y                   Z
    ------   -----------------  -----------------  -----------------
       1        0.001402594535     0.000662324982     0.000710443844
       2       -0.001572512112    -0.000742513081    -0.000550718407
       3       -0.000610734123    -0.000243478700    -0.001349195863
       4       -0.000010728237     0.000021131969     0.000032957192
       5        0.000768421940     0.000363479362     0.001177974306
       6        0.000010464020    -0.000047240543    -0.000002570226
       7        0.000018434204    -0.000011486089     0.000000516056
       8        0.000000705145    -0.000001861407    -0.000013138947
       9       -0.000005403497     0.000003062453    -0.000011474451
      10       -0.000001241872    -0.000003418947     0.000005206494

  **** Optimization is complete! (in 4 steps) ****
    Final optimized geometry and variables:
    Molecular point group: c1

    Geometry (in Angstrom), charge = 0, multiplicity = 1:

    H            1.092691051936    -1.130668699030     1.091643442377
    O            1.262283204389    -0.648368798044     0.303963820597
    C            0.639254679086     0.600083548965     0.361598637305
    C           -0.772829924544     0.607734948609    -0.150283840973
    H            1.241865448215     1.284488310807    -0.225021814636
    H            0.647176458589     0.989352019426     1.377585709563
    C           -1.410427255568    -0.426057829366    -0.651708297290
    H           -1.269060840843     1.562332757241    -0.085736385835
    H           -0.939063824509    -1.385548114300    -0.741211806373
    H           -2.422785496471    -0.338163287537    -0.997695589761

  Mulliken Charges: (a.u.)
   Center  Symbol    Alpha    Beta     Spin     Total
       1     H     0.39102  0.39102  0.00000  0.21795
       2     O     4.19880  4.19880  0.00000 -0.39761
       3     C     2.95185  2.95185  0.00000  0.09629
       4     C     3.08252  3.08252  0.00000 -0.16504
       5     H     0.45509  0.45509  0.00000  0.08983
       6     H     0.46939  0.46939  0.00000  0.06123
       7     C     3.17717  3.17717  0.00000 -0.35435
       8     H     0.42363  0.42363  0.00000  0.15274
       9     H     0.42189  0.42189  0.00000  0.15623
      10     H     0.42864  0.42864  0.00000  0.14272

   Total alpha = 16.00000, Total beta = 16.00000, Total charge =  0.00000
