  ==> Input File <==

--------------------------------------------------------------------------
set {
	reference rhf
	basis 6-31G*
}

set_num_threads( 4 )
memory 2 gb

molecule MOL {
0 1

H	 -4.241458	 -2.034890	 -0.072439
C	 -3.450186	 -1.376927	 0.230273
C	 -2.220574	 -1.604914	 -0.169824
H	 -3.690311	 -0.540663	 0.859489
O	 -1.180634	 -0.819263	 0.215062
H	 -1.960425	 -2.432532	 -0.805879
C	 0.051604	 -1.018856	 -0.387932
C	 1.043764	 0.054862	 -0.001873
H	 -0.017620	 -1.041351	 -1.469781
H	 0.437898	 -1.966374	 -0.042284
F	 2.212596	 -0.199467	 -0.571921
F	 0.652529	 1.252447	 -0.405055
F	 1.230877	 0.110694	 1.300533

	symmetry c1
}
set optking {
	frozen_dihedral = ("
		3 5 7 9
	")
}

ee = optimize('scf')
oeprop('DIPOLE', 'QUADRUPOLE', 'MULLIKEN_CHARGES')
f=open( 'psi4out.xyz', 'w' )
f.write( "13  " )
f.write( str(ee) + "\n" )
f.write( MOL.save_string_xyz() )
f.close()
--------------------------------------------------------------------------

    Molecular point group: c1
  Charge       = 0
  Multiplicity = 1
  Basis Set: 6-31G*
  Basis Set:
  @DF-RHF Final Energy:  -527.53304929753085
    Total Energy =                       -527.5330492975310790
    Molecular point group: c1
  Basis Set: 6-31G*
  Basis Set:
  Basis Set: 6-31G*
  Basis Set:
  @DF-RHF Final Energy:  -527.53428735730779
    Total Energy =                       -527.5342873573079032
  Basis Set: 6-31G*
  Basis Set:
  Basis Set: 6-31G*
  Basis Set:
  @DF-RHF Final Energy:  -527.53457010168893
    Total Energy =                       -527.5345701016887006
  Basis Set: 6-31G*
  Basis Set:
  Basis Set: 6-31G*
  Basis Set:
  @DF-RHF Final Energy:  -527.53457772095271
    Total Energy =                       -527.5345777209533935
  Basis Set: 6-31G*
  Basis Set:
  @DF-RHF Final Energy:  -527.53458007543077
    Total Energy =                       -527.5345800754308812
  @DF-RHF Final Energy:  -527.53458114204159
    Total Energy =                       -527.5345811420417022
  @DF-RHF Final Energy:  -527.53458406273114
    Total Energy =                       -527.5345840627312555
  @DF-RHF Final Energy:  -527.53452998193359
    Total Energy =                       -527.5345299819339289
  @DF-RHF Final Energy:  -527.53458371662384
    Total Energy =                       -527.5345837166239562
  @DF-RHF Final Energy:  -527.53458825448627
    Total Energy =                       -527.5345882544859251
  @DF-RHF Final Energy:  -527.53460797922276
    Total Energy =                       -527.5346079792232104
  @DF-RHF Final Energy:  -527.53463527429892
    Total Energy =                       -527.5346352742990348
  @DF-RHF Final Energy:  -527.53468410278685
    Total Energy =                       -527.5346841027870823
  @DF-RHF Final Energy:  -527.53468656634936
    Total Energy =                       -527.5346865663491371
  @DF-RHF Final Energy:  -527.53471949197183
    Total Energy =                       -527.5347194919718277
  @DF-RHF Final Energy:  -527.53474465926433
    Total Energy =                       -527.5347446592645611
  @DF-RHF Final Energy:  -527.53475240238936
    Total Energy =                       -527.5347524023894721
  @DF-RHF Final Energy:  -527.53474749581017
    Total Energy =                       -527.5347474958106204
  @DF-RHF Final Energy:  -527.53471264766040
    Total Energy =                       -527.5347126476603989
  @DF-RHF Final Energy:  -527.53473148609805
    Total Energy =                       -527.5347314860982806
  @DF-RHF Final Energy:  -527.53444736040046
    Total Energy =                       -527.5344473604004634
  @DF-RHF Final Energy:  -527.53348145883501
    Total Energy =                       -527.5334814588354675
  @DF-RHF Final Energy:  -527.53264470076101
    Total Energy =                       -527.5326447007611250
  @DF-RHF Final Energy:  -527.53473267043910
    Total Energy =                       -527.5347326704388706
  @DF-RHF Final Energy:  -527.53481020592903
    Total Energy =                       -527.5348102059291477
  @DF-RHF Final Energy:  -527.53483603844677
    Total Energy =                       -527.5348360384468833
  @DF-RHF Final Energy:  -527.53484425289844
    Total Energy =                       -527.5348442528979831
  @DF-RHF Final Energy:  -527.53484989402682
    Total Energy =                       -527.5348498940270474
  @DF-RHF Final Energy:  -527.53485673033970
    Total Energy =                       -527.5348567303399250
  @DF-RHF Final Energy:  -527.53486390901378
    Total Energy =                       -527.5348639090141205
  @DF-RHF Final Energy:  -527.53487024371111
    Total Energy =                       -527.5348702437111115
  @DF-RHF Final Energy:  -527.53488562654866
    Total Energy =                       -527.5348856265483164
  @DF-RHF Final Energy:  -527.53492353319530
    Total Energy =                       -527.5349235331954105
  @DF-RHF Final Energy:  -527.53495723352125
    Total Energy =                       -527.5349572335210269
  @DF-RHF Final Energy:  -527.53497483649608
    Total Energy =                       -527.5349748364960760
  @DF-RHF Final Energy:  -527.53497901232981
    Total Energy =                       -527.5349790123301545
  Basis Set: 6-31G*
  Basis Set:
  @DF-RHF Final Energy:  -527.53498033843971
    Total Energy =                       -527.5349803384395955
  Basis Set: 6-31G*
  Basis Set:
  Basis Set: 6-31G*
  Basis Set:
  @DF-RHF Final Energy:  -527.53498328210503
    Total Energy =                       -527.5349832821045766
  Basis Set: 6-31G*
  Basis Set:
  Basis Set: 6-31G*
  Basis Set:
  @DF-RHF Final Energy:  -527.53498443725948
    Total Energy =                       -527.5349844372597090
  Basis Set: 6-31G*
  Basis Set:
  Charge       = 0
  Multiplicity = 1
  Basis Set: 6-31G*
  Basis Set:

    Orbital Energies (a.u.)
    -----------------------

    Doubly Occupied:

       1A    -26.341967     2A    -26.338154     3A    -26.338119
       4A    -20.606157     5A    -11.503277     6A    -11.317432
       7A    -11.301462     8A    -11.222537     9A     -1.739004
      10A     -1.636702    11A     -1.635162    12A     -1.438040
      13A     -1.086778    14A     -1.015830    15A     -0.922022
      16A     -0.837150    17A     -0.828800    18A     -0.805879
      19A     -0.795779    20A     -0.723548    21A     -0.711918
      22A     -0.697822    23A     -0.678248    24A     -0.656199
      25A     -0.651454    26A     -0.639546    27A     -0.637255
      28A     -0.586831    29A     -0.560563    30A     -0.527250
      31A     -0.502373    32A     -0.359849

  @DF-RHF Final Energy:  -527.53498525329246

   => Energetics <=

    Nuclear Repulsion Energy =            406.9261331860289488
    One-Electron Energy =               -1537.6360263961828423
    Two-Electron Energy =                 603.1749079568610341
    DFT Exchange-Correlation Energy =       0.0000000000000000
    Empirical Dispersion Energy =           0.0000000000000000
    PCM Polarization Energy =               0.0000000000000000
    EFP Energy =                            0.0000000000000000
    Total Energy =                       -527.5349852532929162
    Molecular point group: c1
  Basis Set: 6-31G*
  Basis Set:

  -Total Gradient:
     Atom            X                  Y                   Z
    ------   -----------------  -----------------  -----------------
       1        0.000054869472     0.000158780538    -0.000089570852
       2        0.000380925714    -0.000210443079     0.000186785424
       3       -0.000601983610     0.000634958522    -0.000496740996
       4       -0.000067642976    -0.000014979718     0.000116148220
       5       -0.000283298801    -0.000430397599    -0.000000584049
       6        0.000248470556    -0.000282854158     0.000095525869
       7        0.000841516885     0.000332185939     0.000371103792
       8       -0.000127133275    -0.000198878812     0.000193378487
       9       -0.000297624353    -0.000092660747     0.000166068827
      10       -0.000234412367     0.000049014223    -0.000176799475
      11        0.000196657373     0.000094235509    -0.000289772689
      12        0.000006961071     0.000032400569    -0.000262504311
      13       -0.000117305677    -0.000071361188     0.000186961755

  **** Optimization is complete! (in 46 steps) ****
    Final optimized geometry and variables:
    Molecular point group: c1

    Geometry (in Angstrom), charge = 0, multiplicity = 1:

    H           -4.139967519373    -1.721100111263    -0.030008220093
    C           -3.317549348971    -1.147330748881     0.351432179559
    C           -2.207409701949    -1.049292251838    -0.342918270901
    H           -3.435813727947    -0.644724659716     1.293116603491
    O           -1.164945984918    -0.280654021109     0.062039140916
    H           -2.064991066169    -1.547461436450    -1.287872310190
    C            0.100967909249    -0.722970981251    -0.298562674490
    C            1.080359339873     0.387877913414    -0.014913982625
    H            0.158645621925    -0.955860091411    -1.356451683595
    H            0.398383488149    -1.595384637137     0.271764211191
    F            2.299396398746    -0.010422180510    -0.351699002718
    F            0.806282222385     1.473685280829    -0.710423095730
    F            1.100549451294     0.715064495841     1.261369112358

  Mulliken Charges: (a.u.)
   Center  Symbol    Alpha    Beta     Spin     Total
       1     H     0.40669  0.40669  0.00000  0.18661
       2     C     3.22890  3.22890  0.00000 -0.45779
       3     C     2.89993  2.89993  0.00000  0.20013
       4     H     0.39997  0.39997  0.00000  0.20006
       5     O     4.30490  4.30490  0.00000 -0.60979
       6     H     0.40930  0.40930  0.00000  0.18140
       7     C     3.05045  3.05045  0.00000 -0.10089
       8     C     2.45037  2.45037  0.00000  1.09926
       9     H     0.40775  0.40775  0.00000  0.18449
      10     H     0.40379  0.40379  0.00000  0.19242
      11     F     4.68541  4.68541  0.00000 -0.37082
      12     F     4.67637  4.67637  0.00000 -0.35275
      13     F     4.67616  4.67616  0.00000 -0.35233

   Total alpha = 32.00000, Total beta = 32.00000, Total charge = -0.00000
