  ==> Input File <==

--------------------------------------------------------------------------
set {
	reference rhf
	basis 6-31G*
}

set_num_threads( 1 )
memory 2 gb

molecule MOL {
0 1

O	 2.862325	 1.357334	 0.000267
C	 2.843464	 0.164689	 -0.000222
C	 1.546494	 -0.624492	 -0.000609
C	 4.124123	 -0.644674	 -0.000428
C	 0.291004	 0.242674	 0.000989
H	 1.557904	 -1.283758	 -0.867573
H	 1.558622	 -1.285963	 0.864672
C	 -0.994322	 -0.586602	 0.000262
H	 0.309117	 0.896430	 -0.865270
H	 0.309661	 0.894078	 0.869017
C	 -2.259874	 0.272531	 0.000494
H	 -1.004862	 -1.240012	 -0.870939
H	 -1.005220	 -1.241071	 0.870675
C	 -2.195177	 1.445935	 -0.978766
H	 -2.436126	 0.652573	 1.005244
H	 -3.117957	 -0.351501	 -0.242970
C	 -3.462846	 2.299551	 -0.972615
H	 -1.338504	 2.071103	 -0.735661
H	 -2.020531	 1.067196	 -1.983711
H	 -3.646772	 2.721055	 0.011588
H	 -3.386493	 3.123081	 -1.675943
H	 -4.333469	 1.710328	 -1.246432
H	 4.165367	 -1.288615	 -0.874074
H	 4.976217	 0.020734	 -0.001915
H	 4.166763	 -1.286207	 0.874930

	symmetry c1
}
set optking {
	frozen_dihedral = ("
		9 5 8 12,
		15 11 14 18,
		1 2 3 6,
		9 5 3 6
	")
}

ee = energy('scf')
oeprop('DIPOLE', 'QUADRUPOLE', 'MULLIKEN_CHARGES')
f=open( 'psi4out.xyz', 'w' )
f.write( "25  " )
f.write( str(ee) + "\n" )
f.write( MOL.save_string_xyz() )
f.close()
--------------------------------------------------------------------------

    Molecular point group: c1

    Geometry (in Angstrom), charge = 0, multiplicity = 1:

       Center              X                  Y                   Z               Mass
    ------------   -----------------  -----------------  -----------------  -----------------
           O          2.556286400088     0.906462052605     0.221254363438    15.994914619560
           C          2.537425400088    -0.286182947395     0.220765363438    12.000000000000
           C          1.240455400088    -1.075363947395     0.220378363438    12.000000000000
           C          3.818084400088    -1.095545947395     0.220559363438    12.000000000000
           C         -0.015034599912    -0.208197947395     0.221976363438    12.000000000000
           H          1.251865400088    -1.734629947395    -0.646585636562     1.007825032070
           H          1.252583400088    -1.736834947395     1.085659363438     1.007825032070
           C         -1.300360599912    -1.037473947395     0.221249363438    12.000000000000
           H          0.003078400088     0.445558052605    -0.644282636562     1.007825032070
           H          0.003622400088     0.443206052605     1.090004363438     1.007825032070
           C         -2.565912599912    -0.178340947395     0.221481363438    12.000000000000
           H         -1.310900599912    -1.690883947395    -0.649951636562     1.007825032070
           H         -1.311258599912    -1.691942947395     1.091662363438     1.007825032070
           C         -2.501215599912     0.995063052605    -0.757778636562    12.000000000000
           H         -2.742164599912     0.201701052605     1.226231363438     1.007825032070
           H         -3.423995599912    -0.802372947395    -0.021982636562     1.007825032070
           C         -3.768884599912     1.848679052605    -0.751627636562    12.000000000000
           H         -1.644542599912     1.620231052605    -0.514673636562     1.007825032070
           H         -2.326569599912     0.616324052605    -1.762723636562     1.007825032070
           H         -3.952810599912     2.270183052605     0.232575363438     1.007825032070
           H         -3.692531599912     2.672209052605    -1.454955636562     1.007825032070
           H         -4.639507599912     1.259456052605    -1.025444636562     1.007825032070
           H          3.859328400088    -1.739486947395    -0.653086636562     1.007825032070
           H          4.670178400088    -0.430137947395     0.219072363438     1.007825032070
           H          3.860724400088    -1.737078947395     1.095917363438     1.007825032070

  Charge       = 0
  Multiplicity = 1
  Basis Set: 6-31G*
  Basis Set:

    Orbital Energies (a.u.)
    -----------------------

    Doubly Occupied:

       1A    -20.550460     2A    -11.326240     3A    -11.231511
       4A    -11.228315     5A    -11.216649     6A    -11.215591
       7A    -11.213200     8A    -11.211976     9A    -11.206192
      10A     -1.395771    11A     -1.095689    12A     -1.053557
      13A     -1.012210    14A     -0.969017    15A     -0.887551
      16A     -0.834472    17A     -0.770577    18A     -0.731118
      19A     -0.655980    20A     -0.650615    21A     -0.635531
      22A     -0.620802    23A     -0.599854    24A     -0.580647
      25A     -0.570410    26A     -0.561466    27A     -0.550611
      28A     -0.518361    29A     -0.505398    30A     -0.495809
      31A     -0.488361    32A     -0.477632    33A     -0.459347
      34A     -0.454954    35A     -0.445775    36A     -0.399953

  @DF-RHF Final Energy:  -387.13146824504844

   => Energetics <=

    Nuclear Repulsion Energy =            448.3808410059221501
    One-Electron Energy =               -1413.3814829461866793
    Two-Electron Energy =                 577.8691736952172278
    DFT Exchange-Correlation Energy =       0.0000000000000000
    Empirical Dispersion Energy =           0.0000000000000000
    PCM Polarization Energy =               0.0000000000000000
    EFP Energy =                            0.0000000000000000
    Total Energy =                       -387.1314682450473583

  Mulliken Charges: (a.u.)
   Center  Symbol    Alpha    Beta     Spin     Total
       1     O     4.26155  4.26155  0.00000 -0.52310
       2     C     2.73560  2.73560  0.00000  0.52880
       3     C     3.20936  3.20936  0.00000 -0.41872
       4     C     3.28672  3.28672  0.00000 -0.57343
       5     C     3.15481  3.15481  0.00000 -0.30962
       6     H     0.41009  0.41009  0.00000  0.17982
       7     H     0.41034  0.41034  0.00000  0.17931
       8     C     3.15431  3.15431  0.00000 -0.30862
       9     H     0.40775  0.40775  0.00000  0.18449
      10     H     0.41264  0.41264  0.00000  0.17472
      11     C     3.15061  3.15061  0.00000 -0.30122
      12     H     0.42486  0.42486  0.00000  0.15029
      13     H     0.42268  0.42268  0.00000  0.15464
      14     C     3.15964  3.15964  0.00000 -0.31928
      15     H     0.42309  0.42309  0.00000  0.15383
      16     H     0.42183  0.42183  0.00000  0.15634
      17     C     3.23806  3.23806  0.00000 -0.47611
      18     H     0.41427  0.41427  0.00000  0.17145
      19     H     0.42422  0.42422  0.00000  0.15155
      20     H     0.42164  0.42164  0.00000  0.15672
      21     H     0.41902  0.41902  0.00000  0.16195
      22     H     0.42299  0.42299  0.00000  0.15402
      23     H     0.40875  0.40875  0.00000  0.18251
      24     H     0.39652  0.39652  0.00000  0.20697
      25     H     0.40866  0.40866  0.00000  0.18269

   Total alpha = 36.00000, Total beta = 36.00000, Total charge =  0.00000
