                              Psi4 1.0.54 Driver

  ==> Input File <==

--------------------------------------------------------------------------
set {
	reference rhf
	basis cc-pvtz
}

set_num_threads( 4 )
memory 2 gb

molecule MOL {
0 1

O	 -2.440701	 -0.934798	 -0.415053
C	 -1.922978	 0.063265	 -0.045005
C	 -2.632749	 1.372204	 0.158357
O	 -0.637375	 0.157174	 0.243149
H	 -2.187724	 2.129143	 -0.474664
H	 -3.677681	 1.257276	 -0.079438
H	 -2.516788	 1.693160	 1.185542
C	 0.162530	 -1.009518	 0.097799
C	 1.587210	 -0.664190	 0.477086
H	 0.096803	 -1.356267	 -0.924704
H	 -0.233803	 -1.785900	 0.736810
C	 2.564725	 -1.831415	 0.368401
H	 1.569655	 -0.298762	 1.500262
H	 1.925887	 0.160548	 -0.142546
C	 3.981804	 -1.452563	 0.785502
H	 2.212197	 -2.650369	 0.989801
H	 2.573202	 -2.199624	 -0.651007
H	 4.653207	 -2.299181	 0.702785
H	 4.010358	 -1.107279	 1.813780
H	 4.374093	 -0.657608	 0.160064

	symmetry c1
}
set optking {
	frozen_dihedral = ("
		12 9 8 10
	")
}

ee,wfn = optimize('scf', return_wfn=True)
oeprop( wfn, 'DIPOLE', 'QUADRUPOLE', 'MULLIKEN_CHARGES')
f=open( 'psi4out.xyz', 'w' )
f.write( "20  " )
f.write( str(ee) + "\n" )
f.write( MOL.save_string_xyz() )
f.close()
--------------------------------------------------------------------------

    Molecular point group: c1
  Charge       = 0
  Multiplicity = 1
  Basis Set: CC-PVTZ
  Basis Set:
  @DF-RHF Final Energy:  -384.08745979008177
    Total Energy =                       -384.0874597900814251
    Molecular point group: c1
  Basis Set: CC-PVTZ
  Basis Set:
  Basis Set: CC-PVTZ
  Basis Set:
  @DF-RHF Final Energy:  -384.08769914603272
    Total Energy =                       -384.0876991460329464
  Basis Set: CC-PVTZ
  Basis Set:
  Basis Set: CC-PVTZ
  Basis Set:
  @DF-RHF Final Energy:  -384.08745319657868
    Total Energy =                       -384.0874531965790766
  Basis Set: CC-PVTZ
  Basis Set:
  Basis Set: CC-PVTZ
  Basis Set:
  @DF-RHF Final Energy:  -384.08774789000006
    Total Energy =                       -384.0877478899999460
  Basis Set: CC-PVTZ
  Basis Set:
  Basis Set: CC-PVTZ
  Basis Set:
  @DF-RHF Final Energy:  -384.08774981256465
    Total Energy =                       -384.0877498125643115
  Basis Set: CC-PVTZ
  Basis Set:
  Charge       = 0
  Multiplicity = 1
  Basis Set: CC-PVTZ
  Basis Set:

    Orbital Energies (a.u.)
    -----------------------

    Doubly Occupied:

       1A    -20.594105     2A    -20.532307     3A    -11.366257
       4A    -11.279538     5A    -11.231195     6A    -11.224008
       7A    -11.222304     8A    -11.213791     9A     -1.470751
      10A     -1.364831    11A     -1.089232    12A     -1.030576
      13A     -0.981575    14A     -0.882055    15A     -0.808633
      16A     -0.777349    17A     -0.694981    18A     -0.689470
      19A     -0.671788    20A     -0.639566    21A     -0.595295
      22A     -0.594482    23A     -0.571629    24A     -0.561616
      25A     -0.545778    26A     -0.521170    27A     -0.507691
      28A     -0.485699    29A     -0.481525    30A     -0.477166
      31A     -0.456107    32A     -0.440465

  @DF-RHF Final Energy:  -384.08774994519666

   => Energetics <=

    Nuclear Repulsion Energy =            379.5858920744232705
    One-Electron Energy =               -1275.3414143893205619
    Two-Electron Energy =                 511.6677723697004012
    DFT Exchange-Correlation Energy =       0.0000000000000000
    Empirical Dispersion Energy =           0.0000000000000000
    PCM Polarization Energy =               0.0000000000000000
    EFP Energy =                            0.0000000000000000
    Total Energy =                       -384.0877499451968333
    Molecular point group: c1
  Basis Set: CC-PVTZ
  Basis Set:

  -Total Gradient:
     Atom            X                  Y                   Z
    ------   -----------------  -----------------  -----------------
       1       -0.000021133838    -0.000050975398    -0.000033946031
       2        0.000016654865     0.000035332935     0.000006928417
       3        0.000016173712    -0.000007847812     0.000018162715
       4       -0.000029745526     0.000027411921    -0.000037813382
       5        0.000005560725     0.000008544920    -0.000007832016
       6       -0.000005714136    -0.000010024852    -0.000003471873
       7        0.000002212785     0.000014028005     0.000009984882
       8       -0.000007850793     0.000020104425     0.000114160884
       9        0.000005531399    -0.000001733766     0.000029077781
      10        0.000012810051    -0.000027755319    -0.000007562255
      11        0.000008670453    -0.000000918887    -0.000020819433
      12       -0.000011166732     0.000012979294    -0.000032267006
      13       -0.000015031370    -0.000015376348    -0.000023908023
      14        0.000010535296    -0.000000662546    -0.000000447986
      15        0.000024877422    -0.000006980534     0.000001839877
      16       -0.000002887891     0.000005666213    -0.000002999294
      17       -0.000003055595    -0.000005233372    -0.000013897777
      18       -0.000004901513     0.000002639073     0.000002771839
      19       -0.000001221721     0.000000783903     0.000005818883
      20       -0.000000317591     0.000000018144    -0.000003780203

  **** Optimization is complete! (in 6 steps) ****
    Final optimized geometry and variables:
    Molecular point group: c1

    Geometry (in Angstrom), charge = 0, multiplicity = 1:

    O           -2.504262722648    -0.389898340274    -0.629125614283
    C           -1.983936631685     0.610187186566    -0.268167621702
    C           -2.686761499172     1.926150908165    -0.090024010990
    O           -0.700060281632     0.700543982414     0.028655843646
    H           -2.229363530764     2.671031309349    -0.728406193047
    H           -3.730013339976     1.815224350478    -0.337026136363
    H           -2.578826165953     2.260028678553     0.933874477293
    C            0.092930657753    -0.471680714792    -0.094122677761
    C            1.512637371004    -0.117584822636     0.293151517799
    H            0.038185023589    -0.830151909151    -1.113067947629
    H           -0.312725361839    -1.241549915019     0.548094339161
    C            2.452798102615    -1.315133530555     0.189301573811
    H            1.515809505342     0.268462854797     1.307503096570
    H            1.863505612637     0.684594101523    -0.348280385115
    C            3.887529408921    -0.974628460338     0.577602840378
    H            2.088974018032    -2.117056679641     0.825460671986
    H            2.437041210517    -1.700410070584    -0.826316627567
    H            4.531147188833    -1.842354049013     0.494561467465
    H            3.941557929835    -0.618599948930     1.600778410158
    H            4.292424848130    -0.199046115653    -0.063559534303

  Mulliken Charges: (a.u.)
   Center  Symbol    Alpha    Beta     Spin     Total
       1     O     4.19710  4.19710  0.00000 -0.39421
       2     C     2.81121  2.81121  0.00000  0.37757
       3     C     3.13827  3.13827  0.00000 -0.27654
       4     O     4.15018  4.15018  0.00000 -0.30036
       5     H     0.44589  0.44589  0.00000  0.10822
       6     H     0.43817  0.43817  0.00000  0.12365
       7     H     0.44587  0.44587  0.00000  0.10826
       8     C     2.97911  2.97911  0.00000  0.04177
       9     C     3.08059  3.08059  0.00000 -0.16119
      10     H     0.45414  0.45414  0.00000  0.09172
      11     H     0.45412  0.45412  0.00000  0.09176
      12     C     3.09274  3.09274  0.00000 -0.18549
      13     H     0.45137  0.45137  0.00000  0.09727
      14     H     0.45136  0.45136  0.00000  0.09728
      15     C     3.14956  3.14956  0.00000 -0.29912
      16     H     0.45263  0.45263  0.00000  0.09473
      17     H     0.45260  0.45260  0.00000  0.09480
      18     H     0.44701  0.44701  0.00000  0.10597
      19     H     0.45403  0.45403  0.00000  0.09194
      20     H     0.45402  0.45402  0.00000  0.09195

   Total alpha = 32.00000, Total beta = 32.00000, Total charge = -0.00000

*** Psi4 exiting successfully. Buy a developer a beer!
