  ==> Input File <==

--------------------------------------------------------------------------
set {
	reference rhf
	basis 6-31G*
}

set_num_threads( 1 )
memory 2 gb

molecule MOL {
0 1

O	 -1.186334	 -2.792603	 -0.402026
C	 -0.889232	 -1.917193	 -1.156892
C	 -0.889235	 -0.467034	 -0.705952
C	 -0.469116	 -2.205331	 -2.580919
C	 0.379448	 -0.143569	 0.099626
H	 -1.762801	 -0.317006	 -0.080909
H	 -0.966311	 0.199037	 -1.560607
C	 1.631333	 -0.777471	 -0.511575
H	 0.482768	 0.934507	 0.149241
H	 0.263088	 -0.495696	 1.123449
C	 2.915987	 -0.544314	 0.291766
H	 1.766672	 -0.399098	 -1.523130
H	 1.471257	 -1.849544	 -0.605828
C	 3.373361	 0.914346	 0.347591
H	 3.708709	 -1.142521	 -0.150311
H	 2.780642	 -0.921148	 1.303579
H	 3.506512	 1.320010	 -0.651625
H	 4.322697	 0.999599	 0.867103
H	 2.660624	 1.545032	 0.868198
H	 -1.207047	 -1.800412	 -3.268497
H	 -0.384049	 -3.272274	 -2.733175
H	 0.477648	 -1.723513	 -2.807399

	symmetry c1
}
set optking {
	frozen_dihedral = ("
		6 3 2 1,
		3 5 8 12,
		12 8 11 15
	")
}

ee = energy('scf')
oeprop('DIPOLE', 'QUADRUPOLE', 'MULLIKEN_CHARGES')
f=open( 'psi4out.xyz', 'w' )
f.write( "22  " )
f.write( str(ee) + "\n" )
f.write( MOL.save_string_xyz() )
f.close()
--------------------------------------------------------------------------

    Molecular point group: c1

    Geometry (in Angstrom), charge = 0, multiplicity = 1:

       Center              X                  Y                   Z               Mass
    ------------   -----------------  -----------------  -----------------  -----------------
           O         -1.807778723189    -1.799377727075     0.177859413332    15.994914619560
           C         -1.510676723189    -0.923967727075    -0.577006586668    12.000000000000
           C         -1.510679723189     0.526191272925    -0.126066586668    12.000000000000
           C         -1.090560723189    -1.212105727075    -2.001033586668    12.000000000000
           C         -0.241996723189     0.849656272925     0.679511413332    12.000000000000
           H         -2.384245723189     0.676219272925     0.498976413332     1.007825032070
           H         -1.587755723189     1.192262272925    -0.980721586668     1.007825032070
           C          1.009888276811     0.215754272925     0.068310413332    12.000000000000
           H         -0.138676723189     1.927732272925     0.729126413332     1.007825032070
           H         -0.358356723189     0.497529272925     1.703334413332     1.007825032070
           C          2.294542276811     0.448911272925     0.871651413332    12.000000000000
           H          1.145227276811     0.594127272925    -0.943244586668     1.007825032070
           H          0.849812276811    -0.856318727075    -0.025942586668     1.007825032070
           C          2.751916276811     1.907571272925     0.927476413332    12.000000000000
           H          3.087264276811    -0.149295727075     0.429574413332     1.007825032070
           H          2.159197276811     0.072077272925     1.883464413332     1.007825032070
           H          2.885067276811     2.313235272925    -0.071739586668     1.007825032070
           H          3.701252276811     1.992824272925     1.446988413332     1.007825032070
           H          2.039179276811     2.538257272925     1.448083413332     1.007825032070
           H         -1.828491723189    -0.807186727075    -2.688611586668     1.007825032070
           H         -1.005493723189    -2.279048727075    -2.153289586668     1.007825032070
           H         -0.143796723189    -0.730287727075    -2.227513586668     1.007825032070

  Charge       = 0
  Multiplicity = 1
  Basis Set: 6-31G*
  Basis Set:

    Orbital Energies (a.u.)
    -----------------------

    Doubly Occupied:

       1A    -20.546417     2A    -11.323817     3A    -11.229270
       4A    -11.228517     5A    -11.226099     6A    -11.223120
       7A    -11.221023     8A    -11.213254     9A     -1.392817
      10A     -1.098786    11A     -1.042807    12A     -0.997739
      13A     -0.940526    14A     -0.858971    15A     -0.792803
      16A     -0.727308    17A     -0.662527    18A     -0.637759
      19A     -0.631438    20A     -0.620175    21A     -0.599351
      22A     -0.583591    23A     -0.561648    24A     -0.548783
      25A     -0.531505    26A     -0.528661    27A     -0.494268
      28A     -0.487926    29A     -0.470666    30A     -0.465317
      31A     -0.454015    32A     -0.396515

  @DF-RHF Final Energy:  -348.09201868144510

   => Energetics <=

    Nuclear Repulsion Energy =            385.0860767120940409
    One-Electron Energy =               -1234.8814651439449790
    Two-Electron Energy =                 501.7033697504068641
    DFT Exchange-Correlation Energy =       0.0000000000000000
    Empirical Dispersion Energy =           0.0000000000000000
    PCM Polarization Energy =               0.0000000000000000
    EFP Energy =                            0.0000000000000000
    Total Energy =                       -348.0920186814440740

  Mulliken Charges: (a.u.)
   Center  Symbol    Alpha    Beta     Spin     Total
       1     O     4.26324  4.26324  0.00000 -0.52649
       2     C     2.74417  2.74417  0.00000  0.51166
       3     C     3.19938  3.19938  0.00000 -0.39877
       4     C     3.28896  3.28896  0.00000 -0.57792
       5     C     3.15428  3.15428  0.00000 -0.30856
       6     H     0.39957  0.39957  0.00000  0.20086
       7     H     0.41662  0.41662  0.00000  0.16676
       8     C     3.17040  3.17040  0.00000 -0.34080
       9     H     0.41427  0.41427  0.00000  0.17147
      10     H     0.40963  0.40963  0.00000  0.18075
      11     C     3.15144  3.15144  0.00000 -0.30289
      12     H     0.42476  0.42476  0.00000  0.15047
      13     H     0.41058  0.41058  0.00000  0.17884
      14     C     3.24204  3.24204  0.00000 -0.48408
      15     H     0.41932  0.41932  0.00000  0.16136
      16     H     0.41946  0.41946  0.00000  0.16107
      17     H     0.42246  0.42246  0.00000  0.15509
      18     H     0.41733  0.41733  0.00000  0.16534
      19     H     0.41998  0.41998  0.00000  0.16004
      20     H     0.40777  0.40777  0.00000  0.18447
      21     H     0.39800  0.39800  0.00000  0.20399
      22     H     0.40633  0.40633  0.00000  0.18733

   Total alpha = 32.00000, Total beta = 32.00000, Total charge = -0.00000
