                              Psi4 1.0.54 Driver

  ==> Input File <==

--------------------------------------------------------------------------
set {
	reference rhf
	basis cc-pvtz
}

set_num_threads( 4 )
memory 2 gb

molecule MOL {
0 1

H	 2.167901	 -2.872754	 -0.546990
O	 2.923546	 -2.578667	 -1.020638
C	 2.597184	 -2.358890	 -2.367657
C	 1.747793	 -1.116576	 -2.590987
H	 3.540244	 -2.250425	 -2.886167
H	 2.098880	 -3.231946	 -2.784690
C	 0.352472	 -1.191742	 -1.975131
H	 2.278847	 -0.258430	 -2.190082
H	 1.659623	 -0.960530	 -3.663495
C	 -0.482150	 0.058814	 -2.247809
H	 0.440751	 -1.340773	 -0.904150
H	 -0.169213	 -2.061789	 -2.370288
C	 -1.915820	 0.007514	 -1.716573
H	 0.024916	 0.924648	 -1.828951
H	 -0.519612	 0.221232	 -3.321441
C	 -2.041121	 -0.006551	 -0.194127
H	 -2.452214	 0.871458	 -2.099210
H	 -2.419130	 -0.865131	 -2.126849
C	 -3.489218	 0.042606	 0.286507
H	 -1.499057	 0.842151	 0.217382
H	 -1.567769	 -0.895560	 0.211587
C	 -4.219984	 1.311773	 -0.139038
H	 -4.022855	 -0.824300	 -0.093339
H	 -3.510372	 -0.038577	 1.370031
H	 -4.244251	 1.405725	 -1.219696
H	 -5.244345	 1.313233	 0.215630
H	 -3.732090	 2.196311	 0.257073

	symmetry c1
}
set optking {
	frozen_dihedral = ("
		20 16 19 22
	")
}

ee,wfn = optimize('scf', return_wfn=True)
oeprop( wfn, 'DIPOLE', 'QUADRUPOLE', 'MULLIKEN_CHARGES')
f=open( 'psi4out.xyz', 'w' )
f.write( "27  " )
f.write( str(ee) + "\n" )
f.write( MOL.save_string_xyz() )
f.close()
--------------------------------------------------------------------------

    Molecular point group: c1
  Charge       = 0
  Multiplicity = 1
  Basis Set: CC-PVTZ
  Basis Set:
  @DF-RHF Final Energy:  -388.42492956871780
    Total Energy =                       -388.4249295687180847
    Molecular point group: c1
  Basis Set: CC-PVTZ
  Basis Set:
  Basis Set: CC-PVTZ
  Basis Set:
  @DF-RHF Final Energy:  -388.42472379263046
    Total Energy =                       -388.4247237926307434
  Basis Set: CC-PVTZ
  Basis Set:
  Basis Set: CC-PVTZ
  Basis Set:
  @DF-RHF Final Energy:  -388.42579880636293
    Total Energy =                       -388.4257988063629909
  Basis Set: CC-PVTZ
  Basis Set:
  Basis Set: CC-PVTZ
  Basis Set:
  @DF-RHF Final Energy:  -388.42583936694155
    Total Energy =                       -388.4258393669417728
  Basis Set: CC-PVTZ
  Basis Set:
  Basis Set: CC-PVTZ
  Basis Set:
  @DF-RHF Final Energy:  -388.42582027328501
    Total Energy =                       -388.4258202732851259
  Basis Set: CC-PVTZ
  Basis Set:
  Basis Set: CC-PVTZ
  Basis Set:
  @DF-RHF Final Energy:  -388.42584991991794
    Total Energy =                       -388.4258499199175958
  Basis Set: CC-PVTZ
  Basis Set:
  Charge       = 0
  Multiplicity = 1
  Basis Set: CC-PVTZ
  Basis Set:

    Orbital Energies (a.u.)
    -----------------------

    Doubly Occupied:

       1A    -20.545342     2A    -11.264961     3A    -11.216632
       4A    -11.214688     5A    -11.214376     6A    -11.213197
       7A    -11.212804     8A    -11.212002     9A    -11.206662
      10A     -1.363229    11A     -1.095921    12A     -1.061835
      13A     -1.010553    14A     -0.947555    15A     -0.894196
      16A     -0.828294    17A     -0.798229    18A     -0.770681
      19A     -0.696272    20A     -0.646879    21A     -0.634137
      22A     -0.618429    23A     -0.609732    24A     -0.589762
      25A     -0.580323    26A     -0.554266    27A     -0.539519
      28A     -0.529061    29A     -0.505687    30A     -0.498797
      31A     -0.486399    32A     -0.473930    33A     -0.469877
      34A     -0.459723    35A     -0.449060    36A     -0.441339
      37A     -0.425907

  @DF-RHF Final Energy:  -388.42584994727366

   => Energetics <=

    Nuclear Repulsion Energy =            461.9641113767484626
    One-Electron Energy =               -1442.2194169961567241
    Two-Electron Energy =                 591.8294556721347135
    DFT Exchange-Correlation Energy =       0.0000000000000000
    Empirical Dispersion Energy =           0.0000000000000000
    PCM Polarization Energy =               0.0000000000000000
    EFP Energy =                            0.0000000000000000
    Total Energy =                       -388.4258499472736048
    Molecular point group: c1
  Basis Set: CC-PVTZ
  Basis Set:

  -Total Gradient:
     Atom            X                  Y                   Z
    ------   -----------------  -----------------  -----------------
       1       -0.000011346081     0.000000759414     0.000007570453
       2       -0.000006139295    -0.000001208798     0.000008223263
       3        0.000018483330     0.000021871879    -0.000000691869
       4        0.000002816925    -0.000007572333     0.000006343719
       5        0.000002690072     0.000002170148    -0.000007919366
       6       -0.000005308055     0.000005241401     0.000000068682
       7       -0.000011191960    -0.000008925336    -0.000013990209
       8        0.000007418854     0.000001580398    -0.000004916885
       9       -0.000003767170    -0.000009233977     0.000000990904
      10       -0.000001223110     0.000002692966     0.000002575880
      11        0.000005480974    -0.000010390689     0.000005437043
      12       -0.000006012703    -0.000009271656    -0.000008616828
      13        0.000008960522     0.000015454878     0.000007165574
      14       -0.000000514966     0.000007381941    -0.000003617307
      15       -0.000012385491    -0.000003343468     0.000006724379
      16       -0.000353533206     0.000313738860    -0.000913950524
      17        0.000002951228     0.000000693197    -0.000006483235
      18        0.000009451909     0.000000504435     0.000001308952
      19        0.000279976303     0.000313085418     0.000740738528
      20        0.000232005906    -0.000357941701     0.000587553768
      21        0.000000560152     0.000001115079     0.000002624114
      22       -0.000163282270    -0.000282147712    -0.000423713735
      23        0.000003431482     0.000004042468    -0.000001715452
      24       -0.000010460471     0.000005649401    -0.000002293920
      25        0.000002387749    -0.000006960715     0.000016766782
      26        0.000008372195     0.000001918041    -0.000003707673
      27        0.000000177178    -0.000000903539    -0.000002475041

  **** Optimization is complete! (in 7 steps) ****
    Final optimized geometry and variables:
    Molecular point group: c1

    Geometry (in Angstrom), charge = 0, multiplicity = 1:

    H            2.604857150397    -2.197593341312     0.808337139819
    O            3.361469500246    -1.934174318486     0.318709526990
    C            3.027706034892    -1.755523535030    -1.032538071754
    C            2.200076186535    -0.505826105206    -1.292732349790
    H            3.968058967237    -1.683595613773    -1.562193758425
    H            2.509256329182    -2.632900099647    -1.414347577432
    C            0.811347631598    -0.529773296851    -0.658112502843
    H            2.752790037788     0.355854299682    -0.930722161216
    H            2.101850479437    -0.388436035247    -2.369265057316
    C           -0.004273377262     0.722988046923    -0.974916263476
    H            0.910740480077    -0.636325762139     0.416780573670
    H            0.269729471326    -1.405786043876    -1.010727013347
    C           -1.434225124332     0.723571679270    -0.428763254745
    H            0.522925549771     1.597080392999    -0.600379331151
    H           -0.050075159624     0.838486200265    -2.054211379265
    C           -1.534816066838     0.807944512345     1.094017081058
    H           -1.959329156236     1.563734387535    -0.869284151062
    H           -1.949800734561    -0.170577452707    -0.773362404539
    C           -2.962960827087     0.785251295625     1.643846190322
    H           -1.033813027931     1.710319901748     1.438255218747
    H           -0.994947927450    -0.021457364785     1.538499176732
    C           -3.836364639336     1.963942395995     1.220755407115
    H           -3.445322555412    -0.142007285152     1.345202022096
    H           -2.910293282208     0.761864666114     2.727952497465
    H           -4.021580187286     1.970454237706     0.153749054142
    H           -4.799334852826     1.923994503185     1.716941847836
    H           -3.370405785023     2.908889047185     1.482030327993

  Mulliken Charges: (a.u.)
   Center  Symbol    Alpha    Beta     Spin     Total
       1     H     0.39228  0.39228  0.00000  0.21544
       2     O     4.20551  4.20551  0.00000 -0.41103
       3     C     2.98001  2.98001  0.00000  0.03998
       4     C     3.08923  3.08923  0.00000 -0.17846
       5     H     0.44856  0.44856  0.00000  0.10288
       6     H     0.46966  0.46966  0.00000  0.06068
       7     C     3.10215  3.10215  0.00000 -0.20430
       8     H     0.45076  0.45076  0.00000  0.09848
       9     H     0.45532  0.45532  0.00000  0.08937
      10     C     3.09731  3.09731  0.00000 -0.19463
      11     H     0.45611  0.45611  0.00000  0.08777
      12     H     0.45387  0.45387  0.00000  0.09227
      13     C     3.10163  3.10163  0.00000 -0.20326
      14     H     0.45153  0.45153  0.00000  0.09693
      15     H     0.44805  0.44805  0.00000  0.10390
      16     C     3.09683  3.09683  0.00000 -0.19366
      17     H     0.44474  0.44474  0.00000  0.11053
      18     H     0.45418  0.45418  0.00000  0.09164
      19     C     3.08883  3.08883  0.00000 -0.17766
      20     H     0.45302  0.45302  0.00000  0.09395
      21     H     0.44947  0.44947  0.00000  0.10106
      22     C     3.15335  3.15335  0.00000 -0.30670
      23     H     0.45473  0.45473  0.00000  0.09054
      24     H     0.44849  0.44849  0.00000  0.10302
      25     H     0.45355  0.45355  0.00000  0.09289
      26     H     0.44628  0.44628  0.00000  0.10744
      27     H     0.45454  0.45454  0.00000  0.09091

   Total alpha = 37.00000, Total beta = 37.00000, Total charge = -0.00000

*** Psi4 exiting successfully. Buy a developer a beer!
