  ==> Input File <==

--------------------------------------------------------------------------
set {
	reference rhf
	basis 6-31G*
}

set_num_threads( 1 )
memory 2 gb

molecule MOL {
0 1

O	 -0.291628	 1.323815	 -0.000732
C	 -0.449655	 0.146360	 0.000961
C	 -1.783294	 -0.549321	 -0.000296
O	 0.550821	 -0.724572	 0.000672
H	 -1.863538	 -1.185371	 -0.874187
H	 -2.574672	 0.185258	 -0.002793
H	 -1.866414	 -1.182381	 0.875436
C	 1.450920	 -0.668386	 1.092893
H	 1.932375	 0.297777	 1.138577
H	 2.180840	 -1.442185	 0.913449
H	 0.931400	 -0.851281	 2.022404

	symmetry c1
}
set optking {
	frozen_dihedral = ("
		2 4 8 9
	")
}

ee = energy('scf')
oeprop('DIPOLE', 'QUADRUPOLE', 'MULLIKEN_CHARGES')
f=open( 'psi4out.xyz', 'w' )
f.write( "11  " )
f.write( str(ee) + "\n" )
f.write( MOL.save_string_xyz() )
f.close()
--------------------------------------------------------------------------

    Molecular point group: c1

    Geometry (in Angstrom), charge = 0, multiplicity = 1:

       Center              X                  Y                   Z               Mass
    ------------   -----------------  -----------------  -----------------  -----------------
           O         -0.203719709609     1.424875592479    -0.233406798944    15.994914619560
           C         -0.361746709609     0.247420592479    -0.231713798944    12.000000000000
           C         -1.695385709609    -0.448260407521    -0.232970798944    12.000000000000
           O          0.638729290391    -0.623511407521    -0.232002798944    15.994914619560
           H         -1.775629709609    -1.084310407521    -1.106861798944     1.007825032070
           H         -2.486763709609     0.286318592479    -0.235467798944     1.007825032070
           H         -1.778505709609    -1.081320407521     0.642761201056     1.007825032070
           C          1.538828290391    -0.567325407521     0.860218201056    12.000000000000
           H          2.020283290391     0.398837592479     0.905902201056     1.007825032070
           H          2.268748290391    -1.341124407521     0.680774201056     1.007825032070
           H          1.019308290391    -0.750220407521     1.789729201056     1.007825032070

  Charge       = 0
  Multiplicity = 1
  Basis Set: 6-31G*
  Basis Set:

    Orbital Energies (a.u.)
    -----------------------

    Doubly Occupied:

       1A    -20.592341     2A    -20.552980     3A    -11.377363
       4A    -11.291032     5A    -11.235043     6A     -1.467198
       7A     -1.366651     8A     -1.031384     9A     -0.961298
      10A     -0.780186    11A     -0.695199    12A     -0.682565
      13A     -0.673297    14A     -0.604954    15A     -0.592509
      16A     -0.570629    17A     -0.540242    18A     -0.500874
      19A     -0.457155    20A     -0.440787

  @DF-RHF Final Energy:  -266.82103577641124

   => Energetics <=

    Nuclear Repulsion Energy =            183.0634013807344616
    One-Electron Energy =                -726.9414371695175987
    Two-Electron Energy =                 277.0570000123719296
    DFT Exchange-Correlation Energy =       0.0000000000000000
    Empirical Dispersion Energy =           0.0000000000000000
    PCM Polarization Energy =               0.0000000000000000
    EFP Energy =                            0.0000000000000000
    Total Energy =                       -266.8210357764111791

  Mulliken Charges: (a.u.)
   Center  Symbol    Alpha    Beta     Spin     Total
       1     O     4.26433  4.26433  0.00000 -0.52867
       2     C     2.62665  2.62665  0.00000  0.74669
       3     C     3.28339  3.28339  0.00000 -0.56677
       4     O     4.30340  4.30340  0.00000 -0.60680
       5     H     0.39838  0.39838  0.00000  0.20325
       6     H     0.39849  0.39849  0.00000  0.20302
       7     H     0.40528  0.40528  0.00000  0.18944
       8     C     3.09408  3.09408  0.00000 -0.18816
       9     H     0.40290  0.40290  0.00000  0.19419
      10     H     0.40403  0.40403  0.00000  0.19194
      11     H     0.41907  0.41907  0.00000  0.16186

   Total alpha = 20.00000, Total beta = 20.00000, Total charge =  0.00000
