                              Psi4 1.0.54 Driver

  ==> Input File <==

--------------------------------------------------------------------------
set {
	reference rhf
	basis cc-pvtz
}

set_num_threads( 4 )
memory 2 gb

molecule MOL {
0 1

H	 -0.366580	 2.045936	 -0.305741
C	 0.351829	 1.335402	 0.083179
N	 -0.000018	 0.000080	 -0.334836
H	 1.327156	 1.599860	 -0.305475
H	 0.380566	 1.445403	 1.171445
C	 -0.875773	 -0.648455	 0.611121
C	 -0.539460	 -0.022316	 -1.673022
H	 -1.062430	 -1.669212	 0.302406
H	 -0.410129	 -0.674867	 1.588190
H	 -1.841266	 -0.143447	 0.710431
H	 0.172026	 0.408852	 -2.365888
H	 -0.726716	 -1.043733	 -1.979235
H	 -1.477124	 0.534487	 -1.761720

	symmetry c1
}
set optking {
	frozen_dihedral = ("
		6 3 2 1
	")
}

ee,wfn = optimize('scf', return_wfn=True)
oeprop( wfn, 'DIPOLE', 'QUADRUPOLE', 'MULLIKEN_CHARGES')
f=open( 'psi4out.xyz', 'w' )
f.write( "13  " )
f.write( str(ee) + "\n" )
f.write( MOL.save_string_xyz() )
f.close()
--------------------------------------------------------------------------

    Molecular point group: c1
  Charge       = 0
  Multiplicity = 1
  Basis Set: CC-PVTZ
  Basis Set:
  @DF-RHF Final Energy:  -173.33066093808395
    Total Energy =                       -173.3306609380839518
    Molecular point group: c1
  Basis Set: CC-PVTZ
  Basis Set:
  Basis Set: CC-PVTZ
  Basis Set:
  @DF-RHF Final Energy:  -173.33152507300011
    Total Energy =                       -173.3315250729999661
  Basis Set: CC-PVTZ
  Basis Set:
  Basis Set: CC-PVTZ
  Basis Set:
  @DF-RHF Final Energy:  -173.33164102436723
    Total Energy =                       -173.3316410243672294
  Basis Set: CC-PVTZ
  Basis Set:
  Basis Set: CC-PVTZ
  Basis Set:
  @DF-RHF Final Energy:  -173.33164670709155
    Total Energy =                       -173.3316467070915223
  Basis Set: CC-PVTZ
  Basis Set:
  Charge       = 0
  Multiplicity = 1
  Basis Set: CC-PVTZ
  Basis Set:

    Orbital Energies (a.u.)
    -----------------------

    Doubly Occupied:

       1A    -15.536514     2A    -11.234367     3A    -11.234295
       4A    -11.234089     5A     -1.224539     6A     -0.953453
       7A     -0.952235     8A     -0.805775     9A     -0.640448
      10A     -0.632324    11A     -0.630336    12A     -0.547488
      13A     -0.541584    14A     -0.517295    15A     -0.504611
      16A     -0.502541    17A     -0.342772

  @DF-RHF Final Energy:  -173.33164726542424

   => Energetics <=

    Nuclear Repulsion Energy =            139.1684308974780038
    One-Electron Energy =                -508.9308224798260767
    Two-Electron Energy =                 196.4307443169238354
    DFT Exchange-Correlation Energy =       0.0000000000000000
    Empirical Dispersion Energy =           0.0000000000000000
    PCM Polarization Energy =               0.0000000000000000
    EFP Energy =                            0.0000000000000000
    Total Energy =                       -173.3316472654242375
    Molecular point group: c1
  Basis Set: CC-PVTZ
  Basis Set:

  -Total Gradient:
     Atom            X                  Y                   Z
    ------   -----------------  -----------------  -----------------
       1        0.002533183082     0.000534089308    -0.003879311408
       2       -0.002136582128    -0.001215489721     0.005718964457
       3       -0.003226536411     0.002069772166    -0.003474647891
       4       -0.000012605797     0.000002338436    -0.000016003229
       5        0.000002151664    -0.000004972036     0.000000602099
       6        0.002819120896    -0.001362132901     0.001652790623
       7        0.000005337037    -0.000014712874    -0.000008782525
       8       -0.000002878650     0.000000536201     0.000000787253
       9        0.000000919513    -0.000004566617     0.000006790015
      10        0.000013805413    -0.000001274838    -0.000007480405
      11       -0.000005488638     0.000001529358     0.000002646178
      12       -0.000003272421    -0.000004096848    -0.000011901419
      13        0.000012846439    -0.000001019633     0.000015546252

  **** Optimization is complete! (in 5 steps) ****
    Final optimized geometry and variables:
    Molecular point group: c1

    Geometry (in Angstrom), charge = 0, multiplicity = 1:

    H           -0.038627126645     1.933761023554     0.095753139718
    C            0.647495105301     1.154300171237     0.435789652213
    N            0.255036899968    -0.166364925965     0.000281837592
    H            1.623044124297     1.403531452829     0.031080776174
    H            0.716419491120     1.194652331166     1.513751052093
    C           -0.617329531995    -0.847547125917     0.923253663312
    C           -0.221760282186    -0.182760234028    -1.357452298982
    H           -0.798120419183    -1.857951287742     0.577787022554
    H           -0.149818662097    -0.908908605832     1.897357819503
    H           -1.589300780502    -0.358259455264     1.044612316749
    H            0.516306552624     0.264073789204    -2.012615456387
    H           -0.382448924367    -1.202407686762    -1.684678603850
    H           -1.159740899411     0.366679830504    -1.485907978187

  Mulliken Charges: (a.u.)
   Center  Symbol    Alpha    Beta     Spin     Total
       1     H     0.47178  0.47178  0.00000  0.05644
       2     C     3.08795  3.08795  0.00000 -0.17590
       3     N     3.59654  3.59654  0.00000 -0.19308
       4     H     0.45183  0.45183  0.00000  0.09634
       5     H     0.45453  0.45453  0.00000  0.09094
       6     C     3.08796  3.08796  0.00000 -0.17591
       7     C     3.08955  3.08955  0.00000 -0.17909
       8     H     0.45339  0.45339  0.00000  0.09322
       9     H     0.45260  0.45260  0.00000  0.09480
      10     H     0.47456  0.47456  0.00000  0.05088
      11     H     0.45288  0.45288  0.00000  0.09424
      12     H     0.45315  0.45315  0.00000  0.09370
      13     H     0.47328  0.47328  0.00000  0.05344

   Total alpha = 17.00000, Total beta = 17.00000, Total charge =  0.00000

*** Psi4 exiting successfully. Buy a developer a beer!
