  ==> Input File <==

--------------------------------------------------------------------------
set {
	reference rhf
	basis 6-31G*
}

set_num_threads( 4 )
memory 2 gb

molecule MOL {
0 1

O	 -2.740643	 0.831941	 0.343331
C	 -1.921153	 0.064240	 -0.045697
C	 -2.201217	 -1.126409	 -0.922205
O	 -0.632575	 0.154573	 0.251549
H	 -1.889353	 -2.033832	 -0.417950
H	 -3.256533	 -1.171602	 -1.146040
H	 -1.629850	 -1.047933	 -1.839886
C	 0.160891	 -1.019931	 0.106212
C	 1.589627	 -0.672828	 0.480843
H	 0.089836	 -1.367806	 -0.916050
H	 -0.238459	 -1.792301	 0.749618
C	 2.246377	 0.346236	 -0.452210
H	 2.163194	 -1.597435	 0.473358
H	 1.604769	 -0.303424	 1.502885
C	 3.691736	 0.652107	 -0.061850
H	 2.219579	 -0.032311	 -1.472055
H	 1.666466	 1.263317	 -0.447249
H	 4.134505	 1.377213	 -0.737283
H	 4.305508	 -0.243868	 -0.089969
H	 3.748266	 1.059562	 0.943567

	symmetry c1
}
set optking {
	frozen_dihedral = ("
		1 2 4 8
	")
}

ee = optimize('scf')
oeprop('DIPOLE', 'QUADRUPOLE', 'MULLIKEN_CHARGES')
f=open( 'psi4out.xyz', 'w' )
f.write( "20  " )
f.write( str(ee) + "\n" )
f.write( MOL.save_string_xyz() )
f.close()
--------------------------------------------------------------------------

    Molecular point group: c1
  Charge       = 0
  Multiplicity = 1
  Basis Set: 6-31G*
  Basis Set:
  @DF-RHF Final Energy:  -383.92132467802571
    Total Energy =                       -383.9213246780255986
    Molecular point group: c1
  Basis Set: 6-31G*
  Basis Set:
  Basis Set: 6-31G*
  Basis Set:
  @DF-RHF Final Energy:  -383.92088368566971
    Total Energy =                       -383.9208836856695370
  Basis Set: 6-31G*
  Basis Set:
  Basis Set: 6-31G*
  Basis Set:
  @DF-RHF Final Energy:  -383.92868704494259
    Total Energy =                       -383.9286870449421940
  Basis Set: 6-31G*
  Basis Set:
  Basis Set: 6-31G*
  Basis Set:
  @DF-RHF Final Energy:  -383.93029348914746
    Total Energy =                       -383.9302934891474024
  Basis Set: 6-31G*
  Basis Set:
  @DF-RHF Final Energy:  -383.92938597964155
    Total Energy =                       -383.9293859796410970
  @DF-RHF Final Energy:  -383.93067812234131
    Total Energy =                       -383.9306781223413054
  Basis Set: 6-31G*
  Basis Set:
  @DF-RHF Final Energy:  -383.93082536554613
    Total Energy =                       -383.9308253655456156
  Basis Set: 6-31G*
  Basis Set:
  Basis Set: 6-31G*
  Basis Set:
  @DF-RHF Final Energy:  -383.93082264071512
    Total Energy =                       -383.9308226407151778
  Basis Set: 6-31G*
  Basis Set:
  Basis Set: 6-31G*
  Basis Set:
  @DF-RHF Final Energy:  -383.93082862096401
    Total Energy =                       -383.9308286209640073
  Basis Set: 6-31G*
  Basis Set:
  Charge       = 0
  Multiplicity = 1
  Basis Set: 6-31G*
  Basis Set:

    Orbital Energies (a.u.)
    -----------------------

    Doubly Occupied:

       1A    -20.598815     2A    -20.539867     3A    -11.376020
       4A    -11.297896     5A    -11.242151     6A    -11.230781
       7A    -11.222322     8A    -11.214265     9A     -1.461885
      10A     -1.364753    11A     -1.087263    12A     -1.019625
      13A     -1.000375    14A     -0.889564    15A     -0.815238
      16A     -0.780658    17A     -0.697857    18A     -0.688711
      19A     -0.661203    20A     -0.633490    21A     -0.607763
      22A     -0.593912    23A     -0.579848    24A     -0.556753
      25A     -0.548639    26A     -0.538241    27A     -0.511122
      28A     -0.487850    29A     -0.478257    30A     -0.476415
      31A     -0.442407    32A     -0.432301

  @DF-RHF Final Energy:  -383.93082864429459

   => Energetics <=

    Nuclear Repulsion Energy =            384.6917254734411244
    One-Electron Energy =               -1285.0926194681046582
    Two-Electron Energy =                 516.4700653503685999
    DFT Exchange-Correlation Energy =       0.0000000000000000
    Empirical Dispersion Energy =           0.0000000000000000
    PCM Polarization Energy =               0.0000000000000000
    EFP Energy =                            0.0000000000000000
    Total Energy =                       -383.9308286442949338
    Molecular point group: c1
  Basis Set: 6-31G*
  Basis Set:

  -Total Gradient:
     Atom            X                  Y                   Z
    ------   -----------------  -----------------  -----------------
       1       -0.000345765688    -0.001119628717     0.001763944356
       2        0.000280947531     0.001413393476    -0.001549277370
       3       -0.000011041859    -0.000011906789     0.000027517053
       4        0.000406043815     0.000088585220    -0.001999762990
       5       -0.000001689054     0.000004863587    -0.000008987673
       6       -0.000001992298    -0.000001729316    -0.000003133568
       7        0.000003236315     0.000009170424     0.000001512879
       8       -0.000342103785    -0.000365182023     0.001780349101
       9        0.000001777215    -0.000014956332    -0.000012193523
      10        0.000001722736     0.000000951335     0.000001635473
      11        0.000004498023    -0.000005232811    -0.000000446254
      12        0.000003155386    -0.000007642014     0.000005394068
      13        0.000003164753    -0.000002015208    -0.000002849026
      14        0.000002228960    -0.000002821939    -0.000002121004
      15       -0.000001288292     0.000008090966     0.000001040850
      16        0.000003070929     0.000001654316     0.000001320874
      17       -0.000006210284     0.000001083688    -0.000006578326
      18        0.000001596799     0.000001855290     0.000001211330
      19       -0.000003878797     0.000000641795    -0.000000421754
      20        0.000002527598     0.000000825051     0.000001845501

  **** Optimization is complete! (in 10 steps) ****
    Final optimized geometry and variables:
    Molecular point group: c1

    Geometry (in Angstrom), charge = 0, multiplicity = 1:

    O           -2.634726079166     0.986785241802     0.378303780009
    C           -1.934620431583     0.127343184342    -0.036711278288
    C           -2.455379647989    -1.013813533305    -0.880396720550
    O           -0.625411465443     0.162383948654     0.222163385177
    H           -2.310008849099    -1.968432527897    -0.387342918852
    H           -3.510399023637    -0.856469375567    -1.044046815661
    H           -1.941854983908    -1.050596415615    -1.834813514206
    C            0.204653066764    -0.982546498075     0.137712743546
    C            1.608013700644    -0.572442285001     0.547251108088
    H            0.204753351698    -1.374456930040    -0.873503935505
    H           -0.170949174619    -1.752110356588     0.803211619963
    C            2.249018072037     0.449782763767    -0.392732171575
    H            2.217315403422    -1.473367163330     0.583368361731
    H            1.569381530998    -0.174949429914     1.557083181127
    C            3.662704820113     0.835196819248     0.040793877274
    H            2.279460832257     0.040684618307    -1.401018347380
    H            1.625611214956     1.336086209941    -0.434837649911
    H            4.096023986528     1.559332540166    -0.641519451341
    H            4.318767811199    -0.030601428301     0.065075075138
    H            3.660641063076     1.276735141200     1.033064303266

  Mulliken Charges: (a.u.)
   Center  Symbol    Alpha    Beta     Spin     Total
       1     O     4.26444  4.26444  0.00000 -0.52888
       2     C     2.61414  2.61414  0.00000  0.77172
       3     C     3.30835  3.30835  0.00000 -0.61671
       4     O     4.30450  4.30450  0.00000 -0.60900
       5     H     0.40378  0.40378  0.00000  0.19243
       6     H     0.38803  0.38803  0.00000  0.22395
       7     H     0.40193  0.40193  0.00000  0.19614
       8     C     3.00376  3.00376  0.00000 -0.00752
       9     C     3.16134  3.16134  0.00000 -0.32269
      10     H     0.42026  0.42026  0.00000  0.15947
      11     H     0.41562  0.41562  0.00000  0.16875
      12     C     3.15678  3.15678  0.00000 -0.31356
      13     H     0.41962  0.41962  0.00000  0.16076
      14     H     0.40888  0.40888  0.00000  0.18225
      15     C     3.24084  3.24084  0.00000 -0.48168
      16     H     0.42544  0.42544  0.00000  0.14912
      17     H     0.40442  0.40442  0.00000  0.19115
      18     H     0.41653  0.41653  0.00000  0.16694
      19     H     0.42274  0.42274  0.00000  0.15452
      20     H     0.41859  0.41859  0.00000  0.16282

   Total alpha = 32.00000, Total beta = 32.00000, Total charge = -0.00000
