  ==> Input File <==

--------------------------------------------------------------------------
set {
	reference rhf
	basis 6-31G*
}

set_num_threads( 4 )
memory 2 gb

molecule MOL {
0 1

H	 -2.798360	 -0.862255	 -0.071053
N	 -1.863561	 -0.715187	 0.256814
C	 -1.344686	 0.554728	 -0.219830
H	 -1.300452	 -1.461917	 -0.101532
C	 0.081427	 0.741154	 0.254071
H	 -1.362155	 0.656231	 -1.305829
H	 -1.952773	 1.354456	 0.191809
O	 0.874168	 -0.245412	 -0.342030
H	 0.444037	 1.730782	 -0.023037
H	 0.121165	 0.653424	 1.337565
C	 0.494866	 -1.549307	 -0.036158
H	 1.174508	 -2.217226	 -0.547695
H	 0.553622	 -1.740258	 1.033920
H	 -0.520294	 -1.756359	 -0.368406

	symmetry c1
}
set optking {
	frozen_dihedral = ("
		11 8 5 3
	")
}

ee = optimize('scf')
oeprop('DIPOLE', 'QUADRUPOLE', 'MULLIKEN_CHARGES')
f=open( 'psi4out.xyz', 'w' )
f.write( "14  " )
f.write( str(ee) + "\n" )
f.write( MOL.save_string_xyz() )
f.close()
--------------------------------------------------------------------------

    Molecular point group: c1
  Charge       = 0
  Multiplicity = 1
  Basis Set: 6-31G*
  Basis Set:
  @DF-RHF Final Energy:  -248.02665446239089
    Total Energy =                       -248.0266544623909795
    Molecular point group: c1
  Basis Set: 6-31G*
  Basis Set:
  Basis Set: 6-31G*
  Basis Set:
  @DF-RHF Final Energy:  -248.09245290365351
    Total Energy =                       -248.0924529036534523
  Basis Set: 6-31G*
  Basis Set:
  Basis Set: 6-31G*
  Basis Set:
  @DF-RHF Final Energy:  -248.10771953955728
    Total Energy =                       -248.1077195395572517
  Basis Set: 6-31G*
  Basis Set:
  Basis Set: 6-31G*
  Basis Set:
  @DF-RHF Final Energy:  -248.11157815716686
    Total Energy =                       -248.1115781571667753
  Basis Set: 6-31G*
  Basis Set:
  @DF-RHF Final Energy:  -248.11494866854909
    Total Energy =                       -248.1149486685487204
  @DF-RHF Final Energy:  -248.11609375276683
    Total Energy =                       -248.1160937527666306
  @DF-RHF Final Energy:  -248.11649868750573
    Total Energy =                       -248.1164986875058958
  @DF-RHF Final Energy:  -248.11662316204573
    Total Energy =                       -248.1166231620455278
  @DF-RHF Final Energy:  -248.11666273641180
    Total Energy =                       -248.1166627364120245
  Basis Set: 6-31G*
  Basis Set:
  @DF-RHF Final Energy:  -248.11667912847653
    Total Energy =                       -248.1166791284762780
  Basis Set: 6-31G*
  Basis Set:
  Basis Set: 6-31G*
  Basis Set:
  @DF-RHF Final Energy:  -248.11668528823296
    Total Energy =                       -248.1166852882328726
  Basis Set: 6-31G*
  Basis Set:
  Basis Set: 6-31G*
  Basis Set:
  @DF-RHF Final Energy:  -248.11668637775313
    Total Energy =                       -248.1166863777530125
  Basis Set: 6-31G*
  Basis Set:
  Charge       = 0
  Multiplicity = 1
  Basis Set: 6-31G*
  Basis Set:

    Orbital Energies (a.u.)
    -----------------------

    Doubly Occupied:

       1A    -20.551165     2A    -15.540654     3A    -11.264340
       4A    -11.263050     5A    -11.246693     6A     -1.373545
       7A     -1.181608     8A     -1.000319     9A     -0.915408
      10A     -0.810961    11A     -0.689188    12A     -0.670925
      13A     -0.640084    14A     -0.620173    15A     -0.598551
      16A     -0.547131    17A     -0.538316    18A     -0.508515
      19A     -0.458843    20A     -0.412618    21A     -0.386912

  @DF-RHF Final Energy:  -248.11668646157548

   => Energetics <=

    Nuclear Repulsion Energy =            196.6219470882367375
    One-Electron Energy =                -727.0392731644217292
    Two-Electron Energy =                 282.3006396146095085
    DFT Exchange-Correlation Energy =       0.0000000000000000
    Empirical Dispersion Energy =           0.0000000000000000
    PCM Polarization Energy =               0.0000000000000000
    EFP Energy =                            0.0000000000000000
    Total Energy =                       -248.1166864615754548
    Molecular point group: c1
  Basis Set: 6-31G*
  Basis Set:

  -Total Gradient:
     Atom            X                  Y                   Z
    ------   -----------------  -----------------  -----------------
       1       -0.000006158272    -0.000003182385    -0.000004233693
       2        0.000014000857     0.000007901562     0.000006183826
       3       -0.000395243382    -0.001414660262     0.001462101251
       4       -0.000002669420     0.000004470025    -0.000000195411
       5        0.000034429231     0.002031257142    -0.003082013835
       6       -0.000004308087     0.000003100186    -0.000001558061
       7       -0.000003337004     0.000001247893     0.000005562192
       8        0.001557648053    -0.000636114383     0.003629432340
       9       -0.000008663157    -0.000003286319    -0.000012990902
      10        0.000016250590     0.000031282679     0.000008406949
      11       -0.001223279406    -0.000032669792    -0.002011651726
      12        0.000002861550     0.000000633437    -0.000000083265
      13        0.000003922260     0.000007734332    -0.000000738911
      14        0.000014546182     0.000002285887     0.000001779246

  **** Optimization is complete! (in 13 steps) ****
    Final optimized geometry and variables:
    Molecular point group: c1

    Geometry (in Angstrom), charge = 0, multiplicity = 1:

    H           -2.779153019675    -0.128454867190     0.275562375793
    N           -1.799094207732    -0.271856695532     0.421579329140
    C           -1.030767363117     0.770737765310    -0.248531289625
    H           -1.586543427106    -1.180184004712     0.061823286904
    C            0.397119936899     0.909366274246     0.277262705899
    H           -0.997213390563     0.664440759929    -1.333699286236
    H           -1.531245464237     1.711059483393    -0.040614712073
    O            1.349704586667     0.049958679838    -0.284941195484
    H            0.758709624530     1.904117354863     0.049342125442
    H            0.377261988561     0.791759340838     1.358727728126
    C            1.140019265143    -1.318753033795    -0.143484977273
    H            2.068672455388    -1.813189203797    -0.395631112807
    H            0.865927843540    -1.582861496823     0.875129579958
    H            0.370754494311    -1.684840239418    -0.819636309338

  Mulliken Charges: (a.u.)
   Center  Symbol    Alpha    Beta     Spin     Total
       1     H     0.33001  0.33001  0.00000  0.33998
       2     N     3.92554  3.92554  0.00000 -0.85108
       3     C     3.08638  3.08638  0.00000 -0.17277
       4     H     0.33022  0.33022  0.00000  0.33956
       5     C     2.98816  2.98816  0.00000  0.02369
       6     H     0.42298  0.42298  0.00000  0.15404
       7     H     0.41803  0.41803  0.00000  0.16393
       8     O     4.30677  4.30677  0.00000 -0.61354
       9     H     0.41655  0.41655  0.00000  0.16691
      10     H     0.42122  0.42122  0.00000  0.15755
      11     C     3.08206  3.08206  0.00000 -0.16412
      12     H     0.41229  0.41229  0.00000  0.17543
      13     H     0.42376  0.42376  0.00000  0.15248
      14     H     0.43604  0.43604  0.00000  0.12793

   Total alpha = 21.00000, Total beta = 21.00000, Total charge =  0.00000
