  ==> Input File <==

--------------------------------------------------------------------------
set {
	reference rhf
	basis 6-31G*
}

set_num_threads( 4 )
memory 2 gb

molecule MOL {
0 1

H	 2.661951	 -0.388125	 0.923978
N	 1.682203	 -0.185530	 0.944231
C	 0.913315	 -1.409907	 1.072392
C	 1.294347	 0.563651	 -0.236873
H	 1.222304	 -1.926680	 1.974745
H	 1.062193	 -2.087084	 0.228054
C	 -0.565000	 -1.062658	 1.164236
H	 1.879271	 1.476085	 -0.282662
H	 1.466303	 0.006005	 -1.160509
C	 -0.184203	 0.909677	 -0.144218
H	 -0.744917	 -0.510406	 2.091462
H	 -1.150599	 -1.975367	 1.204009
N	 -0.975995	 -0.298722	 0.000000
H	 -0.494805	 1.421321	 -1.049366
H	 -0.338609	 1.594068	 0.695346
C	 -2.393863	 -0.024976	 0.000000
H	 -2.854032	 -0.467193	 -0.876721
H	 -2.854032	 -0.467193	 0.876721
H	 -2.623281	 1.044943	 0.000000

	symmetry c1
}
set optking {
	frozen_dihedral = ("
		7 13 16 19
	")
}

ee = optimize('scf')
oeprop('DIPOLE', 'QUADRUPOLE', 'MULLIKEN_CHARGES')
f=open( 'psi4out.xyz', 'w' )
f.write( "19  " )
f.write( str(ee) + "\n" )
f.write( MOL.save_string_xyz() )
f.close()
--------------------------------------------------------------------------

    Molecular point group: c1
  Charge       = 0
  Multiplicity = 1
  Basis Set: 6-31G*
  Basis Set:
  @DF-RHF Final Energy:  -305.19260275536908
    Total Energy =                       -305.1926027553690233
    Molecular point group: c1
  Basis Set: 6-31G*
  Basis Set:
  Basis Set: 6-31G*
  Basis Set:
  @DF-RHF Final Energy:  -305.19322913025627
    Total Energy =                       -305.1932291302561566
  Basis Set: 6-31G*
  Basis Set:
  Basis Set: 6-31G*
  Basis Set:
  @DF-RHF Final Energy:  -305.19337592742875
    Total Energy =                       -305.1933759274286899
  Basis Set: 6-31G*
  Basis Set:
  Basis Set: 6-31G*
  Basis Set:
  @DF-RHF Final Energy:  -305.19338136533389
    Total Energy =                       -305.1933813653337211
  Basis Set: 6-31G*
  Basis Set:
  Charge       = 0
  Multiplicity = 1
  Basis Set: 6-31G*
  Basis Set:

    Orbital Energies (a.u.)
    -----------------------

    Doubly Occupied:

       1A    -15.536802     2A    -15.535839     3A    -11.237611
       4A    -11.237591     5A    -11.236851     6A    -11.236806
       7A    -11.234752     8A     -1.243693     9A     -1.182517
      10A     -1.022359    11A     -0.963726    12A     -0.860065
      13A     -0.857897    14A     -0.755824    15A     -0.690054
      16A     -0.630342    17A     -0.623241    18A     -0.603892
      19A     -0.603516    20A     -0.580139    21A     -0.544119
      22A     -0.534461    23A     -0.512147    24A     -0.487952
      25A     -0.466187    26A     -0.455961    27A     -0.362552
      28A     -0.337056

  @DF-RHF Final Energy:  -305.19338208262695

   => Energetics <=

    Nuclear Repulsion Energy =            339.2286190361563740
    One-Electron Energy =               -1085.6961002006253239
    Two-Electron Energy =                 441.2740990818418254
    DFT Exchange-Correlation Energy =       0.0000000000000000
    Empirical Dispersion Energy =           0.0000000000000000
    PCM Polarization Energy =               0.0000000000000000
    EFP Energy =                            0.0000000000000000
    Total Energy =                       -305.1933820826271244
    Molecular point group: c1
  Basis Set: 6-31G*
  Basis Set:

  -Total Gradient:
     Atom            X                  Y                   Z
    ------   -----------------  -----------------  -----------------
       1        0.000004103256     0.000002569576    -0.000001061555
       2       -0.000011148000     0.000003822249    -0.000000856393
       3        0.000007127615    -0.000010058250     0.000034681569
       4        0.000016372853     0.000005086121    -0.000011532129
       5        0.000021046649    -0.000004632864     0.000002891083
       6       -0.000014511607     0.000004165719     0.000005375748
       7       -0.000136564434    -0.000828255831    -0.000540024949
       8        0.000010493256    -0.000001114096     0.000001108241
       9       -0.000005091262     0.000003261605    -0.000003747055
      10       -0.000026182191    -0.000006284556     0.000004546946
      11        0.000005439921    -0.000004913675    -0.000002253248
      12        0.000003211358     0.000002575330     0.000006100891
      13        0.000210259736     0.001153481147     0.000350410269
      14        0.000004989932     0.000003449086     0.000003137905
      15       -0.000006921778    -0.000002523275     0.000000820339
      16       -0.000177049058    -0.000350650497     0.001403513752
      17        0.000017826034     0.000001205044     0.000025566622
      18        0.000011271052    -0.000005660760    -0.000002577404
      19        0.000065326670     0.000034477927    -0.001276100630

  **** Optimization is complete! (in 5 steps) ****
    Final optimized geometry and variables:
    Molecular point group: c1

    Geometry (in Angstrom), charge = 0, multiplicity = 1:

    H            2.710099415957    -0.184988265454     0.498008533228
    N            1.731631915263     0.022383537244     0.528971243676
    C            0.958824626444    -1.198509543612     0.666110614922
    C            1.334687371696     0.771598893649    -0.649011544435
    H            1.280447720009    -1.720129130679     1.561410201097
    H            1.090599537895    -1.872971440664    -0.183332462865
    C           -0.516431509105    -0.846047013259     0.783086438527
    H            1.927438307838     1.678510894104    -0.705860831662
    H            1.489097046746     0.208952483711    -1.572799422450
    C           -0.139193099949     1.131344705178    -0.538385839360
    H           -0.680148514253    -0.309600669209     1.722636705027
    H           -1.101093868919    -1.759095491588     0.816861345339
    N           -0.937940934481    -0.066737404452    -0.365758829173
    H           -0.455711843130     1.631724042348    -1.447628016036
    H           -0.274065768449     1.831598461481     0.291494838001
    C           -2.371284404505     0.174597011441    -0.423638990129
    H           -2.798999733473    -0.238551718365    -1.332957307977
    H           -2.882404542256    -0.278835000715     0.419216519891
    H           -2.600645630042     1.236918528696    -0.407787493647

  Mulliken Charges: (a.u.)
   Center  Symbol    Alpha    Beta     Spin     Total
       1     H     0.32959  0.32959  0.00000  0.34082
       2     N     3.85432  3.85432  0.00000 -0.70864
       3     C     3.06359  3.06359  0.00000 -0.12718
       4     C     3.06350  3.06350  0.00000 -0.12699
       5     H     0.41807  0.41807  0.00000  0.16387
       6     H     0.42810  0.42810  0.00000  0.14380
       7     C     3.05309  3.05309  0.00000 -0.10618
       8     H     0.41805  0.41805  0.00000  0.16390
       9     H     0.42809  0.42809  0.00000  0.14382
      10     C     3.05332  3.05332  0.00000 -0.10664
      11     H     0.42877  0.42877  0.00000  0.14245
      12     H     0.41853  0.41853  0.00000  0.16295
      13     N     3.79442  3.79442  0.00000 -0.58884
      14     H     0.41845  0.41845  0.00000  0.16309
      15     H     0.42859  0.42859  0.00000  0.14283
      16     C     3.13881  3.13881  0.00000 -0.27761
      17     H     0.41707  0.41707  0.00000  0.16587
      18     H     0.42176  0.42176  0.00000  0.15648
      19     H     0.42389  0.42389  0.00000  0.15221

   Total alpha = 28.00000, Total beta = 28.00000, Total charge =  0.00000
