  ==> Input File <==

--------------------------------------------------------------------------
set {
	reference rhf
	basis cc-pvtz
}

set_num_threads( 4 )
memory 2 gb

molecule MOL {
0 1

H	 -0.000105	 1.988529	 0.748933
O	 -0.000098	 1.879786	 -0.188206
C	 -0.000014	 0.545691	 -0.532416
C	 -1.286000	 -0.125171	 -0.046657
C	 1.286016	 -0.125031	 -0.046584
H	 0.000021	 0.481103	 -1.610604
F	 -1.671735	 0.436870	 1.072350
F	 -2.263036	 -0.012652	 -0.910632
F	 -1.096965	 -1.404916	 0.193956
F	 2.317750	 0.468717	 -0.594166
F	 1.336617	 -1.393765	 -0.365123
F	 1.414467	 -0.024806	 1.259108

	symmetry c1
}
set optking {
	frozen_dihedral = ("
		7 4 3 6
	")
}

ee = optimize('scf')
oeprop('DIPOLE', 'QUADRUPOLE', 'MULLIKEN_CHARGES')
f=open( 'psi4out.xyz', 'w' )
f.write( "12  " )
f.write( str(ee) + "\n" )
f.write( MOL.save_string_xyz() )
f.close()
--------------------------------------------------------------------------

    Molecular point group: c1
  Charge       = 0
  Multiplicity = 1
  Basis Set: CC-PVTZ
  Basis Set:
  @DF-RHF Final Energy:  -786.58549335895839
    Total Energy =                       -786.5854933589578195
    Molecular point group: c1
  Basis Set: CC-PVTZ
  Basis Set:
  Basis Set: CC-PVTZ
  Basis Set:
  @DF-RHF Final Energy:  -786.58681365306961
    Total Energy =                       -786.5868136530701804
  Basis Set: CC-PVTZ
  Basis Set:
  Basis Set: CC-PVTZ
  Basis Set:
  @DF-RHF Final Energy:  -786.58731270210819
    Total Energy =                       -786.5873127021079654
  Basis Set: CC-PVTZ
  Basis Set:
  Basis Set: CC-PVTZ
  Basis Set:
  @DF-RHF Final Energy:  -786.58740814264036
    Total Energy =                       -786.5874081426403563
  Basis Set: CC-PVTZ
  Basis Set:
  Basis Set: CC-PVTZ
  Basis Set:
  @DF-RHF Final Energy:  -786.58742950824114
    Total Energy =                       -786.5874295082413710
  Basis Set: CC-PVTZ
  Basis Set:
  Basis Set: CC-PVTZ
  Basis Set:
  @DF-RHF Final Energy:  -786.58743304572727
    Total Energy =                       -786.5874330457265842
  Basis Set: CC-PVTZ
  Basis Set:
  Charge       = 0
  Multiplicity = 1
  Basis Set: CC-PVTZ
  Basis Set:

    Orbital Energies (a.u.)
    -----------------------

    Doubly Occupied:

       1A    -26.360107     2A    -26.359645     3A    -26.357837
       4A    -26.355708     5A    -26.354332     6A    -26.353014
       7A    -20.608323     8A    -11.522167     9A    -11.518262
      10A    -11.351466    11A     -1.772730    12A     -1.766301
      13A     -1.668635    14A     -1.663949    15A     -1.663011
      16A     -1.660530    17A     -1.438346    18A     -1.101799
      19A     -1.001923    20A     -0.944699    21A     -0.872495
      22A     -0.868057    23A     -0.859269    24A     -0.853305
      25A     -0.840946    26A     -0.822635    27A     -0.745668
      28A     -0.735563    29A     -0.732624    30A     -0.729129
      31A     -0.695146    32A     -0.692892    33A     -0.688682
      34A     -0.682643    35A     -0.677494    36A     -0.667702
      37A     -0.665268    38A     -0.654744    39A     -0.624485
      40A     -0.554534    41A     -0.509295

  @DF-RHF Final Energy:  -786.58743353851992

   => Energetics <=

    Nuclear Repulsion Energy =            670.5699253379725633
    One-Electron Energy =               -2428.3239947597703576
    Two-Electron Energy =                 971.1666358832781043
    DFT Exchange-Correlation Energy =       0.0000000000000000
    Empirical Dispersion Energy =           0.0000000000000000
    PCM Polarization Energy =               0.0000000000000000
    EFP Energy =                            0.0000000000000000
    Total Energy =                       -786.5874335385196900
    Molecular point group: c1
  Basis Set: CC-PVTZ
  Basis Set:

  -Total Gradient:
     Atom            X                  Y                   Z
    ------   -----------------  -----------------  -----------------
       1       -0.000001973999     0.000012151168     0.000003980359
       2        0.000014267402    -0.000042368405    -0.000000181171
       3        0.001938822964    -0.004117700964    -0.000293311619
       4        0.002438568477    -0.002546246020     0.002610661571
       5        0.000021157619     0.000028032756    -0.000083078907
       6       -0.002166069108     0.004071489617    -0.000294075983
       7       -0.002166623462     0.002505143292    -0.001985947003
       8       -0.000057191998     0.000015714397    -0.000052169357
       9        0.000003999687     0.000118244689     0.000007590097
      10       -0.000027541841    -0.000000807925     0.000010150090
      11       -0.000001803995    -0.000020364744     0.000025763362
      12        0.000004388239    -0.000023287859     0.000050618563

  **** Optimization is complete! (in 7 steps) ****
    Final optimized geometry and variables:
    Molecular point group: c1

    Geometry (in Angstrom), charge = 0, multiplicity = 1:

    H           -0.069641232625     2.035993883915     0.646900304962
    O            0.005976018375     1.877650921741    -0.279450367128
    C            0.002380555631     0.527811401597    -0.559291549413
    C           -1.281912554662    -0.124813197317    -0.016564995269
    C            1.288403169410    -0.130738577730    -0.063358679297
    H           -0.026754844589     0.442329277954    -1.634620185495
    F           -1.657364687590     0.445486519329     1.107499951382
    F           -2.255796549734     0.045276910931    -0.880772922576
    F           -1.158077719295    -1.408482225058     0.199940563719
    F            2.325362743979     0.539825456820    -0.496809685329
    F            1.401816016736    -1.363440540892    -0.491115411306
    F            1.338539228305    -0.142913833699     1.252674362451

  Mulliken Charges: (a.u.)
   Center  Symbol    Alpha    Beta     Spin     Total
       1     H     0.38064  0.38064  0.00000  0.23871
       2     O     4.18884  4.18884  0.00000 -0.37769
       3     C     3.01459  3.01459  0.00000 -0.02917
       4     C     2.67748  2.67748  0.00000  0.64504
       5     C     2.68157  2.68157  0.00000  0.63687
       6     H     0.42525  0.42525  0.00000  0.14950
       7     F     4.61052  4.61052  0.00000 -0.22104
       8     F     4.60457  4.60457  0.00000 -0.20914
       9     F     4.60012  4.60012  0.00000 -0.20023
      10     F     4.60063  4.60063  0.00000 -0.20126
      11     F     4.60416  4.60416  0.00000 -0.20832
      12     F     4.61163  4.61163  0.00000 -0.22326

   Total alpha = 41.00000, Total beta = 41.00000, Total charge =  0.00000
