  ==> Input File <==

--------------------------------------------------------------------------
set {
	reference rhf
	basis 6-31G*
}

set_num_threads( 1 )
memory 2 gb

molecule MOL {
0 1

H	 1.400401	 2.106838	 -3.276845
O	 2.305242	 1.830552	 -3.275758
C	 2.873769	 2.075855	 -2.014546
C	 2.383585	 1.114924	 -0.937022
H	 3.942205	 1.962962	 -2.146357
H	 2.692952	 3.105724	 -1.708840
C	 0.886680	 1.226745	 -0.637626
H	 2.618960	 0.100100	 -1.247018
H	 2.949757	 1.308181	 -0.027369
C	 0.436521	 0.288097	 0.485369
H	 0.324476	 1.007409	 -1.541055
H	 0.648405	 2.254028	 -0.361483
C	 -1.037909	 0.421283	 0.883687
H	 0.639128	 -0.741073	 0.194497
H	 1.049089	 0.480552	 1.363675
C	 -2.037799	 -0.007733	 -0.193645
H	 -1.207258	 -0.181464	 1.773537
H	 -1.240149	 1.451166	 1.173990
C	 -3.489788	 0.042957	 0.286558
H	 -1.803045	 -1.020389	 -0.518498
H	 -1.936234	 0.625221	 -1.071914
C	 -4.216917	 1.317354	 -0.141063
H	 -4.025645	 -0.823308	 -0.095450
H	 -3.513059	 -0.038752	 1.371301
H	 -4.239342	 1.411634	 -1.223113
H	 -5.243387	 1.322503	 0.212445
H	 -3.726170	 2.201406	 0.256408

	symmetry c1
}
set optking {
	frozen_dihedral = ("
		14 10 7 4,
		14 10 13 16,
		10 7 4 8,
		8 4 3 2,
		10 13 16 20,
		4 3 2 1
	")
}

ee = energy('scf')
oeprop('DIPOLE', 'QUADRUPOLE', 'MULLIKEN_CHARGES')
f=open( 'psi4out.xyz', 'w' )
f.write( "27  " )
f.write( str(ee) + "\n" )
f.write( MOL.save_string_xyz() )
f.close()
--------------------------------------------------------------------------

    Molecular point group: c1

    Geometry (in Angstrom), charge = 0, multiplicity = 1:

       Center              X                  Y                   Z               Mass
    ------------   -----------------  -----------------  -----------------  -----------------
           H          1.587148644705     1.156327477665    -2.611841119550     1.007825032070
           O          2.491989644705     0.880041477665    -2.610754119550    15.994914619560
           C          3.060516644705     1.125344477665    -1.349542119550    12.000000000000
           C          2.570332644705     0.164413477665    -0.272018119550    12.000000000000
           H          4.128952644705     1.012451477665    -1.481353119550     1.007825032070
           H          2.879699644705     2.155213477665    -1.043836119550     1.007825032070
           C          1.073427644705     0.276234477665     0.027377880450    12.000000000000
           H          2.805707644705    -0.850410522335    -0.582014119550     1.007825032070
           H          3.136504644705     0.357670477665     0.637634880450     1.007825032070
           C          0.623268644705    -0.662413522335     1.150372880450    12.000000000000
           H          0.511223644705     0.056898477665    -0.876051119550     1.007825032070
           H          0.835152644705     1.303517477665     0.303520880450     1.007825032070
           C         -0.851161355295    -0.529227522335     1.548690880450    12.000000000000
           H          0.825875644705    -1.691583522335     0.859500880450     1.007825032070
           H          1.235836644705    -0.469958522335     2.028678880450     1.007825032070
           C         -1.851051355295    -0.958243522335     0.471358880450    12.000000000000
           H         -1.020510355295    -1.131974522335     2.438540880450     1.007825032070
           H         -1.053401355295     0.500655477665     1.838993880450     1.007825032070
           C         -3.303040355295    -0.907553522335     0.951561880450    12.000000000000
           H         -1.616297355295    -1.970899522335     0.146505880450     1.007825032070
           H         -1.749486355295    -0.325289522335    -0.406910119550     1.007825032070
           C         -4.030169355295     0.366843477665     0.523940880450    12.000000000000
           H         -3.838897355295    -1.773818522335     0.569553880450     1.007825032070
           H         -3.326311355295    -0.989262522335     2.036304880450     1.007825032070
           H         -4.052594355295     0.461123477665    -0.558109119550     1.007825032070
           H         -5.056639355295     0.371992477665     0.877448880450     1.007825032070
           H         -3.539422355295     1.250895477665     0.921411880450     1.007825032070

  Charge       = 0
  Multiplicity = 1
  Basis Set: 6-31G*
  Basis Set:

    Orbital Energies (a.u.)
    -----------------------

    Doubly Occupied:

       1A    -20.552260     2A    -11.267023     3A    -11.219725
       4A    -11.217070     5A    -11.215927     6A    -11.215145
       7A    -11.214889     8A    -11.213148     9A    -11.209937
      10A     -1.359003    11A     -1.095556    12A     -1.061761
      13A     -1.010550    14A     -0.947533    15A     -0.889944
      16A     -0.823801    17A     -0.800932    18A     -0.775290
      19A     -0.693678    20A     -0.649805    21A     -0.622612
      22A     -0.618649    23A     -0.614049    24A     -0.588087
      25A     -0.580268    26A     -0.552615    27A     -0.534659
      28A     -0.530459    29A     -0.511107    30A     -0.490558
      31A     -0.488188    32A     -0.475931    33A     -0.471060
      34A     -0.453046    35A     -0.452402    36A     -0.441058
      37A     -0.422641

  @DF-RHF Final Energy:  -388.27723785882080

   => Energetics <=

    Nuclear Repulsion Energy =            462.7318499052175298
    One-Electron Energy =               -1443.4581584801449026
    Two-Electron Energy =                 592.4490707161078262
    DFT Exchange-Correlation Energy =       0.0000000000000000
    Empirical Dispersion Energy =           0.0000000000000000
    PCM Polarization Energy =               0.0000000000000000
    EFP Energy =                            0.0000000000000000
    Total Energy =                       -388.2772378588194897

  Mulliken Charges: (a.u.)
   Center  Symbol    Alpha    Beta     Spin     Total
       1     H     0.27990  0.27990  0.00000  0.44021
       2     O     4.37095  4.37095  0.00000 -0.74190
       3     C     2.99737  2.99737  0.00000  0.00526
       4     C     3.16091  3.16091  0.00000 -0.32183
       5     H     0.41445  0.41445  0.00000  0.17110
       6     H     0.43205  0.43205  0.00000  0.13590
       7     C     3.16327  3.16327  0.00000 -0.32653
       8     H     0.41497  0.41497  0.00000  0.17005
       9     H     0.42434  0.42434  0.00000  0.15132
      10     C     3.15223  3.15223  0.00000 -0.30445
      11     H     0.42288  0.42288  0.00000  0.15425
      12     H     0.42551  0.42551  0.00000  0.14897
      13     C     3.15501  3.15501  0.00000 -0.31002
      14     H     0.42155  0.42155  0.00000  0.15689
      15     H     0.42163  0.42163  0.00000  0.15675
      16     C     3.15599  3.15599  0.00000 -0.31198
      17     H     0.42063  0.42063  0.00000  0.15874
      18     H     0.42406  0.42406  0.00000  0.15188
      19     C     3.15402  3.15402  0.00000 -0.30805
      20     H     0.42115  0.42115  0.00000  0.15770
      21     H     0.42189  0.42189  0.00000  0.15621
      22     C     3.24007  3.24007  0.00000 -0.48014
      23     H     0.42006  0.42006  0.00000  0.15988
      24     H     0.42126  0.42126  0.00000  0.15749
      25     H     0.42184  0.42184  0.00000  0.15632
      26     H     0.41968  0.41968  0.00000  0.16065
      27     H     0.42233  0.42233  0.00000  0.15534

   Total alpha = 37.00000, Total beta = 37.00000, Total charge =  0.00000
