  ==> Input File <==

--------------------------------------------------------------------------
set {
	reference rhf
	basis 6-31G*
}

set_num_threads( 1 )
memory 2 gb

molecule MOL {
0 1

H	 2.631313	 -0.646716	 -0.693201
O	 2.016064	 -0.864478	 0.000222
C	 1.050492	 0.053836	 0.000068
C	 -0.318135	 -0.576402	 0.000164
O	 1.285279	 1.218255	 -0.000078
C	 -1.454360	 0.441875	 -0.000474
H	 -0.374042	 -1.230163	 -0.866135
H	 -0.374274	 -1.229227	 0.867154
C	 -2.826123	 -0.230780	 0.000056
H	 -1.357605	 1.085198	 -0.868380
H	 -1.357504	 1.086451	 0.866496
H	 -2.959731	 -0.858053	 -0.876869
H	 -3.619374	 0.509403	 -0.000080
H	 -2.959371	 -0.857318	 0.877556

	symmetry c1
}
set optking {
	frozen_dihedral = ("
		7 4 6 10,
		2 3 4 7
	")
}

ee = energy('scf')
oeprop('DIPOLE', 'QUADRUPOLE', 'MULLIKEN_CHARGES')
f=open( 'psi4out.xyz', 'w' )
f.write( "14  " )
f.write( str(ee) + "\n" )
f.write( MOL.save_string_xyz() )
f.close()
--------------------------------------------------------------------------

    Molecular point group: c1

    Geometry (in Angstrom), charge = 0, multiplicity = 1:

       Center              X                  Y                   Z               Mass
    ------------   -----------------  -----------------  -----------------  -----------------
           H          2.633863193903    -0.644033586962    -0.685264659399     1.007825032070
           O          2.018614193903    -0.861795586962     0.008158340601    15.994914619560
           C          1.053042193903     0.056518413038     0.008004340601    12.000000000000
           C         -0.315584806097    -0.573719586962     0.008100340601    12.000000000000
           O          1.287829193903     1.220937413038     0.007858340601    15.994914619560
           C         -1.451809806097     0.444557413038     0.007462340601    12.000000000000
           H         -0.371491806097    -1.227480586962    -0.858198659399     1.007825032070
           H         -0.371723806097    -1.226544586962     0.875090340601     1.007825032070
           C         -2.823572806097    -0.228097586962     0.007992340601    12.000000000000
           H         -1.355054806097     1.087880413038    -0.860443659399     1.007825032070
           H         -1.354953806097     1.089133413038     0.874432340601     1.007825032070
           H         -2.957180806097    -0.855370586962    -0.868932659399     1.007825032070
           H         -3.616823806097     0.512085413038     0.007856340601     1.007825032070
           H         -2.956820806097    -0.854635586962     0.885492340601     1.007825032070

  Charge       = 0
  Multiplicity = 1
  Basis Set: 6-31G*
  Basis Set:

    Orbital Energies (a.u.)
    -----------------------

    Doubly Occupied:

       1A    -20.604517     2A    -20.556215     3A    -11.380952
       4A    -11.240876     5A    -11.225147     6A    -11.217114
       7A     -1.472101     8A     -1.367157     9A     -1.082533
      10A     -0.977837    11A     -0.855047    12A     -0.793851
      13A     -0.705468    14A     -0.685446    15A     -0.665758
      16A     -0.628122    17A     -0.579672    18A     -0.566045
      19A     -0.544225    20A     -0.504210    21A     -0.493887
      22A     -0.482496    23A     -0.478262    24A     -0.444418

  @DF-RHF Final Energy:  -305.86804368423191

   => Energetics <=

    Nuclear Repulsion Energy =            239.9712395152210149
    One-Electron Energy =                -892.5759354591943975
    Two-Electron Energy =                 346.7366522597408220
    DFT Exchange-Correlation Energy =       0.0000000000000000
    Empirical Dispersion Energy =           0.0000000000000000
    PCM Polarization Energy =               0.0000000000000000
    EFP Energy =                            0.0000000000000000
    Total Energy =                       -305.8680436842325889

  Mulliken Charges: (a.u.)
   Center  Symbol    Alpha    Beta     Spin     Total
       1     H     0.26552  0.26552  0.00000  0.46896
       2     O     4.35504  4.35504  0.00000 -0.71009
       3     C     2.63119  2.63119  0.00000  0.73763
       4     C     3.20822  3.20822  0.00000 -0.41645
       5     O     4.26494  4.26494  0.00000 -0.52989
       6     C     3.15292  3.15292  0.00000 -0.30585
       7     H     0.40325  0.40325  0.00000  0.19350
       8     H     0.39830  0.39830  0.00000  0.20339
       9     C     3.24273  3.24273  0.00000 -0.48546
      10     H     0.41158  0.41158  0.00000  0.17685
      11     H     0.40952  0.40952  0.00000  0.18096
      12     H     0.42160  0.42160  0.00000  0.15681
      13     H     0.41458  0.41458  0.00000  0.17084
      14     H     0.42060  0.42060  0.00000  0.15880

   Total alpha = 24.00000, Total beta = 24.00000, Total charge = -0.00000
