  ==> Input File <==

--------------------------------------------------------------------------
set {
	reference rhf
	basis 6-31G*
}

set_num_threads( 4 )
memory 2 gb

molecule MOL {
0 1

H	 1.564490	 0.772007	 -3.128725
O	 2.102918	 0.933891	 -2.366106
C	 1.411889	 0.726126	 -1.227471
C	 2.084427	 0.928332	 -0.026326
C	 0.089045	 0.328399	 -1.222132
H	 3.112252	 1.237358	 -0.056966
C	 1.431416	 0.731997	 1.172879
H	 -0.453396	 0.165309	 -2.132454
C	 -0.536158	 0.140425	 0.000000
H	 1.958249	 0.890395	 2.095492
C	 0.102097	 0.332324	 1.204721
N	 -1.935604	 -0.280333	 0.000000
H	 -0.417885	 0.175986	 2.126992
O	 -2.161694	 -1.452901	 0.000000
O	 -2.770341	 0.571417	 0.000000

	symmetry c1
}
set optking {
	frozen_dihedral = ("
		11 9 12 14
	")
}

ee = optimize('scf')
oeprop('DIPOLE', 'QUADRUPOLE', 'MULLIKEN_CHARGES')
f=open( 'psi4out.xyz', 'w' )
f.write( "15  " )
f.write( str(ee) + "\n" )
f.write( MOL.save_string_xyz() )
f.close()
--------------------------------------------------------------------------

    Molecular point group: c1
  Charge       = 0
  Multiplicity = 1
  Basis Set: 6-31G*
  Basis Set:
  @DF-RHF Final Energy:  -509.01605830697332
    Total Energy =                       -509.0160583069732638
    Molecular point group: c1
  Basis Set: 6-31G*
  Basis Set:
  Basis Set: 6-31G*
  Basis Set:
  @DF-RHF Final Energy:  -509.01617849059619
    Total Energy =                       -509.0161784905960758
  Basis Set: 6-31G*
  Basis Set:
  Basis Set: 6-31G*
  Basis Set:
  @DF-RHF Final Energy:  -509.01599846161190
    Total Energy =                       -509.0159984616116162
  Basis Set: 6-31G*
  Basis Set:
  Basis Set: 6-31G*
  Basis Set:
  @DF-RHF Final Energy:  -509.01630359972216
    Total Energy =                       -509.0163035997213683
  Basis Set: 6-31G*
  Basis Set:
  Basis Set: 6-31G*
  Basis Set:
  @DF-RHF Final Energy:  -509.01631220264244
    Total Energy =                       -509.0163122026423252
  Basis Set: 6-31G*
  Basis Set:
  Charge       = 0
  Multiplicity = 1
  Basis Set: 6-31G*
  Basis Set:

    Orbital Energies (a.u.)
    -----------------------

    Doubly Occupied:

       1A    -20.618309     2A    -20.610629     3A    -20.610570
       4A    -15.859417     5A    -11.334036     6A    -11.317697
       7A    -11.269147     8A    -11.268683     9A    -11.262884
      10A    -11.253909    11A     -1.642501    12A     -1.439429
      13A     -1.426605    14A     -1.202625    15A     -1.095524
      16A     -1.048655    17A     -0.965569    18A     -0.884823
      19A     -0.830796    20A     -0.789358    21A     -0.764280
      22A     -0.734703    23A     -0.721034    24A     -0.710645
      25A     -0.668136    26A     -0.635542    27A     -0.618464
      28A     -0.592564    29A     -0.563978    30A     -0.549115
      31A     -0.534045    32A     -0.490982    33A     -0.484636
      34A     -0.455821    35A     -0.373646    36A     -0.343119

  @DF-RHF Final Energy:  -509.01631678086693

   => Energetics <=

    Nuclear Repulsion Energy =            502.4019589252336004
    One-Electron Energy =               -1690.8928079295658335
    Two-Electron Energy =                 679.4745322234656442
    DFT Exchange-Correlation Energy =       0.0000000000000000
    Empirical Dispersion Energy =           0.0000000000000000
    PCM Polarization Energy =               0.0000000000000000
    EFP Energy =                            0.0000000000000000
    Total Energy =                       -509.0163167808665321
    Molecular point group: c1
  Basis Set: 6-31G*
  Basis Set:

  -Total Gradient:
     Atom            X                  Y                   Z
    ------   -----------------  -----------------  -----------------
       1        0.000000741191     0.000000524509     0.000002153915
       2        0.000016659106     0.000008471904    -0.000027617456
       3       -0.000020135401    -0.000038886357    -0.000003782855
       4        0.000004427114     0.000028786543     0.000016932465
       5        0.000010949410     0.000016927911    -0.000048954409
       6       -0.000006556984    -0.000006197026    -0.000006895577
       7        0.000024114824     0.000001383948     0.000013746821
       8        0.000015439569     0.000004640500     0.000008131157
       9       -0.000010626895    -0.000031088643     0.000032692624
      10       -0.000001819884    -0.000003538801     0.000006663643
      11       -0.000024264673     0.000021088645     0.000008040527
      12       -0.000002258338     0.000062669443     0.000026750884
      13        0.000012584524     0.000001266151    -0.000005661364
      14       -0.000027581288    -0.000032910153    -0.000024584594
      15        0.000008327733    -0.000033138573     0.000002384228

  **** Optimization is complete! (in 6 steps) ****
    Final optimized geometry and variables:
    Molecular point group: c1

    Geometry (in Angstrom), charge = 0, multiplicity = 1:

    H            1.641612247263     0.493852179693    -2.838820288799
    O            2.178844200749     0.655402805028    -2.075389160349
    C            1.491183817929     0.448511692384    -0.937183848516
    C            2.164471605989     0.651109952306     0.263133374768
    C            0.165295610942     0.049844186086    -0.931435606284
    H            3.192026209863     0.960158335275     0.232188206538
    C            1.510624047731     0.454291201339     1.461151188894
    H           -0.375436091307    -0.112609744763    -1.846415960154
    C           -0.450273187401    -0.135568089600     0.290249238897
    H            2.037629282374     0.612748288201     2.383843464350
    C            0.179884322608     0.053928629484     1.494641286807
    N           -1.852074514319    -0.557059560093     0.287716107179
    H           -0.338539714886    -0.102239065550     2.421147986398
    O           -2.065794655171    -1.729101985488     0.286795578637
    O           -2.676675050476     0.302750028171     0.283723095980

  Mulliken Charges: (a.u.)
   Center  Symbol    Alpha    Beta     Spin     Total
       1     H     0.26739  0.26739  0.00000  0.46523
       2     O     4.37400  4.37400  0.00000 -0.74801
       3     C     2.78991  2.78991  0.00000  0.42019
       4     C     3.11701  3.11701  0.00000 -0.23402
       5     C     3.13495  3.13495  0.00000 -0.26989
       6     H     0.38244  0.38244  0.00000  0.23512
       7     C     3.09489  3.09489  0.00000 -0.18979
       8     H     0.38181  0.38181  0.00000  0.23638
       9     C     2.88604  2.88604  0.00000  0.22791
      10     H     0.38673  0.38673  0.00000  0.22655
      11     C     3.10244  3.10244  0.00000 -0.20487
      12     N     3.25723  3.25723  0.00000  0.48554
      13     H     0.37800  0.37800  0.00000  0.24399
      14     O     4.22359  4.22359  0.00000 -0.44718
      15     O     4.22358  4.22358  0.00000 -0.44715

   Total alpha = 36.00000, Total beta = 36.00000, Total charge = -0.00000
