  ==> Input File <==

--------------------------------------------------------------------------
set {
	reference rhf
	basis 6-31G*
}

set_num_threads( 4 )
memory 2 gb

molecule MOL {
0 1

H	 3.463771	 0.168298	 -0.756243
C	 2.752674	 -0.045734	 0.033351
C	 1.322923	 0.120767	 -0.479465
H	 2.934561	 -1.059086	 0.377456
H	 2.958358	 0.631174	 0.856809
C	 0.306652	 -0.176050	 0.621399
H	 1.144658	 -0.551717	 -1.312180
H	 1.166477	 1.131798	 -0.836680
N	 -1.068537	 -0.011044	 0.085269
H	 0.372515	 -1.192590	 0.973735
H	 0.391664	 0.520566	 1.441230
O	 -1.589756	 -0.968005	 -0.398392
O	 -1.545972	 1.080850	 0.147315

	symmetry c1
}
set optking {
	frozen_dihedral = ("
		12 9 6 3
	")
}

ee = optimize('scf')
oeprop('DIPOLE', 'QUADRUPOLE', 'MULLIKEN_CHARGES')
f=open( 'psi4out.xyz', 'w' )
f.write( "13  " )
f.write( str(ee) + "\n" )
f.write( MOL.save_string_xyz() )
f.close()
--------------------------------------------------------------------------

    Molecular point group: c1
  Charge       = 0
  Multiplicity = 1
  Basis Set: 6-31G*
  Basis Set:
  @DF-RHF Final Energy:  -321.73556706836814
    Total Energy =                       -321.7355670683680842
    Molecular point group: c1
  Basis Set: 6-31G*
  Basis Set:
  Basis Set: 6-31G*
  Basis Set:
  @DF-RHF Final Energy:  -321.72990298282826
    Total Energy =                       -321.7299029828282642
  Basis Set: 6-31G*
  Basis Set:
  Basis Set: 6-31G*
  Basis Set:
  @DF-RHF Final Energy:  -321.73538363725504
    Total Energy =                       -321.7353836372548130
  Basis Set: 6-31G*
  Basis Set:
  Basis Set: 6-31G*
  Basis Set:
  @DF-RHF Final Energy:  -321.73558123565476
    Total Energy =                       -321.7355812356547631
  Basis Set: 6-31G*
  Basis Set:
  Basis Set: 6-31G*
  Basis Set:
  @DF-RHF Final Energy:  -321.73558120796099
    Total Energy =                       -321.7355812079609905
  Basis Set: 6-31G*
  Basis Set:
  Basis Set: 6-31G*
  Basis Set:
  @DF-RHF Final Energy:  -321.73558285451395
    Total Energy =                       -321.7355828545139502
  Basis Set: 6-31G*
  Basis Set:
  Charge       = 0
  Multiplicity = 1
  Basis Set: 6-31G*
  Basis Set:

    Orbital Energies (a.u.)
    -----------------------

    Doubly Occupied:

       1A    -20.600480     2A    -20.600234     3A    -15.846764
       4A    -11.299122     5A    -11.257571     6A    -11.240266
       7A     -1.630337     8A     -1.415866     9A     -1.135670
      10A     -1.028602    11A     -0.884177    12A     -0.833498
      13A     -0.758084    14A     -0.734086    15A     -0.722746
      16A     -0.672878    17A     -0.604584    18A     -0.589292
      19A     -0.551040    20A     -0.521450    21A     -0.515646
      22A     -0.483344    23A     -0.473712    24A     -0.447606

  @DF-RHF Final Energy:  -321.73558290339292

   => Energetics <=

    Nuclear Repulsion Energy =            247.4474609348331740
    One-Electron Energy =                -928.6719754614642852
    Two-Electron Energy =                 359.4889316232382726
    DFT Exchange-Correlation Energy =       0.0000000000000000
    Empirical Dispersion Energy =           0.0000000000000000
    PCM Polarization Energy =               0.0000000000000000
    EFP Energy =                            0.0000000000000000
    Total Energy =                       -321.7355829033928103
    Molecular point group: c1
  Basis Set: 6-31G*
  Basis Set:

  -Total Gradient:
     Atom            X                  Y                   Z
    ------   -----------------  -----------------  -----------------
       1       -0.000002391018    -0.000002459356    -0.000001294185
       2       -0.000001293072    -0.000004364925     0.000001366678
       3       -0.000000492367    -0.000004053404    -0.000006305067
       4       -0.000002450541     0.000001893734     0.000003106955
       5        0.000002995186     0.000003612728    -0.000001153323
       6        0.000001932358    -0.000001049964    -0.000001237860
       7        0.000000156489     0.000003369347    -0.000005973387
       8       -0.000000293388    -0.000000069432     0.000006639242
       9       -0.000017064493    -0.000017734003    -0.000003692555
      10        0.000003154669    -0.000000978158     0.000001125928
      11       -0.000009508553     0.000001965494    -0.000002086700
      12        0.000019295329    -0.000002242471     0.000003416047
      13        0.000005959400     0.000022110411     0.000006088227

  **** Optimization is complete! (in 7 steps) ****
    Final optimized geometry and variables:
    Molecular point group: c1

    Geometry (in Angstrom), charge = 0, multiplicity = 1:

    H            3.461121760660     0.165606956723    -0.757880735283
    C            2.751279888057    -0.046433409992     0.033371850385
    C            1.320751803937     0.117337767486    -0.477937816345
    H            2.933890338372    -1.058845470013     0.379931306447
    H            2.957760883977     0.632787014471     0.854638888535
    C            0.305447197844    -0.178826478850     0.624393844453
    H            1.140818265422    -0.555306314653    -1.309398831321
    H            1.163861491508     1.128948680901    -0.835483792461
    N           -1.068192982932    -0.010088061160     0.086194996405
    H            0.369935162191    -1.198591629467     0.969025358325
    H            0.391993399229     0.512254620895     1.447828609005
    O           -1.586744280252    -0.968757220607    -0.398198441657
    O           -1.544771319323     1.082067943923     0.140651049161

  Mulliken Charges: (a.u.)
   Center  Symbol    Alpha    Beta     Spin     Total
       1     H     0.40724  0.40724  0.00000  0.18551
       2     C     3.24801  3.24801  0.00000 -0.49601
       3     C     3.17323  3.17323  0.00000 -0.34645
       4     H     0.41453  0.41453  0.00000  0.17094
       5     H     0.41452  0.41452  0.00000  0.17096
       6     C     3.08218  3.08218  0.00000 -0.16437
       7     H     0.39913  0.39913  0.00000  0.20175
       8     H     0.39869  0.39869  0.00000  0.20263
       9     N     3.22420  3.22420  0.00000  0.55160
      10     H     0.38848  0.38848  0.00000  0.22304
      11     H     0.38860  0.38860  0.00000  0.22280
      12     O     4.23050  4.23050  0.00000 -0.46099
      13     O     4.23071  4.23071  0.00000 -0.46141

   Total alpha = 24.00000, Total beta = 24.00000, Total charge = -0.00000
