  ==> Input File <==

--------------------------------------------------------------------------
set {
	reference rhf
	basis 6-31G*
}

set_num_threads( 1 )
memory 2 gb

molecule MOL {
0 1

H	 -2.558589	 -0.337547	 0.426253
N	 -1.852125	 0.165761	 -0.074816
C	 -0.563778	 -0.502042	 0.037919
H	 -1.809002	 1.082658	 0.327919
C	 0.575259	 0.508231	 -0.048326
H	 -0.482092	 -1.204004	 -0.786564
H	 -0.460411	 -1.085169	 0.956626
C	 1.954651	 -0.143624	 0.035137
H	 0.475158	 1.060484	 -0.977307
H	 0.469181	 1.234488	 0.755973
H	 2.103292	 -0.853109	 -0.774172
H	 2.742821	 0.599562	 -0.030094
H	 2.083613	 -0.679371	 0.971560

	symmetry c1
}
set optking {
	frozen_dihedral = ("
		6 3 5 9
	")
}

ee = energy('scf')
oeprop('DIPOLE', 'QUADRUPOLE', 'MULLIKEN_CHARGES')
f=open( 'psi4out.xyz', 'w' )
f.write( "13  " )
f.write( str(ee) + "\n" )
f.write( MOL.save_string_xyz() )
f.close()
--------------------------------------------------------------------------

    Molecular point group: c1

    Geometry (in Angstrom), charge = 0, multiplicity = 1:

       Center              X                  Y                   Z               Mass
    ------------   -----------------  -----------------  -----------------  -----------------
           H         -2.562688549156    -0.345816551280     0.424118213459     1.007825032070
           N         -1.856224549156     0.157491448720    -0.076950786541    14.003074004780
           C         -0.567877549156    -0.510311551280     0.035784213459    12.000000000000
           H         -1.813101549156     1.074388448720     0.325784213459     1.007825032070
           C          0.571159450844     0.499961448720    -0.050460786541    12.000000000000
           H         -0.486191549156    -1.212273551280    -0.788698786541     1.007825032070
           H         -0.464510549156    -1.093438551280     0.954491213459     1.007825032070
           C          1.950551450844    -0.151893551280     0.033002213459    12.000000000000
           H          0.471058450844     1.052214448720    -0.979441786541     1.007825032070
           H          0.465081450844     1.226218448720     0.753838213459     1.007825032070
           H          2.099192450844    -0.861378551280    -0.776306786541     1.007825032070
           H          2.738721450844     0.591292448720    -0.032228786541     1.007825032070
           H          2.079513450844    -0.687640551280     0.969425213459     1.007825032070

  Charge       = 0
  Multiplicity = 1
  Basis Set: 6-31G*
  Basis Set:

    Orbital Energies (a.u.)
    -----------------------

    Doubly Occupied:

       1A    -15.530805     2A    -11.239340     3A    -11.217624
       4A    -11.212121     5A     -1.176934     6A     -1.037239
       7A     -0.899243     8A     -0.805947     9A     -0.647772
      10A     -0.643475    11A     -0.603682    12A     -0.558174
      13A     -0.542292    14A     -0.496389    15A     -0.478583
      16A     -0.469590    17A     -0.379570

  @DF-RHF Final Energy:  -173.27982100988021

   => Energetics <=

    Nuclear Repulsion Energy =            131.9771032082155102
    One-Electron Energy =                -494.6362706603866854
    Two-Electron Energy =                 189.3793464422911086
    DFT Exchange-Correlation Energy =       0.0000000000000000
    Empirical Dispersion Energy =           0.0000000000000000
    PCM Polarization Energy =               0.0000000000000000
    EFP Energy =                            0.0000000000000000
    Total Energy =                       -173.2798210098800666

  Mulliken Charges: (a.u.)
   Center  Symbol    Alpha    Beta     Spin     Total
       1     H     0.33293  0.33293  0.00000  0.33414
       2     N     3.92555  3.92555  0.00000 -0.85109
       3     C     3.04962  3.04962  0.00000 -0.09923
       4     H     0.33451  0.33451  0.00000  0.33099
       5     C     3.16347  3.16347  0.00000 -0.32694
       6     H     0.42004  0.42004  0.00000  0.15993
       7     H     0.43391  0.43391  0.00000  0.13218
       8     C     3.24261  3.24261  0.00000 -0.48522
       9     H     0.41304  0.41304  0.00000  0.17392
      10     H     0.42639  0.42639  0.00000  0.14721
      11     H     0.41924  0.41924  0.00000  0.16152
      12     H     0.41749  0.41749  0.00000  0.16501
      13     H     0.42121  0.42121  0.00000  0.15757

   Total alpha = 17.00000, Total beta = 17.00000, Total charge =  0.00000
