  ==> Input File <==

--------------------------------------------------------------------------
set {
	reference rhf
	basis 6-31G*
}

set_num_threads( 1 )
memory 2 gb

molecule MOL {
0 1

H	 2.274902	 -0.201071	 -0.452756
O	 1.586534	 -0.678666	 -0.000226
C	 0.489431	 0.077273	 0.000046
C	 -0.764129	 -0.759190	 0.000191
O	 0.537743	 1.263962	 0.000257
C	 -2.038368	 0.075731	 -0.000248
H	 -0.717284	 -1.412404	 -0.866059
H	 -0.717458	 -1.411724	 0.866967
H	 -2.086483	 0.712501	 -0.875098
H	 -2.908485	 -0.571682	 -0.000042
H	 -2.086576	 0.713280	 0.874068

	symmetry c1
}
set optking {
	frozen_dihedral = ("
		2 3 4 7
	")
}

ee = energy('scf')
oeprop('DIPOLE', 'QUADRUPOLE', 'MULLIKEN_CHARGES')
f=open( 'psi4out.xyz', 'w' )
f.write( "11  " )
f.write( str(ee) + "\n" )
f.write( MOL.save_string_xyz() )
f.close()
--------------------------------------------------------------------------

    Molecular point group: c1

    Geometry (in Angstrom), charge = 0, multiplicity = 1:

       Center              X                  Y                   Z               Mass
    ------------   -----------------  -----------------  -----------------  -----------------
           H          2.275839179969    -0.199712737516    -0.446595544687     1.007825032070
           O          1.587471179969    -0.677307737516     0.005934455313    15.994914619560
           C          0.490368179969     0.078631262484     0.006206455313    12.000000000000
           C         -0.763191820031    -0.757831737516     0.006351455313    12.000000000000
           O          0.538680179969     1.265320262484     0.006417455313    15.994914619560
           C         -2.037430820031     0.077089262484     0.005912455313    12.000000000000
           H         -0.716346820031    -1.411045737516    -0.859898544687     1.007825032070
           H         -0.716520820031    -1.410365737516     0.873127455313     1.007825032070
           H         -2.085545820031     0.713859262484    -0.868937544687     1.007825032070
           H         -2.907547820031    -0.570323737516     0.006118455313     1.007825032070
           H         -2.085638820031     0.714638262484     0.880228455313     1.007825032070

  Charge       = 0
  Multiplicity = 1
  Basis Set: 6-31G*
  Basis Set:

    Orbital Energies (a.u.)
    -----------------------

    Doubly Occupied:

       1A    -20.610227     2A    -20.554284     3A    -11.381780
       4A    -11.243882     5A    -11.220165     6A     -1.474529
       7A     -1.367278     8A     -1.064786     9A     -0.915705
      10A     -0.802175    11A     -0.703938    12A     -0.688990
      13A     -0.662143    14A     -0.606247    15A     -0.580152
      16A     -0.530175    17A     -0.525684    18A     -0.504555
      19A     -0.480960    20A     -0.445862

  @DF-RHF Final Energy:  -266.84073896842466

   => Energetics <=

    Nuclear Repulsion Energy =            179.7755230749247630
    One-Electron Energy =                -720.5054864532705778
    Two-Electron Energy =                 273.8892244099200184
    DFT Exchange-Correlation Energy =       0.0000000000000000
    Empirical Dispersion Energy =           0.0000000000000000
    PCM Polarization Energy =               0.0000000000000000
    EFP Energy =                            0.0000000000000000
    Total Energy =                       -266.8407389684257964

  Mulliken Charges: (a.u.)
   Center  Symbol    Alpha    Beta     Spin     Total
       1     H     0.26664  0.26664  0.00000  0.46672
       2     O     4.35182  4.35182  0.00000 -0.70365
       3     C     2.62829  2.62829  0.00000  0.74343
       4     C     3.20776  3.20776  0.00000 -0.41553
       5     O     4.27297  4.27297  0.00000 -0.54593
       6     C     3.23971  3.23971  0.00000 -0.47941
       7     H     0.39992  0.39992  0.00000  0.20016
       8     H     0.39767  0.39767  0.00000  0.20466
       9     H     0.40982  0.40982  0.00000  0.18037
      10     H     0.41686  0.41686  0.00000  0.16628
      11     H     0.40854  0.40854  0.00000  0.18291

   Total alpha = 20.00000, Total beta = 20.00000, Total charge =  0.00000
