                              Psi4 1.0.54 Driver

  ==> Input File <==

--------------------------------------------------------------------------
set {
	reference rhf
	basis cc-pvtz
}

set_num_threads( 4 )
memory 2 gb

molecule MOL {
0 1

H	 -0.000105	 1.988529	 0.748933
O	 -0.000098	 1.879786	 -0.188206
C	 -0.000014	 0.545691	 -0.532416
C	 -1.286000	 -0.125171	 -0.046657
C	 1.286016	 -0.125031	 -0.046584
H	 0.000021	 0.481103	 -1.610604
F	 -2.148970	 -0.171695	 -1.031532
F	 -1.082448	 -1.350183	 0.367618
F	 -1.838238	 0.553444	 0.936139
F	 2.317750	 0.468717	 -0.594166
F	 1.336617	 -1.393765	 -0.365123
F	 1.414467	 -0.024806	 1.259108

	symmetry c1
}
set optking {
	frozen_dihedral = ("
		7 4 3 6
	")
}

ee,wfn = optimize('scf', return_wfn=True)
oeprop( wfn, 'DIPOLE', 'QUADRUPOLE', 'MULLIKEN_CHARGES')
f=open( 'psi4out.xyz', 'w' )
f.write( "12  " )
f.write( str(ee) + "\n" )
f.write( MOL.save_string_xyz() )
f.close()
--------------------------------------------------------------------------

    Molecular point group: c1
  Charge       = 0
  Multiplicity = 1
  Basis Set: CC-PVTZ
  Basis Set:
  @DF-RHF Final Energy:  -786.58435889706220
    Total Energy =                       -786.5843588970624296
    Molecular point group: c1
  Basis Set: CC-PVTZ
  Basis Set:
  Basis Set: CC-PVTZ
  Basis Set:
  @DF-RHF Final Energy:  -786.58512988183895
    Total Energy =                       -786.5851298818390660
  Basis Set: CC-PVTZ
  Basis Set:
  Basis Set: CC-PVTZ
  Basis Set:
  @DF-RHF Final Energy:  -786.58550949185883
    Total Energy =                       -786.5855094918586019
  Basis Set: CC-PVTZ
  Basis Set:
  Basis Set: CC-PVTZ
  Basis Set:
  @DF-RHF Final Energy:  -786.58555589780372
    Total Energy =                       -786.5855558978030331
  Basis Set: CC-PVTZ
  Basis Set:
  Basis Set: CC-PVTZ
  Basis Set:
  @DF-RHF Final Energy:  -786.58557355342805
    Total Energy =                       -786.5855735534277073
  Basis Set: CC-PVTZ
  Basis Set:
  Basis Set: CC-PVTZ
  Basis Set:
  @DF-RHF Final Energy:  -786.58557640401921
    Total Energy =                       -786.5855764040190934
  Basis Set: CC-PVTZ
  Basis Set:
  Charge       = 0
  Multiplicity = 1
  Basis Set: CC-PVTZ
  Basis Set:

    Orbital Energies (a.u.)
    -----------------------

    Doubly Occupied:

       1A    -26.361706     2A    -26.357265     3A    -26.356176
       4A    -26.356106     5A    -26.355239     6A    -26.352250
       7A    -20.607951     8A    -11.522827     9A    -11.517733
      10A    -11.351579    11A     -1.772791    12A     -1.765870
      13A     -1.667968    14A     -1.664245    15A     -1.663456
      16A     -1.659323    17A     -1.437821    18A     -1.100674
      19A     -1.001631    20A     -0.944312    21A     -0.872745
      22A     -0.867044    23A     -0.858647    24A     -0.853745
      25A     -0.841399    26A     -0.821728    27A     -0.742598
      28A     -0.737528    29A     -0.732736    30A     -0.729970
      31A     -0.695237    32A     -0.692205    33A     -0.687917
      34A     -0.683748    35A     -0.675972    36A     -0.668092
      37A     -0.663942    38A     -0.654011    39A     -0.624012
      40A     -0.553581    41A     -0.509078

  @DF-RHF Final Energy:  -786.58557683460583

   => Energetics <=

    Nuclear Repulsion Energy =            670.1695913477095701
    One-Electron Energy =               -2427.5446161785939694
    Two-Electron Energy =                 970.7894479962789092
    DFT Exchange-Correlation Energy =       0.0000000000000000
    Empirical Dispersion Energy =           0.0000000000000000
    PCM Polarization Energy =               0.0000000000000000
    EFP Energy =                            0.0000000000000000
    Total Energy =                       -786.5855768346053765
    Molecular point group: c1
  Basis Set: CC-PVTZ
  Basis Set:

  -Total Gradient:
     Atom            X                  Y                   Z
    ------   -----------------  -----------------  -----------------
       1       -0.000000626567     0.000008337238     0.000004890135
       2        0.000018725136    -0.000006854478     0.000007068103
       3        0.003229072054    -0.006041923591     0.000283588919
       4       -0.002400955810     0.005536114614     0.001136341656
       5       -0.000013523804    -0.000005607403    -0.000088394767
       6       -0.002335126101     0.004136923722    -0.000456528449
       7        0.001474213665    -0.003597425221    -0.000924911365
       8        0.000019625139    -0.000041666847    -0.000011741327
       9        0.000000581083     0.000001132648    -0.000036789327
      10       -0.000010590330    -0.000000506280     0.000019083804
      11        0.000003298933     0.000022627000     0.000030999885
      12        0.000015306601    -0.000011151391     0.000036392728

  **** Optimization is complete! (in 7 steps) ****
    Final optimized geometry and variables:
    Molecular point group: c1

    Geometry (in Angstrom), charge = 0, multiplicity = 1:

    H           -0.132676653211     2.065940378902     0.586100668938
    O           -0.013722759677     1.879269749926    -0.330167022528
    C            0.007378804809     0.521586764188    -0.569551105322
    C           -1.285081876146    -0.150035040236    -0.051006334468
    C            1.291021198938    -0.097849527020    -0.020405735604
    H            0.014138823049     0.408915640968    -1.642364688471
    F           -2.155327732487    -0.259862154731    -1.026748826284
    F           -1.077172700753    -1.356841400235     0.418764154507
    F           -1.832376522829     0.557006447469     0.909515931169
    F            2.326348916072     0.568528065620    -0.465192579040
    F            1.430123034391    -1.345755584126    -0.392627300761
    F            1.317834336510    -0.049413240681     1.295144438665

  Mulliken Charges: (a.u.)
   Center  Symbol    Alpha    Beta     Spin     Total
       1     H     0.38092  0.38092  0.00000  0.23817
       2     O     4.18744  4.18744  0.00000 -0.37488
       3     C     3.02017  3.02017  0.00000 -0.04035
       4     C     2.67442  2.67442  0.00000  0.65115
       5     C     2.67943  2.67943  0.00000  0.64113
       6     H     0.42626  0.42626  0.00000  0.14748
       7     F     4.60410  4.60410  0.00000 -0.20821
       8     F     4.60213  4.60213  0.00000 -0.20427
       9     F     4.60795  4.60795  0.00000 -0.21590
      10     F     4.60074  4.60074  0.00000 -0.20149
      11     F     4.60446  4.60446  0.00000 -0.20892
      12     F     4.61197  4.61197  0.00000 -0.22393

   Total alpha = 41.00000, Total beta = 41.00000, Total charge = -0.00000

*** Psi4 exiting successfully. Buy a developer a beer!
