  ==> Input File <==

--------------------------------------------------------------------------
set {
	reference rhf
	basis 6-31G*
}

set_num_threads( 4 )
memory 2 gb

molecule MOL {
0 1

H	 2.591676	 2.013956	 0.335017
O	 3.341076	 1.666752	 -0.126416
C	 3.569581	 0.339145	 0.272707
C	 2.539767	 -0.640285	 -0.279495
H	 4.553106	 0.084646	 -0.100901
H	 3.608576	 0.269204	 1.359154
C	 2.758458	 -1.010899	 -1.748402
H	 2.557649	 -1.539764	 0.330411
H	 1.552560	 -0.196569	 -0.161578
C	 1.678003	 -1.952379	 -2.287894
H	 3.733609	 -1.477283	 -1.857634
H	 2.775329	 -0.103411	 -2.352157
C	 1.801815	 -2.287464	 -3.778776
H	 1.685768	 -2.874732	 -1.709922
H	 0.705020	 -1.496450	 -2.117210
C	 3.037043	 -3.110888	 -4.153826
H	 0.913333	 -2.838486	 -4.080091
H	 1.794598	 -1.364364	 -4.356420
C	 3.061825	 -3.509371	 -5.630997
H	 3.069334	 -4.009734	 -3.539705
H	 3.942101	 -2.553194	 -3.925463
C	 4.296997	 -4.325941	 -6.009449
H	 2.166233	 -4.081058	 -5.864614
H	 3.019810	 -2.612928	 -6.246228
H	 4.350292	 -5.245813	 -5.433932
H	 4.284387	 -4.594473	 -7.061289
H	 5.209572	 -3.766951	 -5.822100

	symmetry c1
}
set optking {
	frozen_dihedral = ("
		8 4 3 2
	")
}

ee = optimize('scf')
oeprop('DIPOLE', 'QUADRUPOLE', 'MULLIKEN_CHARGES')
f=open( 'psi4out.xyz', 'w' )
f.write( "27  " )
f.write( str(ee) + "\n" )
f.write( MOL.save_string_xyz() )
f.close()
--------------------------------------------------------------------------

    Molecular point group: c1
  Charge       = 0
  Multiplicity = 1
  Basis Set: 6-31G*
  Basis Set:
  @DF-RHF Final Energy:  -388.28066812187490
    Total Energy =                       -388.2806681218745553
    Molecular point group: c1
  Basis Set: 6-31G*
  Basis Set:
  Basis Set: 6-31G*
  Basis Set:
  @DF-RHF Final Energy:  -388.28102590565635
    Total Energy =                       -388.2810259056559516
  Basis Set: 6-31G*
  Basis Set:
  Basis Set: 6-31G*
  Basis Set:
  @DF-RHF Final Energy:  -388.28106057888385
    Total Energy =                       -388.2810605788833982
  Basis Set: 6-31G*
  Basis Set:
  Charge       = 0
  Multiplicity = 1
  Basis Set: 6-31G*
  Basis Set:

    Orbital Energies (a.u.)
    -----------------------

    Doubly Occupied:

       1A    -20.552605     2A    -11.267511     3A    -11.217530
       4A    -11.213592     5A    -11.213267     6A    -11.212242
       7A    -11.212088     8A    -11.210934     9A    -11.207049
      10A     -1.359404    11A     -1.091745    12A     -1.059145
      13A     -1.009512    14A     -0.944650    15A     -0.883337
      16A     -0.822086    17A     -0.802307    18A     -0.775601
      19A     -0.680341    20A     -0.650485    21A     -0.637602
      22A     -0.611212    23A     -0.607163    24A     -0.583550
      25A     -0.572266    26A     -0.556536    27A     -0.536776
      28A     -0.518084    29A     -0.512315    30A     -0.489894
      31A     -0.479362    32A     -0.474166    33A     -0.464547
      34A     -0.457125    35A     -0.454417    36A     -0.440586
      37A     -0.418853

  @DF-RHF Final Energy:  -388.28106032459277

   => Energetics <=

    Nuclear Repulsion Energy =            457.3880013948623855
    One-Electron Energy =               -1432.9383558681606701
    Two-Electron Energy =                 587.2692941487050575
    DFT Exchange-Correlation Energy =       0.0000000000000000
    Empirical Dispersion Energy =           0.0000000000000000
    PCM Polarization Energy =               0.0000000000000000
    EFP Energy =                            0.0000000000000000
    Total Energy =                       -388.2810603245932271
    Molecular point group: c1
  Basis Set: 6-31G*
  Basis Set:

  -Total Gradient:
     Atom            X                  Y                   Z
    ------   -----------------  -----------------  -----------------
       1       -0.000008755931    -0.000029035692    -0.000005855073
       2       -0.001740200831     0.000683807822     0.002264764665
       3        0.001472156350    -0.000266685689    -0.002573897716
       4        0.003028856525    -0.001752445559    -0.002230780539
       5       -0.000124126131     0.000036168827    -0.000051419887
       6        0.000128175628    -0.000150662143     0.000104923876
       7       -0.000001405298    -0.000186617511    -0.000046805242
       8       -0.002804727414     0.001630547218     0.002311839607
       9       -0.000091791991     0.000031482427     0.000193946448
      10        0.000049093346     0.000071524537     0.000012871564
      11       -0.000026474684    -0.000073977821    -0.000051421131
      12        0.000065127008    -0.000093319520     0.000100152463
      13       -0.000009538423     0.000041511668    -0.000043650009
      14        0.000065012400     0.000032677419     0.000000437175
      15        0.000003359239     0.000029584824     0.000073224657
      16        0.000016222055     0.000011235185    -0.000004966120
      17       -0.000001462243     0.000003768122    -0.000015750655
      18        0.000005384886    -0.000000276618    -0.000021144975
      19       -0.000004529845     0.000004840418    -0.000001574005
      20        0.000008112836     0.000001322268     0.000005140579
      21       -0.000022619097    -0.000015741541    -0.000021335033
      22       -0.000005565231    -0.000009816230     0.000004819666
      23       -0.000004475635     0.000004894187    -0.000003713112
      24        0.000006045670     0.000001026448    -0.000000516448
      25        0.000004483654    -0.000003862909     0.000000601105
      26       -0.000002676403    -0.000003523740     0.000000951979
      27       -0.000003680437     0.000001573603    -0.000000843841

  **** Optimization is complete! (in 4 steps) ****
    Final optimized geometry and variables:
    Molecular point group: c1

    Geometry (in Angstrom), charge = 0, multiplicity = 1:

    H           -0.430150147895     3.548685565548     2.761440576406
    O            0.403939450348     3.257204602549     2.420880264100
    C            0.656014726304     1.951630125106     2.876202912653
    C           -0.352461315735     0.936153605233     2.343671617142
    H            1.657026356702     1.707770221818     2.543671296805
    H            0.664028898643     1.931374341091     3.964767515842
    C           -0.135047522956     0.565604987591     0.876869844081
    H           -0.339835903900     0.051855307677     2.978154895256
    H           -1.350414083528     1.358546111158     2.467784549992
    C           -1.227065818931    -0.354346782414     0.325755579208
    H            0.838112012049     0.091634371343     0.776732507912
    H           -0.096026677453     1.478898479152     0.288764190608
    C           -1.104262380395    -0.673225064027    -1.168928578346
    H           -1.236254288785    -1.284555851169     0.892129157458
    H           -2.194260718043     0.113706783599     0.498298681741
    C            0.119082074444    -1.511395685273    -1.549916875680
    H           -2.000442325083    -1.205937165162    -1.480702473615
    H           -1.093590837494     0.257361672209    -1.733973442420
    C            0.142892291428    -1.891744759155    -3.031876460866
    H            0.134543828678    -2.418673164857    -0.947245731151
    H            1.031425711247    -0.970610869998    -1.311277448074
    C            1.364275440621    -2.726500451680    -3.415425835662
    H           -0.762231158934    -2.443516291030    -3.276782932910
    H            0.120763490816    -0.986938815578    -3.635670831366
    H            1.397775829089    -3.654505904774    -2.851423931595
    H            1.351494669442    -2.981554787778    -4.470661640056
    H            2.286100031832    -2.186942605156    -3.216987228755

  Mulliken Charges: (a.u.)
   Center  Symbol    Alpha    Beta     Spin     Total
       1     H     0.28325  0.28325  0.00000  0.43350
       2     O     4.36909  4.36909  0.00000 -0.73817
       3     C     2.99742  2.99742  0.00000  0.00516
       4     C     3.16534  3.16534  0.00000 -0.33069
       5     H     0.41589  0.41589  0.00000  0.16821
       6     H     0.42867  0.42867  0.00000  0.14265
       7     C     3.15658  3.15658  0.00000 -0.31317
       8     H     0.42229  0.42229  0.00000  0.15543
       9     H     0.42862  0.42862  0.00000  0.14276
      10     C     3.15327  3.15327  0.00000 -0.30655
      11     H     0.42128  0.42128  0.00000  0.15744
      12     H     0.41234  0.41234  0.00000  0.17532
      13     C     3.15312  3.15312  0.00000 -0.30623
      14     H     0.42485  0.42485  0.00000  0.15030
      15     H     0.42282  0.42282  0.00000  0.15435
      16     C     3.15269  3.15269  0.00000 -0.30538
      17     H     0.42247  0.42247  0.00000  0.15505
      18     H     0.42298  0.42298  0.00000  0.15405
      19     C     3.15116  3.15116  0.00000 -0.30231
      20     H     0.42526  0.42526  0.00000  0.14949
      21     H     0.42153  0.42153  0.00000  0.15694
      22     C     3.23914  3.23914  0.00000 -0.47828
      23     H     0.42354  0.42354  0.00000  0.15293
      24     H     0.42275  0.42275  0.00000  0.15449
      25     H     0.42224  0.42224  0.00000  0.15551
      26     H     0.41961  0.41961  0.00000  0.16078
      27     H     0.42179  0.42179  0.00000  0.15642

   Total alpha = 37.00000, Total beta = 37.00000, Total charge = -0.00000
