  ==> Input File <==

--------------------------------------------------------------------------
set {
	reference rhf
	basis 6-31G*
}

set_num_threads( 4 )
memory 2 gb

molecule MOL {
0 1

H	 -2.698709	 -0.000305	 0.034435
C	 -1.693833	 0.000034	 0.434417
O	 -0.828952	 -0.000968	 -0.659236
H	 -1.574200	 0.882896	 1.055746
H	 -1.574147	 -0.881698	 1.057355
C	 0.559449	 -0.000018	 -0.420814
C	 1.110944	 1.403831	 -0.180026
C	 0.965377	 -0.979659	 0.678496
H	 0.970155	 -0.361916	 -1.355898
H	 0.761920	 2.082439	 -0.950883
H	 2.195910	 1.386070	 -0.207722
H	 0.815972	 1.801179	 0.786034
H	 0.515035	 -1.950534	 0.502285
H	 2.044079	 -1.101266	 0.687386
H	 0.667843	 -0.637350	 1.664467

	symmetry c1
}
set optking {
	frozen_dihedral = ("
		9 6 3 2
	")
}

ee = optimize('scf')
oeprop('DIPOLE', 'QUADRUPOLE', 'MULLIKEN_CHARGES')
f=open( 'psi4out.xyz', 'w' )
f.write( "15  " )
f.write( str(ee) + "\n" )
f.write( MOL.save_string_xyz() )
f.close()
--------------------------------------------------------------------------

    Molecular point group: c1
  Charge       = 0
  Multiplicity = 1
  Basis Set: 6-31G*
  Basis Set:
  @DF-RHF Final Energy:  -232.13652013727801
    Total Energy =                       -232.1365201372779552
    Molecular point group: c1
  Basis Set: 6-31G*
  Basis Set:
  Basis Set: 6-31G*
  Basis Set:
  @DF-RHF Final Energy:  -232.13693893150855
    Total Energy =                       -232.1369389315087233
  Basis Set: 6-31G*
  Basis Set:
  Basis Set: 6-31G*
  Basis Set:
  @DF-RHF Final Energy:  -232.13706612278284
    Total Energy =                       -232.1370661227828123
  Basis Set: 6-31G*
  Basis Set:
  Basis Set: 6-31G*
  Basis Set:
  @DF-RHF Final Energy:  -232.13708276652267
    Total Energy =                       -232.1370827665225534
  Basis Set: 6-31G*
  Basis Set:
  Basis Set: 6-31G*
  Basis Set:
  @DF-RHF Final Energy:  -232.13709247478937
    Total Energy =                       -232.1370924747894833
  Basis Set: 6-31G*
  Basis Set:
  Basis Set: 6-31G*
  Basis Set:
  @DF-RHF Final Energy:  -232.13709399608234
    Total Energy =                       -232.1370939960825126
  Basis Set: 6-31G*
  Basis Set:
  Charge       = 0
  Multiplicity = 1
  Basis Set: 6-31G*
  Basis Set:

    Orbital Energies (a.u.)
    -----------------------

    Doubly Occupied:

       1A    -20.547716     2A    -11.274348     3A    -11.261630
       4A    -11.213123     5A    -11.208197     6A     -1.369807
       7A     -1.050706     8A     -0.943006     9A     -0.927427
      10A     -0.781216    11A     -0.674877    12A     -0.641535
      13A     -0.632661    14A     -0.574777    15A     -0.559750
      16A     -0.552447    17A     -0.534803    18A     -0.502085
      19A     -0.494987    20A     -0.443857    21A     -0.404576

  @DF-RHF Final Energy:  -232.13709414456449

   => Energetics <=

    Nuclear Repulsion Energy =            198.7851859051588406
    One-Electron Energy =                -708.6575037324416826
    Two-Electron Energy =                 277.7352236827184129
    DFT Exchange-Correlation Energy =       0.0000000000000000
    Empirical Dispersion Energy =           0.0000000000000000
    PCM Polarization Energy =               0.0000000000000000
    EFP Energy =                            0.0000000000000000
    Total Energy =                       -232.1370941445644007
    Molecular point group: c1
  Basis Set: 6-31G*
  Basis Set:

  -Total Gradient:
     Atom            X                  Y                   Z
    ------   -----------------  -----------------  -----------------
       1        0.000005381843    -0.000002953063    -0.000011887305
       2       -0.000008425496    -0.002111614353     0.000033646841
       3        0.000022706206     0.002700029201     0.000116832950
       4        0.000008542167     0.000009410780     0.000004862659
       5       -0.000000940725     0.000006475604    -0.000008356843
       6        0.000163926965     0.001692298175    -0.000991291273
       7       -0.000021878241     0.000003937633    -0.000005157083
       8        0.000006895322    -0.000008762808     0.000008230741
       9       -0.000171302791    -0.002279885014     0.000850273729
      10       -0.000000866192     0.000007848036     0.000000630430
      11        0.000002155901    -0.000009807065    -0.000003957644
      12       -0.000005217522    -0.000001974783     0.000000549269
      13        0.000005659426    -0.000006095353     0.000001209755
      14       -0.000006143829     0.000001125944     0.000000170319
      15       -0.000000493034    -0.000000032936     0.000004243457

  **** Optimization is complete! (in 7 steps) ****
    Final optimized geometry and variables:
    Molecular point group: c1

    Geometry (in Angstrom), charge = 0, multiplicity = 1:

    H           -2.691495639632     0.077743712072     0.060025842277
    C           -1.694584251549    -0.067947574221     0.453751630782
    O           -0.831706287376    -0.090489685707    -0.640878914496
    H           -1.476730980455     0.746517536894     1.140292682656
    H           -1.677715245654    -1.001238066009     1.008186492800
    C            0.559119630241    -0.099320562708    -0.407624113595
    C            1.078370940889     1.316250006184    -0.174833855626
    C            0.990052544114    -1.064803103712     0.695499612209
    H            0.972236121859    -0.475893757684    -1.336112564466
    H            0.766027235433     1.965204982250    -0.985048551258
    H            2.163162957968     1.323945033229    -0.126730169917
    H            0.702903366073     1.730575138145     0.756011986804
    H            0.574180827654    -2.052441692956     0.526200268981
    H            2.071784563925    -1.152222294883     0.697920607898
    H            0.686847768921    -0.728355752269     1.681756441792

  Mulliken Charges: (a.u.)
   Center  Symbol    Alpha    Beta     Spin     Total
       1     H     0.41245  0.41245  0.00000  0.17511
       2     C     3.08049  3.08049  0.00000 -0.16098
       3     O     4.31350  4.31350  0.00000 -0.62700
       4     H     0.43156  0.43156  0.00000  0.13688
       5     H     0.42764  0.42764  0.00000  0.14471
       6     C     2.90822  2.90822  0.00000  0.18356
       7     C     3.24550  3.24550  0.00000 -0.49099
       8     C     3.25951  3.25951  0.00000 -0.51902
       9     H     0.41624  0.41624  0.00000  0.16751
      10     H     0.41132  0.41132  0.00000  0.17736
      11     H     0.42254  0.42254  0.00000  0.15492
      12     H     0.42225  0.42225  0.00000  0.15549
      13     H     0.41215  0.41215  0.00000  0.17570
      14     H     0.41668  0.41668  0.00000  0.16665
      15     H     0.41996  0.41996  0.00000  0.16009

   Total alpha = 21.00000, Total beta = 21.00000, Total charge = -0.00000
