  ==> Input File <==

--------------------------------------------------------------------------
set {
	reference rhf
	basis 6-31G*
}

set_num_threads( 4 )
memory 2 gb

molecule MOL {
0 1

H	 3.761792	 0.210836	 -0.657978
N	 3.092854	 -0.246221	 -0.068770
C	 1.865559	 0.531981	 0.018834
H	 3.516918	 -0.335952	 0.835082
C	 0.645745	 -0.382037	 -0.029944
H	 1.841966	 1.207024	 -0.831236
H	 1.815756	 1.155410	 0.915079
C	 -0.679275	 0.379305	 0.025956
H	 0.698998	 -0.976915	 -0.937203
H	 0.693479	 -1.083846	 0.802235
C	 -1.903357	 -0.536963	 -0.023547
H	 -0.726309	 1.082987	 -0.803784
H	 -0.717680	 0.977832	 0.934877
C	 -3.225172	 0.228290	 0.028445
H	 -1.867824	 -1.134999	 -0.931459
H	 -1.860449	 -1.239604	 0.805977
H	 -3.313397	 0.915643	 -0.808262
H	 -4.073500	 -0.448134	 -0.008893
H	 -3.306061	 0.809945	 0.942516

	symmetry c1
}
set optking {
	frozen_dihedral = ("
		1 2 3 6
	")
}

ee = optimize('scf')
oeprop('DIPOLE', 'QUADRUPOLE', 'MULLIKEN_CHARGES')
f=open( 'psi4out.xyz', 'w' )
f.write( "19  " )
f.write( str(ee) + "\n" )
f.write( MOL.save_string_xyz() )
f.close()
--------------------------------------------------------------------------

    Molecular point group: c1
  Charge       = 0
  Multiplicity = 1
  Basis Set: 6-31G*
  Basis Set:
  @DF-RHF Final Energy:  -251.34905329897629
    Total Energy =                       -251.3490532989762869
    Molecular point group: c1
  Basis Set: 6-31G*
  Basis Set:
  Basis Set: 6-31G*
  Basis Set:
  @DF-RHF Final Energy:  -251.34938262490732
    Total Energy =                       -251.3493826249072640
  Basis Set: 6-31G*
  Basis Set:
  Basis Set: 6-31G*
  Basis Set:
  @DF-RHF Final Energy:  -251.34949237259644
    Total Energy =                       -251.3494923725965009
  Basis Set: 6-31G*
  Basis Set:
  Basis Set: 6-31G*
  Basis Set:
  @DF-RHF Final Energy:  -251.34949484395094
    Total Energy =                       -251.3494948439510495
  Basis Set: 6-31G*
  Basis Set:
  Basis Set: 6-31G*
  Basis Set:
  @DF-RHF Final Energy:  -251.34949587266721
    Total Energy =                       -251.3494958726671484
  Basis Set: 6-31G*
  Basis Set:
  Charge       = 0
  Multiplicity = 1
  Basis Set: 6-31G*
  Basis Set:

    Orbital Energies (a.u.)
    -----------------------

    Doubly Occupied:

       1A    -15.530296     2A    -11.240214     3A    -11.211972
       4A    -11.210020     5A    -11.206090     6A    -11.203763
       7A     -1.173021     8A     -1.070605     9A     -0.996668
      10A     -0.899452    11A     -0.810589    12A     -0.785639
      13A     -0.674293    14A     -0.635606    15A     -0.614180
      16A     -0.580108    17A     -0.567289    18A     -0.553406
      19A     -0.519443    20A     -0.503454    21A     -0.473420
      22A     -0.462536    23A     -0.457663    24A     -0.454171
      25A     -0.375070

  @DF-RHF Final Energy:  -251.34949606332765

   => Energetics <=

    Nuclear Repulsion Energy =            245.2505438373331117
    One-Electron Energy =                -824.7821419911223302
    Two-Electron Energy =                 328.1821020904617399
    DFT Exchange-Correlation Energy =       0.0000000000000000
    Empirical Dispersion Energy =           0.0000000000000000
    PCM Polarization Energy =               0.0000000000000000
    EFP Energy =                            0.0000000000000000
    Total Energy =                       -251.3494960633274786
    Molecular point group: c1
  Basis Set: 6-31G*
  Basis Set:

  -Total Gradient:
     Atom            X                  Y                   Z
    ------   -----------------  -----------------  -----------------
       1       -0.000913195601    -0.001318155644    -0.002160928854
       2        0.001394376967     0.002068750656     0.003024661534
       3       -0.001574585945    -0.002455377455    -0.002200071800
       4       -0.000003161597    -0.000003990404    -0.000002481066
       5        0.000018630743     0.000023850928    -0.000003378373
       6        0.001100175808     0.001684877207     0.001338117337
       7       -0.000000646767     0.000018260860     0.000018612431
       8       -0.000013751308    -0.000012494024    -0.000016230663
       9       -0.000008462735    -0.000002509384     0.000003551856
      10        0.000000861267    -0.000004167738     0.000003454285
      11       -0.000008918513     0.000005635150    -0.000001783039
      12        0.000000544183    -0.000001453580    -0.000005962501
      13        0.000001565135    -0.000002972646    -0.000007120831
      14        0.000002857747    -0.000000939425     0.000009456827
      15       -0.000000474271     0.000004751716    -0.000002221740
      16        0.000002968566    -0.000004415741    -0.000000263440
      17        0.000001624710    -0.000001659630    -0.000000298650
      18        0.000002035283    -0.000000497619     0.000001874375
      19       -0.000002443669     0.000002506774     0.000001012311

  **** Optimization is complete! (in 6 steps) ****
    Final optimized geometry and variables:
    Molecular point group: c1

    Geometry (in Angstrom), charge = 0, multiplicity = 1:

    H            3.795423815108     0.215160654651    -0.608797666971
    N            3.103054605017    -0.236364886148    -0.047750012966
    C            1.861290564170     0.527624021787     0.005570033701
    H            3.489221212572    -0.390351921071     0.861171382807
    C            0.641333406590    -0.387339050837    -0.034873632342
    H            1.838493459418     1.213062996142    -0.836617273165
    H            1.810282875085     1.156678738056     0.895477608259
    C           -0.684213952434     0.372579442955     0.025250302880
    H            0.691181297287    -0.985929889435    -0.940145640506
    H            0.701656405014    -1.086791083232     0.796834337443
    C           -1.908426261470    -0.544001897941    -0.015771517286
    H           -0.737197851996     1.075436920491    -0.805394024162
    H           -0.719125795802     0.973617238961     0.933060176240
    C           -3.230554959410     0.220087524265     0.044754916632
    H           -1.878572940453    -1.142560502465    -0.923546950444
    H           -1.859213394219    -1.246307988825     0.813593496224
    H           -3.325294554886     0.906729335401    -0.791880704605
    H           -4.078763865674    -0.456968304490     0.014010509425
    H           -3.305545804503     0.802564566312     0.958851682454

  Mulliken Charges: (a.u.)
   Center  Symbol    Alpha    Beta     Spin     Total
       1     H     0.33036  0.33036  0.00000  0.33927
       2     N     3.92828  3.92828  0.00000 -0.85656
       3     C     3.06502  3.06502  0.00000 -0.13004
       4     H     0.33182  0.33182  0.00000  0.33637
       5     C     3.14120  3.14120  0.00000 -0.28239
       6     H     0.42352  0.42352  0.00000  0.15296
       7     H     0.43051  0.43051  0.00000  0.13897
       8     C     3.15675  3.15675  0.00000 -0.31351
       9     H     0.41744  0.41744  0.00000  0.16511
      10     H     0.42474  0.42474  0.00000  0.15053
      11     C     3.15028  3.15028  0.00000 -0.30056
      12     H     0.42539  0.42539  0.00000  0.14922
      13     H     0.42577  0.42577  0.00000  0.14846
      14     C     3.23911  3.23911  0.00000 -0.47821
      15     H     0.42232  0.42232  0.00000  0.15536
      16     H     0.42303  0.42303  0.00000  0.15394
      17     H     0.42227  0.42227  0.00000  0.15545
      18     H     0.41969  0.41969  0.00000  0.16061
      19     H     0.42249  0.42249  0.00000  0.15501

   Total alpha = 25.00000, Total beta = 25.00000, Total charge =  0.00000
