  ==> Input File <==

--------------------------------------------------------------------------
set {
	reference rhf
	basis 6-31G*
}

set_num_threads( 4 )
memory 2 gb

molecule MOL {
0 1

H	 -1.070890	 -1.366565	 0.180696
O	 -1.422729	 -0.573567	 -0.196946
C	 -0.731407	 0.539437	 0.309156
C	 0.680193	 0.672443	 -0.251532
H	 -1.319765	 1.404033	 0.030086
H	 -0.700012	 0.506517	 1.397677
C	 1.777148	 0.439509	 0.787763
H	 0.795522	 -0.033101	 -1.069182
H	 0.786484	 1.669400	 -0.673812
H	 1.745154	 -0.573351	 1.178002
H	 2.761282	 0.584714	 0.354909
H	 1.681227	 1.127175	 1.624529

	symmetry c1
}
set optking {
	frozen_dihedral = ("
		8 4 3 2
	")
}

ee = optimize('scf')
oeprop('DIPOLE', 'QUADRUPOLE', 'MULLIKEN_CHARGES')
f=open( 'psi4out.xyz', 'w' )
f.write( "12  " )
f.write( str(ee) + "\n" )
f.write( MOL.save_string_xyz() )
f.close()
--------------------------------------------------------------------------

    Molecular point group: c1
  Charge       = 0
  Multiplicity = 1
  Basis Set: 6-31G*
  Basis Set:
  @DF-RHF Final Energy:  -193.10361384667968
    Total Energy =                       -193.1036138466796501
    Molecular point group: c1
  Basis Set: 6-31G*
  Basis Set:
  Basis Set: 6-31G*
  Basis Set:
  @DF-RHF Final Energy:  -193.10402819473074
    Total Energy =                       -193.1040281947308017
  Basis Set: 6-31G*
  Basis Set:
  Basis Set: 6-31G*
  Basis Set:
  @DF-RHF Final Energy:  -193.10412910176646
    Total Energy =                       -193.1041291017665742
  Basis Set: 6-31G*
  Basis Set:
  Basis Set: 6-31G*
  Basis Set:
  @DF-RHF Final Energy:  -193.10413147625749
    Total Energy =                       -193.1041314762574643
  Basis Set: 6-31G*
  Basis Set:
  Charge       = 0
  Multiplicity = 1
  Basis Set: 6-31G*
  Basis Set:

    Orbital Energies (a.u.)
    -----------------------

    Doubly Occupied:

       1A    -20.552420     2A    -11.267779     3A    -11.218814
       4A    -11.217463     5A     -1.358684     6A     -1.049954
       7A     -0.920933     8A     -0.816500     9A     -0.691567
      10A     -0.638668    11A     -0.593479    12A     -0.575999
      13A     -0.560662    14A     -0.508629    15A     -0.487774
      16A     -0.464395    17A     -0.429376

  @DF-RHF Final Energy:  -193.10413187156635

   => Energetics <=

    Nuclear Repulsion Energy =            131.2471089135821956
    One-Electron Energy =                -521.9962896283913096
    Two-Electron Energy =                 197.6450488432427619
    DFT Exchange-Correlation Energy =       0.0000000000000000
    Empirical Dispersion Energy =           0.0000000000000000
    PCM Polarization Energy =               0.0000000000000000
    EFP Energy =                            0.0000000000000000
    Total Energy =                       -193.1041318715663238
    Molecular point group: c1
  Basis Set: 6-31G*
  Basis Set:

  -Total Gradient:
     Atom            X                  Y                   Z
    ------   -----------------  -----------------  -----------------
       1        0.000021800287     0.000018494870     0.000013906191
       2       -0.000762525443     0.001157745124    -0.001508807301
       3        0.001237249447    -0.001901577703     0.002401318637
       4       -0.001281214488     0.002463632353    -0.002510057355
       5        0.000007954900    -0.000012561667    -0.000032199299
       6        0.000006307109    -0.000026153093    -0.000008643743
       7       -0.000010065618    -0.000013001977    -0.000007770741
       8        0.000844444438    -0.001721234468     0.001623066964
       9       -0.000050575694     0.000015843291     0.000038523317
      10       -0.000002231971     0.000012276155    -0.000003581928
      11       -0.000006949085    -0.000021014015     0.000003440691
      12       -0.000004193874     0.000027551133    -0.000009195431

  **** Optimization is complete! (in 5 steps) ****
    Final optimized geometry and variables:
    Molecular point group: c1

    Geometry (in Angstrom), charge = 0, multiplicity = 1:

    H           -1.044602492344    -1.605964988603    -0.054244870763
    O           -1.470878421345    -0.814880397488    -0.353677610538
    C           -0.785665695601     0.305602343085     0.146970981329
    C            0.638384955887     0.454751241202    -0.421499022201
    H           -1.395421039418     1.153456436795    -0.134206409017
    H           -0.760013122113     0.278319547431     1.234834069372
    C            1.739894313764     0.205219404173     0.611816514160
    H            0.745396711991    -0.255237294893    -1.235618926566
    H            0.766813124746     1.444618758190    -0.848682794346
    H            1.655420215196    -0.787578629004     1.047171207931
    H            2.725028965562     0.283974742543     0.163437557871
    H            1.688308587762     0.924242524611     1.424394433838

  Mulliken Charges: (a.u.)
   Center  Symbol    Alpha    Beta     Spin     Total
       1     H     0.28389  0.28389  0.00000  0.43222
       2     O     4.36934  4.36934  0.00000 -0.73868
       3     C     2.99585  2.99585  0.00000  0.00829
       4     C     3.17528  3.17528  0.00000 -0.35056
       5     H     0.41386  0.41386  0.00000  0.17229
       6     H     0.42857  0.42857  0.00000  0.14286
       7     C     3.24315  3.24315  0.00000 -0.48629
       8     H     0.41124  0.41124  0.00000  0.17751
       9     H     0.41672  0.41672  0.00000  0.16656
      10     H     0.42543  0.42543  0.00000  0.14914
      11     H     0.41684  0.41684  0.00000  0.16632
      12     H     0.41982  0.41982  0.00000  0.16035

   Total alpha = 17.00000, Total beta = 17.00000, Total charge = -0.00000
