  ==> Input File <==

--------------------------------------------------------------------------
set {
	reference rhf
	basis 6-31G*
}

set_num_threads( 1 )
memory 2 gb

molecule MOL {
0 1

H	 -3.122099	 -1.229338	 0.024407
O	 -2.296894	 -0.886512	 -0.287495
C	 -2.026376	 0.340750	 0.341611
C	 -0.673256	 0.843270	 -0.132153
H	 -2.795603	 1.070625	 0.095626
H	 -2.020638	 0.222057	 1.424446
C	 0.486613	 -0.083066	 0.235839
H	 -0.715586	 0.970948	 -1.210718
H	 -0.508072	 1.829858	 0.297090
C	 1.840406	 0.433480	 -0.254303
H	 0.300215	 -1.068318	 -0.178947
H	 0.519509	 -0.203625	 1.318070
C	 3.000220	 -0.489290	 0.118523
H	 1.809207	 0.553576	 -1.335192
H	 2.021860	 1.424500	 0.157276
H	 2.864959	 -1.479103	 -0.307933
H	 3.946603	 -0.099227	 -0.243630
H	 3.080049	 -0.602997	 1.196117

	symmetry c1
}
set optking {
	frozen_dihedral = ("
		14 10 7 11,
		10 7 4 8,
		1 2 3 4
	")
}

ee = energy('scf')
oeprop('DIPOLE', 'QUADRUPOLE', 'MULLIKEN_CHARGES')
f=open( 'psi4out.xyz', 'w' )
f.write( "18  " )
f.write( str(ee) + "\n" )
f.write( MOL.save_string_xyz() )
f.close()
--------------------------------------------------------------------------

    Molecular point group: c1

    Geometry (in Angstrom), charge = 0, multiplicity = 1:

       Center              X                  Y                   Z               Mass
    ------------   -----------------  -----------------  -----------------  -----------------
           H         -3.124541607653    -1.226634692844     0.020297118967     1.007825032070
           O         -2.299336607653    -0.883808692844    -0.291604881033    15.994914619560
           C         -2.028818607653     0.343453307156     0.337501118967    12.000000000000
           C         -0.675698607653     0.845973307156    -0.136262881033    12.000000000000
           H         -2.798045607653     1.073328307156     0.091516118967     1.007825032070
           H         -2.023080607653     0.224760307156     1.420336118967     1.007825032070
           C          0.484170392347    -0.080362692844     0.231729118967    12.000000000000
           H         -0.718028607653     0.973651307156    -1.214827881033     1.007825032070
           H         -0.510514607653     1.832561307156     0.292980118967     1.007825032070
           C          1.837963392347     0.436183307156    -0.258412881033    12.000000000000
           H          0.297772392347    -1.065614692844    -0.183056881033     1.007825032070
           H          0.517066392347    -0.200921692844     1.313960118967     1.007825032070
           C          2.997777392347    -0.486586692844     0.114413118967    12.000000000000
           H          1.806764392347     0.556279307156    -1.339301881033     1.007825032070
           H          2.019417392347     1.427203307156     0.153166118967     1.007825032070
           H          2.862516392347    -1.476399692844    -0.312042881033     1.007825032070
           H          3.944160392347    -0.096523692844    -0.247739881033     1.007825032070
           H          3.077606392347    -0.600293692844     1.192007118967     1.007825032070

  Charge       = 0
  Multiplicity = 1
  Basis Set: 6-31G*
  Basis Set:

    Orbital Energies (a.u.)
    -----------------------

    Doubly Occupied:

       1A    -20.553109     2A    -11.268081     3A    -11.212000
       4A    -11.210600     5A    -11.206164     6A    -11.204423
       7A     -1.359843     8A     -1.074605     9A     -1.008655
      10A     -0.913040    11A     -0.817554    12A     -0.783553
      13A     -0.705007    14A     -0.642081    15A     -0.625178
      16A     -0.579261    17A     -0.570779    18A     -0.558004
      19A     -0.522220    20A     -0.500605    21A     -0.487975
      22A     -0.467188    23A     -0.458049    24A     -0.447801
      25A     -0.428821

  @DF-RHF Final Energy:  -271.17994663807428

   => Energetics <=

    Nuclear Repulsion Energy =            249.1243187283868394
    One-Electron Energy =                -861.3993417392291576
    Two-Electron Energy =                 341.0950763727680624
    DFT Exchange-Correlation Energy =       0.0000000000000000
    Empirical Dispersion Energy =           0.0000000000000000
    PCM Polarization Energy =               0.0000000000000000
    EFP Energy =                            0.0000000000000000
    Total Energy =                       -271.1799466380742842

  Mulliken Charges: (a.u.)
   Center  Symbol    Alpha    Beta     Spin     Total
       1     H     0.28055  0.28055  0.00000  0.43891
       2     O     4.36962  4.36962  0.00000 -0.73923
       3     C     2.99725  2.99725  0.00000  0.00550
       4     C     3.16040  3.16040  0.00000 -0.32080
       5     H     0.42923  0.42923  0.00000  0.14154
       6     H     0.43262  0.43262  0.00000  0.13476
       7     C     3.15292  3.15292  0.00000 -0.30585
       8     H     0.41538  0.41538  0.00000  0.16925
       9     H     0.42415  0.42415  0.00000  0.15169
      10     C     3.15178  3.15178  0.00000 -0.30357
      11     H     0.40759  0.40759  0.00000  0.18482
      12     H     0.42772  0.42772  0.00000  0.14455
      13     C     3.23889  3.23889  0.00000 -0.47778
      14     H     0.42254  0.42254  0.00000  0.15492
      15     H     0.42539  0.42539  0.00000  0.14921
      16     H     0.42088  0.42088  0.00000  0.15825
      17     H     0.42040  0.42040  0.00000  0.15921
      18     H     0.42269  0.42269  0.00000  0.15462

   Total alpha = 25.00000, Total beta = 25.00000, Total charge = -0.00000
