                              Psi4 1.0.54 Driver

  ==> Input File <==

--------------------------------------------------------------------------
set {
	reference rhf
	basis cc-pvtz
}

set_num_threads( 4 )
memory 2 gb

molecule MOL {
0 1

O	 2.714949	 1.590973	 -0.431523
C	 2.371114	 0.893971	 -1.329339
C	 1.088587	 0.088388	 -1.284689
C	 3.199165	 0.764104	 -2.587787
C	 0.288398	 0.247429	 0.000314
H	 0.492126	 0.374457	 -2.148093
H	 1.351034	 -0.954304	 -1.448764
C	 -0.993089	 -0.581367	 -0.000217
H	 0.049540	 1.295145	 0.142973
H	 0.909307	 -0.034685	 0.842940
C	 -2.258482	 0.271340	 0.000669
H	 -1.002280	 -1.233920	 -0.870484
H	 -1.002061	 -1.235367	 0.868958
C	 -3.544441	 -0.550271	 -0.000253
H	 -2.250545	 0.925250	 -0.867923
H	 -2.250598	 0.923423	 0.870642
C	 -4.804551	 0.308747	 0.000556
H	 -3.553737	 -1.201524	 -0.870151
H	 -3.553831	 -1.203282	 0.868313
H	 -4.842050	 0.949078	 -0.874436
H	 -5.698404	 -0.304480	 -0.000254
H	 -4.842277	 0.947103	 0.876982
H	 2.617914	 1.068734	 -3.451150
H	 4.082919	 1.378316	 -2.509593
H	 3.486007	 -0.270382	 -2.741420

	symmetry c1
}
set optking {
	frozen_dihedral = ("
		9 5 8 12
	")
}

ee,wfn = optimize('scf', return_wfn=True)
oeprop( wfn, 'DIPOLE', 'QUADRUPOLE', 'MULLIKEN_CHARGES')
f=open( 'psi4out.xyz', 'w' )
f.write( "25  " )
f.write( str(ee) + "\n" )
f.write( MOL.save_string_xyz() )
f.close()
--------------------------------------------------------------------------

    Molecular point group: c1
  Charge       = 0
  Multiplicity = 1
  Basis Set: CC-PVTZ
  Basis Set:
  @DF-RHF Final Energy:  -387.26888334282251
    Total Energy =                       -387.2688833428222779
    Molecular point group: c1
  Basis Set: CC-PVTZ
  Basis Set:
  Basis Set: CC-PVTZ
  Basis Set:
  @DF-RHF Final Energy:  -387.26913747245470
    Total Energy =                       -387.2691374724544175
  Basis Set: CC-PVTZ
  Basis Set:
  Basis Set: CC-PVTZ
  Basis Set:
  @DF-RHF Final Energy:  -387.26912387556587
    Total Energy =                       -387.2691238755658105
  Basis Set: CC-PVTZ
  Basis Set:
  Basis Set: CC-PVTZ
  Basis Set:
  @DF-RHF Final Energy:  -387.26919532154642
    Total Energy =                       -387.2691953215462490
  Basis Set: CC-PVTZ
  Basis Set:
  Basis Set: CC-PVTZ
  Basis Set:
  @DF-RHF Final Energy:  -387.26920661870901
    Total Energy =                       -387.2692066187094042
  Basis Set: CC-PVTZ
  Basis Set:
  Basis Set: CC-PVTZ
  Basis Set:
  @DF-RHF Final Energy:  -387.26920771276718
    Total Energy =                       -387.2692077127670700
  Basis Set: CC-PVTZ
  Basis Set:
  Charge       = 0
  Multiplicity = 1
  Basis Set: CC-PVTZ
  Basis Set:

    Orbital Energies (a.u.)
    -----------------------

    Doubly Occupied:

       1A    -20.538948     2A    -11.320294     3A    -11.230596
       4A    -11.226585     5A    -11.215007     6A    -11.214449
       7A    -11.214116     8A    -11.212966     9A    -11.207372
      10A     -1.398861    11A     -1.094013    12A     -1.057471
      13A     -1.014786    14A     -0.969916    15A     -0.892417
      16A     -0.816332    17A     -0.791476    18A     -0.732983
      19A     -0.660557    20A     -0.648105    21A     -0.640085
      22A     -0.624019    23A     -0.598728    24A     -0.578503
      25A     -0.569606    26A     -0.566290    27A     -0.541392
      28A     -0.523305    29A     -0.518658    30A     -0.495062
      31A     -0.485776    32A     -0.478569    33A     -0.464527
      34A     -0.460985    35A     -0.447174    36A     -0.401445

  @DF-RHF Final Energy:  -387.26920796689808

   => Energetics <=

    Nuclear Repulsion Energy =            441.5201127199586608
    One-Electron Energy =               -1399.8759011934519094
    Two-Electron Energy =                 571.0865805065948280
    DFT Exchange-Correlation Energy =       0.0000000000000000
    Empirical Dispersion Energy =           0.0000000000000000
    PCM Polarization Energy =               0.0000000000000000
    EFP Energy =                            0.0000000000000000
    Total Energy =                       -387.2692079668984206
    Molecular point group: c1
  Basis Set: CC-PVTZ
  Basis Set:

  -Total Gradient:
     Atom            X                  Y                   Z
    ------   -----------------  -----------------  -----------------
       1       -0.000013347914     0.000014583710     0.000000257787
       2        0.000023556652    -0.000034354805     0.000012469989
       3       -0.000003202430     0.000024447704    -0.000009118963
       4       -0.000000359157    -0.000005382684    -0.000000884078
       5        0.000010817664     0.000021334338     0.001478358268
       6       -0.000001562816    -0.000007245788    -0.000003583940
       7        0.000008690450     0.000000190497     0.000005596797
       8        0.000729302267    -0.001149498656     0.000547760364
       9       -0.000111065641     0.000168034219    -0.001320252691
      10        0.000000413040     0.000007331652    -0.000003602125
      11       -0.000012305925    -0.000003732146     0.000012393888
      12       -0.000621799907     0.000954773991    -0.000690051402
      13       -0.000006680559    -0.000006583402    -0.000008518289
      14       -0.000001773512    -0.000000323929     0.000005766478
      15       -0.000005146634    -0.000005434947    -0.000007380420
      16       -0.000001090601     0.000006762682    -0.000002714516
      17        0.000007243731     0.000004538357    -0.000002745684
      18       -0.000002504197     0.000002868391    -0.000003994931
      19        0.000006814625    -0.000002422868    -0.000001675703
      20       -0.000003088951     0.000001785422    -0.000002028216
      21        0.000004903526    -0.000002577679     0.000001108689
      22        0.000001883886     0.000000081819     0.000000303853
      23       -0.000002619565     0.000008733718    -0.000004172947
      24       -0.000000953155     0.000001496773     0.000002615814
      25       -0.000006124879     0.000000593631    -0.000005908026

  **** Optimization is complete! (in 7 steps) ****
    Final optimized geometry and variables:
    Molecular point group: c1

    Geometry (in Angstrom), charge = 0, multiplicity = 1:

    O            2.917094732514     1.295527234061     0.166981779770
    C            2.578288820935     0.587481244965    -0.724181044136
    C            1.318290908458    -0.251490808974    -0.658662783394
    C            3.390609429895     0.476551744547    -1.994786875533
    C            0.537684036941    -0.119640130392     0.643534710702
    H            0.697341725723     0.023959531347    -1.508521721779
    H            1.603344103737    -1.286236688456    -0.833638628979
    C           -0.758480037337    -0.955468351861     0.652625787894
    H            0.305057468506     0.926924926934     0.795068497406
    H            1.181367923351    -0.403497630289     1.465574829642
    C           -2.027935613337    -0.105365069187     0.659508432801
    H           -0.787067972951    -1.605344480693    -0.217671299541
    H           -0.769729454602    -1.610030781613     1.517598113753
    C           -3.311811814543    -0.928964152884     0.640500486220
    H           -2.017486516173     0.562506788310    -0.199512582428
    H           -2.024010398626     0.534102037796     1.538601464208
    C           -4.574037759630    -0.073062983584     0.654834862225
    H           -3.318128058609    -1.564632794782    -0.241003676949
    H           -3.320853224767    -1.597789245318     1.496913463575
    H           -4.611886420418     0.583281636410    -0.208322330749
    H           -5.466362535788    -0.688323288404     0.641169579560
    H           -4.614845952063     0.548856036068     1.542818718684
    H            2.787421289608     0.759334613835    -2.850506111894
    H            4.256635844808     1.117382480455    -1.932941478656
    H            3.706200969841    -0.549589236048    -2.148029728369

  Mulliken Charges: (a.u.)
   Center  Symbol    Alpha    Beta     Spin     Total
       1     O     4.17060  4.17060  0.00000 -0.34120
       2     C     2.86397  2.86397  0.00000  0.27205
       3     C     3.11058  3.11058  0.00000 -0.22117
       4     C     3.15103  3.15103  0.00000 -0.30205
       5     C     3.09464  3.09464  0.00000 -0.18928
       6     H     0.44479  0.44479  0.00000  0.11041
       7     H     0.44371  0.44371  0.00000  0.11258
       8     C     3.09959  3.09959  0.00000 -0.19918
       9     H     0.44559  0.44559  0.00000  0.10881
      10     H     0.44009  0.44009  0.00000  0.11982
      11     C     3.08490  3.08490  0.00000 -0.16980
      12     H     0.45705  0.45705  0.00000  0.08591
      13     H     0.44615  0.44615  0.00000  0.10770
      14     C     3.08542  3.08542  0.00000 -0.17085
      15     H     0.45592  0.45592  0.00000  0.08816
      16     H     0.45170  0.45170  0.00000  0.09660
      17     C     3.14987  3.14987  0.00000 -0.29974
      18     H     0.45506  0.45506  0.00000  0.08987
      19     H     0.45439  0.45439  0.00000  0.09121
      20     H     0.45552  0.45552  0.00000  0.08896
      21     H     0.44847  0.44847  0.00000  0.10306
      22     H     0.45448  0.45448  0.00000  0.09103
      23     H     0.45068  0.45068  0.00000  0.09865
      24     H     0.43539  0.43539  0.00000  0.12922
      25     H     0.45039  0.45039  0.00000  0.09922

   Total alpha = 36.00000, Total beta = 36.00000, Total charge = -0.00000

*** Psi4 exiting successfully. Buy a developer a beer!
