  ==> Input File <==

--------------------------------------------------------------------------
set {
	reference rhf
	basis 6-31G*
}

set_num_threads( 4 )
memory 2 gb

molecule MOL {
0 1

H	 2.652209	 0.763231	 0.000000
O	 2.263154	 -0.100023	 0.000000
C	 0.912879	 -0.015685	 0.000000
C	 0.351425	 1.254493	 -0.000000
C	 0.098218	 -1.136136	 0.000000
H	 1.000927	 2.110037	 -0.000000
C	 -1.023028	 1.391926	 -0.000000
H	 0.534501	 -2.121112	 0.000000
C	 -1.280622	 -0.983437	 -0.000000
H	 -1.452968	 2.377744	 0.000000
C	 -1.850331	 0.276360	 -0.000000
H	 -1.905965	 -1.858444	 -0.000000
H	 -2.918780	 0.391172	 -0.000000

	symmetry c1
}
set optking {
	frozen_dihedral = ("
		4 3 2 1
	")
}

ee = optimize('scf')
oeprop('DIPOLE', 'QUADRUPOLE', 'MULLIKEN_CHARGES')
f=open( 'psi4out.xyz', 'w' )
f.write( "13  " )
f.write( str(ee) + "\n" )
f.write( MOL.save_string_xyz() )
f.close()
--------------------------------------------------------------------------

    Molecular point group: c1
  Charge       = 0
  Multiplicity = 1
  Basis Set: 6-31G*
  Basis Set:
  @DF-RHF Final Energy:  -305.55546251164833
    Total Energy =                       -305.5554625116480452
    Molecular point group: c1
  Basis Set: 6-31G*
  Basis Set:
  Basis Set: 6-31G*
  Basis Set:
  @DF-RHF Final Energy:  -305.55741770143652
    Total Energy =                       -305.5574177014362931
  Basis Set: 6-31G*
  Basis Set:
  Basis Set: 6-31G*
  Basis Set:
  @DF-RHF Final Energy:  -305.55759801687964
    Total Energy =                       -305.5575980168795809
  Basis Set: 6-31G*
  Basis Set:
  Basis Set: 6-31G*
  Basis Set:
  @DF-RHF Final Energy:  -305.55762234533353
    Total Energy =                       -305.5576223453334705
  Basis Set: 6-31G*
  Basis Set:
  Charge       = 0
  Multiplicity = 1
  Basis Set: 6-31G*
  Basis Set:

    Orbital Energies (a.u.)
    -----------------------

    Doubly Occupied:

       1A    -20.590823     2A    -11.298267     3A    -11.236893
       4A    -11.234808     5A    -11.228059     6A    -11.221825
       7A    -11.221566     8A     -1.409394     9A     -1.147252
      10A     -1.018654    11A     -1.004027    12A     -0.846793
      13A     -0.822032    14A     -0.735975    15A     -0.683884
      16A     -0.650058    17A     -0.608462    18A     -0.588993
      19A     -0.587965    20A     -0.563053    21A     -0.514040
      22A     -0.489518    23A     -0.479207    24A     -0.338173
      25A     -0.309160

  @DF-RHF Final Energy:  -305.55762615549128

   => Energetics <=

    Nuclear Repulsion Energy =            273.1546906046009440
    One-Electron Energy =                -955.7668727223978067
    Two-Electron Energy =                 377.0545559623058693
    DFT Exchange-Correlation Energy =       0.0000000000000000
    Empirical Dispersion Energy =           0.0000000000000000
    PCM Polarization Energy =               0.0000000000000000
    EFP Energy =                            0.0000000000000000
    Total Energy =                       -305.5576261554910502
    Molecular point group: c1
  Basis Set: 6-31G*
  Basis Set:

  -Total Gradient:
     Atom            X                  Y                   Z
    ------   -----------------  -----------------  -----------------
       1        0.000041357254    -0.000014104362     0.000000000000
       2        0.000035998415     0.000045690252     0.000000000001
       3       -0.000022589820    -0.000116259403    -0.000000000001
       4        0.000020209971     0.000064600949     0.000000000000
       5       -0.000038383187    -0.000035205177    -0.000000000000
       6       -0.000030191423    -0.000015212403     0.000000000000
       7        0.000013681640     0.000010242214    -0.000000000003
       8        0.000051915370     0.000026305124     0.000000000000
       9       -0.000067457310     0.000062032125    -0.000000000001
      10       -0.000043766981     0.000001379159     0.000000000001
      11        0.000015514532    -0.000088370049     0.000000000001
      12        0.000014966179    -0.000000554130     0.000000000000
      13        0.000008745358     0.000059455699     0.000000000000

  **** Optimization is complete! (in 5 steps) ****
    Final optimized geometry and variables:
    Molecular point group: c1

    Geometry (in Angstrom), charge = 0, multiplicity = 1:

    H            2.702107915853     0.560566808358     0.000000000022
    O            2.249159263744    -0.270919688744     0.000000000012
    C            0.909089015491    -0.084790379519    -0.000000000006
    C            0.333797059901     1.175648566913    -0.000000000006
    C            0.106027729981    -1.217566161997    -0.000000000006
    H            0.957299772551     2.054104180496     0.000000000004
    C           -1.047732925276     1.300461810200    -0.000000000009
    H            0.572388631115    -2.185162897246     0.000000000000
    C           -1.268485620475    -1.078603040021     0.000000000001
    H           -1.486655849441     2.282357938407     0.000000000006
    C           -1.856968705646     0.179228857413     0.000000000005
    H           -1.885913490814    -1.959256065250     0.000000000011
    H           -2.926876591839     0.280090574742     0.000000000021

  Mulliken Charges: (a.u.)
   Center  Symbol    Alpha    Beta     Spin     Total
       1     H     0.27180  0.27180  0.00000  0.45640
       2     O     4.37843  4.37843  0.00000 -0.75686
       3     C     2.79390  2.79390  0.00000  0.41221
       4     C     3.14450  3.14450  0.00000 -0.28901
       5     C     3.12358  3.12358  0.00000 -0.24717
       6     H     0.40470  0.40470  0.00000  0.19061
       7     C     3.09022  3.09022  0.00000 -0.18044
       8     H     0.39168  0.39168  0.00000  0.21663
       9     C     3.09090  3.09090  0.00000 -0.18179
      10     H     0.39838  0.39838  0.00000  0.20324
      11     C     3.11330  3.11330  0.00000 -0.22660
      12     H     0.39802  0.39802  0.00000  0.20396
      13     H     0.40059  0.40059  0.00000  0.19882

   Total alpha = 25.00000, Total beta = 25.00000, Total charge =  0.00000
