  ==> Input File <==

--------------------------------------------------------------------------
set {
	reference rhf
	basis cc-pvtz
}

set_num_threads( 4 )
memory 2 gb

molecule MOL {
0 1

H	 1.092335	 -0.627513	 -0.066015
C	 0.848385	 0.440008	 0.000011
C	 -0.623497	 0.751021	 0.000090
O	 1.712566	 1.243955	 0.064073
C	 -1.523725	 -0.474323	 -0.000013
H	 -0.813143	 1.382932	 -0.864897
H	 -0.813071	 1.382716	 0.865253
H	 -1.342980	 -1.087348	 -0.873016
H	 -2.565269	 -0.177464	 0.000070
H	 -1.342898	 -1.087564	 0.872820

	symmetry c1
}
set optking {
	frozen_dihedral = ("
		4 2 3 6
	")
}

ee = optimize('scf')
oeprop('DIPOLE', 'QUADRUPOLE', 'MULLIKEN_CHARGES')
f=open( 'psi4out.xyz', 'w' )
f.write( "10  " )
f.write( str(ee) + "\n" )
f.write( MOL.save_string_xyz() )
f.close()
--------------------------------------------------------------------------

    Molecular point group: c1
  Charge       = 0
  Multiplicity = 1
  Basis Set: CC-PVTZ
  Basis Set:
  @DF-RHF Final Energy:  -192.02175586058877
    Total Energy =                       -192.0217558605887120
    Molecular point group: c1
  Basis Set: CC-PVTZ
  Basis Set:
  Basis Set: CC-PVTZ
  Basis Set:
  @DF-RHF Final Energy:  -192.02193124613640
    Total Energy =                       -192.0219312461363756
  Basis Set: CC-PVTZ
  Basis Set:
  Basis Set: CC-PVTZ
  Basis Set:
  @DF-RHF Final Energy:  -192.02137588738722
    Total Energy =                       -192.0213758873873076
  Basis Set: CC-PVTZ
  Basis Set:
  Basis Set: CC-PVTZ
  Basis Set:
  @DF-RHF Final Energy:  -192.02199659836552
    Total Energy =                       -192.0219965983653481
  Basis Set: CC-PVTZ
  Basis Set:
  Charge       = 0
  Multiplicity = 1
  Basis Set: CC-PVTZ
  Basis Set:

    Orbital Energies (a.u.)
    -----------------------

    Doubly Occupied:

       1A    -20.552750     2A    -11.323928     3A    -11.238234
       4A    -11.230106     5A     -1.408799     6A     -1.067492
       7A     -0.902523     8A     -0.799102     9A     -0.662176
      10A     -0.642845    11A     -0.639827    12A     -0.554025
      13A     -0.547323    14A     -0.526902    15A     -0.491938
      16A     -0.415160

  @DF-RHF Final Energy:  -192.02199754222079

   => Energetics <=

    Nuclear Repulsion Energy =            117.1162753069592242
    One-Electron Energy =                -492.2702869963466128
    Two-Electron Energy =                 183.1320141471666147
    DFT Exchange-Correlation Energy =       0.0000000000000000
    Empirical Dispersion Energy =           0.0000000000000000
    PCM Polarization Energy =               0.0000000000000000
    EFP Energy =                            0.0000000000000000
    Total Energy =                       -192.0219975422207881
    Molecular point group: c1
  Basis Set: CC-PVTZ
  Basis Set:

  -Total Gradient:
     Atom            X                  Y                   Z
    ------   -----------------  -----------------  -----------------
       1       -0.000024312645    -0.000013254461     0.000002307556
       2       -0.000033474268     0.000018304367     0.000307370823
       3        0.000023311883    -0.000170141869    -0.000230551257
       4       -0.000004559213     0.000037028075    -0.000198688208
       5        0.000003109102    -0.000019627242     0.000025072304
       6        0.000040678239     0.000166756272     0.000100449422
       7        0.000000827216    -0.000017474133    -0.000008237559
       8        0.000005713892     0.000008107344     0.000001173430
       9       -0.000001946910     0.000006454700    -0.000000149270
      10       -0.000009347295    -0.000016153049     0.000001252759

  **** Optimization is complete! (in 5 steps) ****
    Final optimized geometry and variables:
    Molecular point group: c1

    Geometry (in Angstrom), charge = 0, multiplicity = 1:

    H            1.009551856920    -1.121760960336    -0.074066995552
    C            0.750088503898    -0.056640824355    -0.013882414803
    C           -0.726003441325     0.270238441451    -0.011507706624
    O            1.603543962919     0.758527057453     0.039628144739
    C           -1.624775319341    -0.959453923451    -0.015174995734
    H           -0.914042508484     0.893498579899    -0.879314579223
    H           -0.915094887345     0.892463094700     0.855967736237
    H           -1.449871561181    -1.572731967696    -0.892335149666
    H           -2.668335019883    -0.672785728758    -0.016209121110
    H           -1.452469571733    -1.576274606696     0.860032595454

  Mulliken Charges: (a.u.)
   Center  Symbol    Alpha    Beta     Spin     Total
       1     H     0.46255  0.46255  0.00000  0.07490
       2     C     2.90681  2.90681  0.00000  0.18637
       3     C     3.08261  3.08261  0.00000 -0.16521
       4     O     4.16534  4.16534  0.00000 -0.33068
       5     C     3.15460  3.15460  0.00000 -0.30920
       6     H     0.44046  0.44046  0.00000  0.11908
       7     H     0.43974  0.43974  0.00000  0.12053
       8     H     0.45214  0.45214  0.00000  0.09572
       9     H     0.44424  0.44424  0.00000  0.11152
      10     H     0.45151  0.45151  0.00000  0.09699

   Total alpha = 16.00000, Total beta = 16.00000, Total charge = -0.00000
