  ==> Input File <==

--------------------------------------------------------------------------
set {
	reference rhf
	basis 6-31G*
}

set_num_threads( 4 )
memory 2 gb

molecule MOL {
0 1

H	 2.144538	 -1.073876	 0.897067
C	 1.365419	 -0.352151	 1.081840
O	 0.464886	 -0.454746	 -0.000158
H	 1.800397	 0.638863	 1.133899
H	 0.875745	 -0.586074	 2.019689
C	 -0.590998	 0.343045	 0.000118
O	 -1.699443	 -0.054298	 0.000227
H	 -0.340329	 1.404368	 0.000207

	symmetry c1
}
set optking {
	frozen_dihedral = ("
		2 3 6 7
	")
}

ee = optimize('scf')
oeprop('DIPOLE', 'QUADRUPOLE', 'MULLIKEN_CHARGES')
f=open( 'psi4out.xyz', 'w' )
f.write( "8  " )
f.write( str(ee) + "\n" )
f.write( MOL.save_string_xyz() )
f.close()
--------------------------------------------------------------------------

    Molecular point group: c1
  Charge       = 0
  Multiplicity = 1
  Basis Set: 6-31G*
  Basis Set:
  @DF-RHF Final Energy:  -227.77098714673406
    Total Energy =                       -227.7709871467340577
    Molecular point group: c1
  Basis Set: 6-31G*
  Basis Set:
  Basis Set: 6-31G*
  Basis Set:
  @DF-RHF Final Energy:  -227.77116540628145
    Total Energy =                       -227.7711654062815114
  Basis Set: 6-31G*
  Basis Set:
  Basis Set: 6-31G*
  Basis Set:
  @DF-RHF Final Energy:  -227.77054539240584
    Total Energy =                       -227.7705453924057224
  Basis Set: 6-31G*
  Basis Set:
  Basis Set: 6-31G*
  Basis Set:
  @DF-RHF Final Energy:  -227.77137296601069
    Total Energy =                       -227.7713729660105173
  Basis Set: 6-31G*
  Basis Set:
  Basis Set: 6-31G*
  Basis Set:
  @DF-RHF Final Energy:  -227.77138554060267
    Total Energy =                       -227.7713855406026369
  Basis Set: 6-31G*
  Basis Set:
  Charge       = 0
  Multiplicity = 1
  Basis Set: 6-31G*
  Basis Set:

    Orbital Energies (a.u.)
    -----------------------

    Doubly Occupied:

       1A    -20.603858     2A    -20.570259     3A    -11.383750
       4A    -11.302617     5A     -1.472217     6A     -1.384537
       7A     -0.988048     8A     -0.842342     9A     -0.737791
      10A     -0.686216    11A     -0.673836    12A     -0.621340
      13A     -0.566945    14A     -0.517876    15A     -0.471350
      16A     -0.456737

  @DF-RHF Final Energy:  -227.77138773124545

   => Energetics <=

    Nuclear Repulsion Energy =            121.4478424442545048
    One-Electron Energy =                -551.8790243439806318
    Two-Electron Energy =                 202.6597941684807438
    DFT Exchange-Correlation Energy =       0.0000000000000000
    Empirical Dispersion Energy =           0.0000000000000000
    PCM Polarization Energy =               0.0000000000000000
    EFP Energy =                            0.0000000000000000
    Total Energy =                       -227.7713877312453974
    Molecular point group: c1
  Basis Set: 6-31G*
  Basis Set:

  -Total Gradient:
     Atom            X                  Y                   Z
    ------   -----------------  -----------------  -----------------
       1       -0.000037995860     0.000010178003    -0.000056355984
       2       -0.002332104683    -0.002675267507     0.002350466029
       3        0.003356154969     0.004164674522    -0.000681762771
       4        0.000029462298     0.000009624384    -0.000001962365
       5        0.000005751918     0.000001060298     0.000002010554
       6       -0.001109411765    -0.001812433436    -0.007045550729
       7        0.000093518637     0.000315490045     0.005444685438
       8       -0.000005375510    -0.000013326310    -0.000011530171

  **** Optimization is complete! (in 6 steps) ****
    Final optimized geometry and variables:
    Molecular point group: c1

    Geometry (in Angstrom), charge = 0, multiplicity = 1:

    H            2.298656415642    -0.875605196174     0.575389755994
    C            1.462290858178    -0.228827068566     0.786162942862
    O            0.551872888177    -0.382560678499    -0.282225298169
    H            1.812302350861     0.796641276090     0.860291742982
    H            0.999699301729    -0.522548416982     1.719959019143
    C           -0.475396877815     0.471131034707    -0.304115718432
    O           -1.603920002899     0.143233623876    -0.255620115293
    H           -0.164684458969     1.514734555066    -0.359297220420

  Mulliken Charges: (a.u.)
   Center  Symbol    Alpha    Beta     Spin     Total
       1     H     0.39882  0.39882  0.00000  0.20236
       2     C     3.09617  3.09617  0.00000 -0.19235
       3     O     4.28839  4.28839  0.00000 -0.57678
       4     H     0.41978  0.41978  0.00000  0.16043
       5     H     0.40883  0.40883  0.00000  0.18233
       6     C     2.73247  2.73247  0.00000  0.53506
       7     O     4.22780  4.22780  0.00000 -0.45561
       8     H     0.42773  0.42773  0.00000  0.14454

   Total alpha = 16.00000, Total beta = 16.00000, Total charge = -0.00000
