  ==> Input File <==

--------------------------------------------------------------------------
set {
	reference rhf
	basis 6-31G*
}

set_num_threads( 4 )
memory 2 gb

molecule MOL {
0 1

H	 -2.365627	 -1.312883	 -0.379134
C	 -1.358347	 -1.274295	 0.019669
C	 -0.681945	 0.000119	 -0.470601
H	 -0.826096	 -2.155117	 -0.321105
H	 -1.409554	 -1.292283	 1.100109
C	 -1.357790	 1.274691	 0.020220
N	 0.739525	 -0.000142	 0.006128
H	 -0.594190	 0.000341	 -1.545128
H	 -2.364980	 1.313977	 -0.378631
H	 -0.825080	 2.155361	 -0.320114
H	 -1.409060	 1.292170	 1.100671
O	 1.202805	 1.041012	 0.355344
O	 1.317499	 -1.044817	 0.005630

	symmetry c1
}
set optking {
	frozen_dihedral = ("
		12 7 3 8
	")
}

ee = optimize('scf')
oeprop('DIPOLE', 'QUADRUPOLE', 'MULLIKEN_CHARGES')
f=open( 'psi4out.xyz', 'w' )
f.write( "13  " )
f.write( str(ee) + "\n" )
f.write( MOL.save_string_xyz() )
f.close()
--------------------------------------------------------------------------

    Molecular point group: c1
  Charge       = 0
  Multiplicity = 1
  Basis Set: 6-31G*
  Basis Set:
  @DF-RHF Final Energy:  -321.73616979673591
    Total Energy =                       -321.7361697967358509
    Molecular point group: c1
  Basis Set: 6-31G*
  Basis Set:
  Basis Set: 6-31G*
  Basis Set:
  @DF-RHF Final Energy:  -321.73311612076679
    Total Energy =                       -321.7331161207669084
  Basis Set: 6-31G*
  Basis Set:
  Basis Set: 6-31G*
  Basis Set:
  @DF-RHF Final Energy:  -321.73465213138047
    Total Energy =                       -321.7346521313805852
  Basis Set: 6-31G*
  Basis Set:
  Basis Set: 6-31G*
  Basis Set:
  @DF-RHF Final Energy:  -321.73713549520846
    Total Energy =                       -321.7371354952081219
  Basis Set: 6-31G*
  Basis Set:
  Basis Set: 6-31G*
  Basis Set:
  @DF-RHF Final Energy:  -321.73716833364745
    Total Energy =                       -321.7371683336474462
  Basis Set: 6-31G*
  Basis Set:
  Basis Set: 6-31G*
  Basis Set:
  @DF-RHF Final Energy:  -321.73717931847284
    Total Energy =                       -321.7371793184728404
  Basis Set: 6-31G*
  Basis Set:
  Basis Set: 6-31G*
  Basis Set:
  @DF-RHF Final Energy:  -321.73718053734763
    Total Energy =                       -321.7371805373476832
  Basis Set: 6-31G*
  Basis Set:
  Charge       = 0
  Multiplicity = 1
  Basis Set: 6-31G*
  Basis Set:

    Orbital Energies (a.u.)
    -----------------------

    Doubly Occupied:

       1A    -20.601173     2A    -20.597799     3A    -15.844616
       4A    -11.308711     5A    -11.242465     6A    -11.240505
       7A     -1.629530     8A     -1.414297     9A     -1.141189
      10A     -0.968052    11A     -0.959132    12A     -0.812742
      13A     -0.762463    14A     -0.725089    15A     -0.719780
      16A     -0.639420    17A     -0.596020    18A     -0.585635
      19A     -0.571155    20A     -0.522853    21A     -0.521685
      22A     -0.480073    23A     -0.471834    24A     -0.447447

  @DF-RHF Final Energy:  -321.73718065659085

   => Energetics <=

    Nuclear Repulsion Energy =            256.6621932523452756
    One-Electron Energy =                -947.1914232484479044
    Two-Electron Energy =                 368.7920493395118342
    DFT Exchange-Correlation Energy =       0.0000000000000000
    Empirical Dispersion Energy =           0.0000000000000000
    PCM Polarization Energy =               0.0000000000000000
    EFP Energy =                            0.0000000000000000
    Total Energy =                       -321.7371806565908514
    Molecular point group: c1
  Basis Set: 6-31G*
  Basis Set:

  -Total Gradient:
     Atom            X                  Y                   Z
    ------   -----------------  -----------------  -----------------
       1        0.000006399969    -0.000005506495     0.000000154471
       2        0.000004347729    -0.000009028406    -0.000008207846
       3        0.000077146190    -0.000809920201    -0.000272410397
       4       -0.000000280957    -0.000012643667     0.000007394168
       5       -0.000000213719     0.000000346481    -0.000004329500
       6       -0.000018075213     0.000012984133     0.000006429085
       7       -0.000341758638    -0.000074892365     0.000992875372
       8        0.000008606803     0.000750339000     0.000008593499
       9        0.000003764512     0.000003742253    -0.000001881452
      10        0.000001106471     0.000011705894     0.000002615660
      11       -0.000003410769     0.000001875643    -0.000002135996
      12        0.000253995167     0.000139496080    -0.000721262602
      13        0.000008372453    -0.000008498349    -0.000007834462

  **** Optimization is complete! (in 8 steps) ****
    Final optimized geometry and variables:
    Molecular point group: c1

    Geometry (in Angstrom), charge = 0, multiplicity = 1:

    H           -2.395097055306    -1.264433148667    -0.366814752259
    C           -1.380561891904    -1.267114608131     0.014599412235
    C           -0.684940699088     0.008699858775    -0.443637609574
    H           -0.874252090243    -2.148149920116    -0.349129181951
    H           -1.425908618076    -1.313017362991     1.097181371306
    C           -1.387993178379     1.278881546675     0.010152566711
    N            0.749434341435    -0.002359252352     0.023745720481
    H           -0.579928892233     0.007879198888    -1.522206022803
    H           -2.400456391035     1.265274362690    -0.377597482701
    H           -0.889808088505     2.164660310493    -0.354942277660
    H           -1.436519739191     1.333051262748     1.091143367600
    O            1.236386029588     1.028034084677     0.371584797837
    O            1.328666818828    -1.044175695275    -0.028813259115

  Mulliken Charges: (a.u.)
   Center  Symbol    Alpha    Beta     Spin     Total
       1     H     0.41016  0.41016  0.00000  0.17969
       2     C     3.24683  3.24683  0.00000 -0.49366
       3     C     3.02861  3.02861  0.00000 -0.05722
       4     H     0.39126  0.39126  0.00000  0.21748
       5     H     0.40784  0.40784  0.00000  0.18431
       6     C     3.24270  3.24270  0.00000 -0.48540
       7     N     3.21631  3.21631  0.00000  0.56737
       8     H     0.38495  0.38495  0.00000  0.23011
       9     H     0.41202  0.41202  0.00000  0.17595
      10     H     0.39566  0.39566  0.00000  0.20869
      11     H     0.40622  0.40622  0.00000  0.18757
      12     O     4.22819  4.22819  0.00000 -0.45638
      13     O     4.22925  4.22925  0.00000 -0.45850

   Total alpha = 24.00000, Total beta = 24.00000, Total charge = -0.00000
