                              Psi4 1.0.54 Driver

  ==> Input File <==

--------------------------------------------------------------------------
set {
	reference rhf
	basis cc-pvtz
}

set_num_threads( 4 )
memory 2 gb

molecule MOL {
0 1

H	 2.626788	 -0.653274	 -0.686785
O	 2.012307	 -0.863440	 0.000222
C	 1.050374	 0.054877	 0.000135
C	 -0.318151	 -0.570512	 0.000144
O	 1.286319	 1.213453	 -0.000040
C	 -1.454884	 0.441630	 -0.000560
H	 -0.371613	 -1.223646	 -0.864985
H	 -0.371920	 -1.222758	 0.865929
C	 -2.822577	 -0.232186	 0.000063
H	 -1.359760	 1.084704	 -0.867077
H	 -1.359641	 1.085996	 0.864983
H	 -2.954352	 -0.858985	 -0.875745
H	 -3.615886	 0.505352	 0.000019
H	 -2.953878	 -0.858359	 0.876394

	symmetry c1
}
set optking {
	frozen_dihedral = ("
		1 2 3 5
	")
}

ee,wfn = optimize('scf', return_wfn=True)
oeprop( wfn, 'DIPOLE', 'QUADRUPOLE', 'MULLIKEN_CHARGES')
f=open( 'psi4out.xyz', 'w' )
f.write( "14  " )
f.write( str(ee) + "\n" )
f.write( MOL.save_string_xyz() )
f.close()
--------------------------------------------------------------------------

    Molecular point group: c1
  Charge       = 0
  Multiplicity = 1
  Basis Set: CC-PVTZ
  Basis Set:
  @DF-RHF Final Energy:  -305.98920636323822
    Total Energy =                       -305.9892063632380541
    Molecular point group: c1
  Basis Set: CC-PVTZ
  Basis Set:
  Basis Set: CC-PVTZ
  Basis Set:
  @DF-RHF Final Energy:  -305.98692438427645
    Total Energy =                       -305.9869243842764490
  Basis Set: CC-PVTZ
  Basis Set:
  Basis Set: CC-PVTZ
  Basis Set:
  @DF-RHF Final Energy:  -305.99017509484719
    Total Energy =                       -305.9901750948472454
  Basis Set: CC-PVTZ
  Basis Set:
  Basis Set: CC-PVTZ
  Basis Set:
  @DF-RHF Final Energy:  -305.99026754504166
    Total Energy =                       -305.9902675450415472
  Basis Set: CC-PVTZ
  Basis Set:
  Basis Set: CC-PVTZ
  Basis Set:
  @DF-RHF Final Energy:  -305.99027671108524
    Total Energy =                       -305.9902767110854711
  Basis Set: CC-PVTZ
  Basis Set:
  Basis Set: CC-PVTZ
  Basis Set:
  @DF-RHF Final Energy:  -305.99027893519082
    Total Energy =                       -305.9902789351908723
  Basis Set: CC-PVTZ
  Basis Set:
  Charge       = 0
  Multiplicity = 1
  Basis Set: CC-PVTZ
  Basis Set:

    Orbital Energies (a.u.)
    -----------------------

    Doubly Occupied:

       1A    -20.594558     2A    -20.546395     3A    -11.374419
       4A    -11.239722     5A    -11.223885     6A    -11.215672
       7A     -1.469158     8A     -1.370645     9A     -1.083932
      10A     -0.979274    11A     -0.856649    12A     -0.794761
      13A     -0.707953    14A     -0.686382    15A     -0.665898
      16A     -0.628109    17A     -0.580601    18A     -0.569382
      19A     -0.546546    20A     -0.507239    21A     -0.495127
      22A     -0.484364    23A     -0.483024    24A     -0.447471

  @DF-RHF Final Energy:  -305.99027904114411

   => Energetics <=

    Nuclear Repulsion Energy =            240.0027967899124519
    One-Electron Energy =                -892.8838208164828529
    Two-Electron Energy =                 346.8907449854261245
    DFT Exchange-Correlation Energy =       0.0000000000000000
    Empirical Dispersion Energy =           0.0000000000000000
    PCM Polarization Energy =               0.0000000000000000
    EFP Energy =                            0.0000000000000000
    Total Energy =                       -305.9902790411443334
    Molecular point group: c1
  Basis Set: CC-PVTZ
  Basis Set:

  -Total Gradient:
     Atom            X                  Y                   Z
    ------   -----------------  -----------------  -----------------
       1       -0.005024766255    -0.006589181971    -0.007440017669
       2        0.005820883362     0.008488992350     0.013914576042
       3        0.000074150578    -0.002302141003    -0.016455256721
       4       -0.000028940709    -0.000093580864     0.000040100895
       5       -0.000890924267     0.000532142974     0.009915439960
       6        0.000020504357     0.000007100500     0.000021564299
       7       -0.000011332207    -0.000023481774    -0.000000937431
       8       -0.000013432371    -0.000001808465     0.000011474277
       9        0.000030180141    -0.000028482601    -0.000003150651
      10        0.000005705865     0.000002506629    -0.000008635283
      11        0.000003509262     0.000006760768     0.000005394244
      12       -0.000004884767    -0.000004339461    -0.000003501970
      13        0.000023322673     0.000008038154    -0.000000256921
      14       -0.000003975659    -0.000002525234     0.000003206931

  **** Optimization is complete! (in 7 steps) ****
    Final optimized geometry and variables:
    Molecular point group: c1

    Geometry (in Angstrom), charge = 0, multiplicity = 1:

    H            2.726044606669    -0.708958484139    -0.473674472369
    O            2.022702373261    -0.860056696068     0.137070400759
    C            1.052534509144     0.061183458525    -0.020399121365
    C           -0.316405208794    -0.562190023635    -0.020287572193
    O            1.282158840496     1.216027205332    -0.055167129732
    C           -1.457209722235     0.444534630735    -0.009507814466
    H           -0.370675594618    -1.209883703891    -0.890707143140
    H           -0.362377646444    -1.224621193908     0.838192589988
    C           -2.822474819287    -0.234233983651    -0.011161747929
    H           -1.366992019003     1.096204922651    -0.870141486293
    H           -1.362142359790     1.081267406892     0.861983443795
    H           -2.954245314735    -0.853922940762    -0.892106533185
    H           -3.618536949375     0.500276788313    -0.002822033086
    H           -2.949115275883    -0.868487535333     0.859969715647

  Mulliken Charges: (a.u.)
   Center  Symbol    Alpha    Beta     Spin     Total
       1     H     0.38138  0.38138  0.00000  0.23723
       2     O     4.17247  4.17247  0.00000 -0.34495
       3     C     2.80495  2.80495  0.00000  0.39009
       4     C     3.10525  3.10525  0.00000 -0.21049
       5     O     4.17513  4.17513  0.00000 -0.35027
       6     C     3.08066  3.08066  0.00000 -0.16131
       7     H     0.44376  0.44376  0.00000  0.11248
       8     H     0.43790  0.43790  0.00000  0.12420
       9     C     3.14993  3.14993  0.00000 -0.29985
      10     H     0.44641  0.44641  0.00000  0.10717
      11     H     0.44600  0.44600  0.00000  0.10799
      12     H     0.45591  0.45591  0.00000  0.08818
      13     H     0.44512  0.44512  0.00000  0.10976
      14     H     0.45512  0.45512  0.00000  0.08977

   Total alpha = 24.00000, Total beta = 24.00000, Total charge = -0.00000

*** Psi4 exiting successfully. Buy a developer a beer!
