  ==> Input File <==

--------------------------------------------------------------------------
set {
	reference rhf
	basis 6-31G*
}

set_num_threads( 4 )
memory 2 gb

molecule MOL {
0 1

H	 2.465338	 -2.224223	 0.000000
O	 2.784187	 -1.332015	 0.000000
C	 1.765313	 -0.449364	 0.000000
C	 0.581648	 -0.840339	 0.618077
C	 1.863030	 0.799600	 -0.581958
H	 0.530677	 -1.816128	 1.063157
C	 -0.497234	 0.018725	 0.651054
H	 2.762647	 1.126794	 -1.064823
C	 0.760393	 1.637078	 -0.530581
H	 -1.407217	 -0.291255	 1.130326
C	 -0.423979	 1.279168	 0.073334
N	 0.869089	 2.957220	 -1.147750
H	 -1.252331	 1.956611	 0.090859
O	 1.906723	 3.243412	 -1.664898
O	 -0.084424	 3.671863	 -1.099144

	symmetry c1
}
set optking {
	frozen_dihedral = ("
		4 3 2 1
	")
}

ee = optimize('scf')
oeprop('DIPOLE', 'QUADRUPOLE', 'MULLIKEN_CHARGES')
f=open( 'psi4out.xyz', 'w' )
f.write( "15  " )
f.write( str(ee) + "\n" )
f.write( MOL.save_string_xyz() )
f.close()
--------------------------------------------------------------------------

    Molecular point group: c1
  Charge       = 0
  Multiplicity = 1
  Basis Set: 6-31G*
  Basis Set:
  @DF-RHF Final Energy:  -509.02360487626413
    Total Energy =                       -509.0236048762641303
    Molecular point group: c1
  Basis Set: 6-31G*
  Basis Set:
  Basis Set: 6-31G*
  Basis Set:
  @DF-RHF Final Energy:  -509.02567892751404
    Total Energy =                       -509.0256789275143774
  Basis Set: 6-31G*
  Basis Set:
  Basis Set: 6-31G*
  Basis Set:
  @DF-RHF Final Energy:  -509.01667563933324
    Total Energy =                       -509.0166756393334708
  Basis Set: 6-31G*
  Basis Set:
  Basis Set: 6-31G*
  Basis Set:
  @DF-RHF Final Energy:  -509.02572451627043
    Total Energy =                       -509.0257245162700883
  Basis Set: 6-31G*
  Basis Set:
  Basis Set: 6-31G*
  Basis Set:
  @DF-RHF Final Energy:  -509.02587274823941
    Total Energy =                       -509.0258727482395216
  Basis Set: 6-31G*
  Basis Set:
  Basis Set: 6-31G*
  Basis Set:
  @DF-RHF Final Energy:  -509.02589001372161
    Total Energy =                       -509.0258900137216642
  Basis Set: 6-31G*
  Basis Set:
  Basis Set: 6-31G*
  Basis Set:
  @DF-RHF Final Energy:  -509.02589253292865
    Total Energy =                       -509.0258925329286512
  Basis Set: 6-31G*
  Basis Set:
  Charge       = 0
  Multiplicity = 1
  Basis Set: 6-31G*
  Basis Set:

    Orbital Energies (a.u.)
    -----------------------

    Doubly Occupied:

       1A    -20.612350     2A    -20.602362     3A    -20.602047
       4A    -15.856817     5A    -11.328520     6A    -11.309372
       7A    -11.268363     8A    -11.266138     9A    -11.263873
      10A    -11.263750    11A     -1.635771    12A     -1.432289
      13A     -1.419075    14A     -1.199939    15A     -1.094206
      16A     -1.047349    17A     -0.964231    18A     -0.864109
      19A     -0.845556    20A     -0.794841    21A     -0.734653
      22A     -0.732417    23A     -0.718254    24A     -0.710741
      25A     -0.678524    26A     -0.637656    27A     -0.622638
      28A     -0.582855    29A     -0.564992    30A     -0.535852
      31A     -0.514594    32A     -0.489675    33A     -0.487364
      34A     -0.452038    35A     -0.378364    36A     -0.345212

  @DF-RHF Final Energy:  -509.02589279695019

   => Energetics <=

    Nuclear Repulsion Energy =            503.2293413073115289
    One-Electron Energy =               -1692.7968917979292200
    Two-Electron Energy =                 680.5416576936675028
    DFT Exchange-Correlation Energy =       0.0000000000000000
    Empirical Dispersion Energy =           0.0000000000000000
    PCM Polarization Energy =               0.0000000000000000
    EFP Energy =                            0.0000000000000000
    Total Energy =                       -509.0258927969500746
    Molecular point group: c1
  Basis Set: 6-31G*
  Basis Set:

  -Total Gradient:
     Atom            X                  Y                   Z
    ------   -----------------  -----------------  -----------------
       1       -0.000051482163    -0.000020501820    -0.001979391793
       2        0.000368969902     0.000328256823     0.003194870393
       3       -0.000824072993    -0.000974908736    -0.002494744099
       4        0.000524542214     0.000597878727     0.001276856530
       5       -0.000028830955     0.000061604487     0.000004274359
       6        0.000001449083    -0.000003645653     0.000004431548
       7       -0.000010326603     0.000014457234     0.000007591656
       8       -0.000003456590    -0.000016047514     0.000006807251
       9        0.000024230333    -0.000006050314    -0.000012097081
      10        0.000000426590     0.000002141550    -0.000004798436
      11        0.000001021349    -0.000000087643    -0.000006890828
      12        0.000035466861    -0.000002925106     0.000021110421
      13        0.000001918080     0.000000199470    -0.000000307185
      14       -0.000023937634     0.000005050228    -0.000005595909
      15       -0.000015917483     0.000014578260    -0.000012116823

  **** Optimization is complete! (in 8 steps) ****
    Final optimized geometry and variables:
    Molecular point group: c1

    Geometry (in Angstrom), charge = 0, multiplicity = 1:

    H            1.586863904852    -3.330702352954     0.385947632416
    O            1.834527180038    -2.416522189347     0.370954903187
    C            0.745187365145    -1.615317989225     0.400727447859
    C           -0.434373739462    -1.986883021499     1.027709914180
    C            0.859056732419    -0.362760689308    -0.179674902674
    H           -0.509473803424    -2.954073417617     1.493541947708
    C           -1.511275958632    -1.115533450295     1.057961769045
    H            1.770054259438    -0.069327884666    -0.658607764962
    C           -0.227634707197     0.485407295545    -0.121295209939
    H           -2.422410637626    -1.415516045763     1.541372784888
    C           -1.421865674307     0.138687298986     0.483578346598
    N           -0.109120387458     1.807124834660    -0.735329325127
    H           -2.240945682713     0.827146448898     0.501980907302
    O            0.928255262866     2.087741464188    -1.252947395596
    O           -1.059177589591     2.527498445031    -0.682316931754

  Mulliken Charges: (a.u.)
   Center  Symbol    Alpha    Beta     Spin     Total
       1     H     0.26897  0.26897  0.00000  0.46206
       2     O     4.37622  4.37622  0.00000 -0.75245
       3     C     2.80137  2.80137  0.00000  0.39726
       4     C     3.12327  3.12327  0.00000 -0.24654
       5     C     3.11171  3.11171  0.00000 -0.22343
       6     H     0.39203  0.39203  0.00000  0.21593
       7     C     3.10069  3.10069  0.00000 -0.20137
       8     H     0.35744  0.35744  0.00000  0.28513
       9     C     2.91378  2.91378  0.00000  0.17243
      10     H     0.38694  0.38694  0.00000  0.22611
      11     C     3.09624  3.09624  0.00000 -0.19248
      12     N     3.24113  3.24113  0.00000  0.51774
      13     H     0.36503  0.36503  0.00000  0.26994
      14     O     4.23198  4.23198  0.00000 -0.46397
      15     O     4.23318  4.23318  0.00000 -0.46637

   Total alpha = 36.00000, Total beta = 36.00000, Total charge = -0.00000
