                              Psi4 1.0.54 Driver

  ==> Input File <==

--------------------------------------------------------------------------
set {
	reference rhf
	basis cc-pvtz
}

set_num_threads( 4 )
memory 2 gb

molecule MOL {
0 1

H	 -2.149557	 -2.244277	 0.000000
O	 -2.454439	 -1.354638	 -0.000000
C	 -1.430689	 -0.482187	 0.000000
C	 -1.742608	 0.869618	 -0.000000
C	 -0.111900	 -0.884699	 0.000000
H	 -2.773850	 1.162140	 -0.000000
C	 -0.735273	 1.807214	 0.000000
H	 0.143599	 -1.927133	 0.000000
C	 0.892430	 0.073920	 0.000000
H	 -0.984964	 2.850282	 -0.000000
C	 0.594042	 1.421661	 0.000000
C	 2.269519	 -0.356119	 0.000000
H	 1.379991	 2.149163	 0.000000
N	 3.345273	 -0.695880	 -0.000000

	symmetry c1
}
ee,wfn = energy('scf', return_wfn=True)
oeprop( wfn, 'DIPOLE', 'QUADRUPOLE', 'MULLIKEN_CHARGES')
oeprop( wfn, 'GRID_ESP')
f=open( 'psi4out.xyz', 'w' )
f.write( "14  " )
f.write( str(ee) + "\n" )
f.write( MOL.save_string_xyz() )
f.close()
--------------------------------------------------------------------------

    Molecular point group: c1

    Geometry (in Angstrom), charge = 0, multiplicity = 1:

       Center              X                  Y                   Z               Mass
    ------------   -----------------  -----------------  -----------------  -----------------
           H         -2.149495868556    -2.244166663776     0.000000000000     1.007825032070
           O         -2.454377868556    -1.354527663776     0.000000000000    15.994914619560
           C         -1.430627868556    -0.482076663776     0.000000000000    12.000000000000
           C         -1.742546868556     0.869728336224     0.000000000000    12.000000000000
           C         -0.111838868556    -0.884588663776     0.000000000000    12.000000000000
           H         -2.773788868556     1.162250336224     0.000000000000     1.007825032070
           C         -0.735211868556     1.807324336224     0.000000000000    12.000000000000
           H          0.143660131444    -1.927022663776     0.000000000000     1.007825032070
           C          0.892491131444     0.074030336224     0.000000000000    12.000000000000
           H         -0.984902868556     2.850392336224     0.000000000000     1.007825032070
           C          0.594103131444     1.421771336224     0.000000000000    12.000000000000
           C          2.269580131444    -0.356008663776     0.000000000000    12.000000000000
           H          1.380052131444     2.149273336224     0.000000000000     1.007825032070
           N          3.345334131444    -0.695769663776     0.000000000000    14.003074004780

  Charge       = 0
  Multiplicity = 1
  Basis Set: CC-PVTZ
  Basis Set:

    Orbital Energies (a.u.)
    -----------------------

    Doubly Occupied:

       1A    -20.607213     2A    -15.565742     3A    -11.325196
       4A    -11.293062     5A    -11.269190     6A    -11.261077
       7A    -11.260347     8A    -11.255917     9A    -11.251841
      10A     -1.439513    11A     -1.238759    12A     -1.186978
      13A     -1.067081    14A     -1.042591    15A     -0.900027
      16A     -0.872051    17A     -0.783052    18A     -0.731275
      19A     -0.702674    20A     -0.668775    21A     -0.629386
      22A     -0.621024    23A     -0.598311    24A     -0.566384
      25A     -0.553860    26A     -0.545487    27A     -0.530393
      28A     -0.479882    29A     -0.479638    30A     -0.368243
      31A     -0.341684

  @DF-RHF Final Energy:  -397.43298633248145

   => Energetics <=

    Nuclear Repulsion Energy =            380.5412602383252647
    One-Electron Energy =               -1293.0746489210162053
    Two-Electron Energy =                 515.1004023502090376
    DFT Exchange-Correlation Energy =       0.0000000000000000
    Empirical Dispersion Energy =           0.0000000000000000
    PCM Polarization Energy =               0.0000000000000000
    EFP Energy =                            0.0000000000000000
    Total Energy =                       -397.4329863324818461

  Mulliken Charges: (a.u.)
   Center  Symbol    Alpha    Beta     Spin     Total
       1     H     0.38494  0.38494  0.00000  0.23012
       2     O     4.16846  4.16846  0.00000 -0.33691
       3     C     2.84073  2.84073  0.00000  0.31855
       4     C     3.10622  3.10622  0.00000 -0.21244
       5     C     3.14631  3.14631  0.00000 -0.29261
       6     H     0.41404  0.41404  0.00000  0.17193
       7     C     3.05021  3.05021  0.00000 -0.10043
       8     H     0.42325  0.42325  0.00000  0.15351
       9     C     2.92895  2.92895  0.00000  0.14211
      10     H     0.41675  0.41675  0.00000  0.16649
      11     C     3.10547  3.10547  0.00000 -0.21094
      12     C     3.02568  3.02568  0.00000 -0.05137
      13     H     0.41436  0.41436  0.00000  0.17127
      14     N     3.57463  3.57463  0.00000 -0.14927

   Total alpha = 31.00000, Total beta = 31.00000, Total charge = -0.00000

*** Psi4 exiting successfully. Buy a developer a beer!
