  ==> Input File <==

--------------------------------------------------------------------------
set {
	reference rhf
	basis 6-31G*
}

set_num_threads( 1 )
memory 2 gb

molecule MOL {
0 1

O	 -1.411761	 -2.688520	 -0.088800
C	 -1.011506	 -1.961517	 -0.946528
C	 -0.889235	 -0.467034	 -0.705952
C	 -0.577730	 -2.489057	 -2.295941
C	 0.379448	 -0.143569	 0.099626
H	 -1.763252	 -0.151374	 -0.146705
H	 -0.877956	 0.072263	 -1.648850
C	 1.631333	 -0.777471	 -0.511575
H	 0.482768	 0.934507	 0.149241
H	 0.263088	 -0.495696	 1.123449
C	 2.915987	 -0.544314	 0.291766
H	 1.766672	 -0.399098	 -1.523130
H	 1.471257	 -1.849544	 -0.605828
C	 3.373361	 0.914346	 0.347591
H	 3.708709	 -1.142521	 -0.150311
H	 2.780642	 -0.921148	 1.303579
H	 3.506512	 1.320010	 -0.651625
H	 4.322697	 0.999599	 0.867103
H	 2.660624	 1.545032	 0.868198
H	 -1.253565	 -2.124503	 -3.065104
H	 -0.588417	 -3.570100	 -2.291736
H	 0.416350	 -2.130727	 -2.547354

	symmetry c1
}
set optking {
	frozen_dihedral = ("
		6 3 2 1,
		3 5 8 12,
		12 8 11 15
	")
}

ee = energy('scf')
oeprop('DIPOLE', 'QUADRUPOLE', 'MULLIKEN_CHARGES')
f=open( 'psi4out.xyz', 'w' )
f.write( "22  " )
f.write( str(ee) + "\n" )
f.write( MOL.save_string_xyz() )
f.close()
--------------------------------------------------------------------------

    Molecular point group: c1

    Geometry (in Angstrom), charge = 0, multiplicity = 1:

       Center              X                  Y                   Z               Mass
    ------------   -----------------  -----------------  -----------------  -----------------
           O         -1.975343161789    -1.666638326840     0.388452791103    15.994914619560
           C         -1.575088161789    -0.939635326840    -0.469275208897    12.000000000000
           C         -1.452817161789     0.554847673160    -0.228699208897    12.000000000000
           C         -1.141312161789    -1.467175326840    -1.818688208897    12.000000000000
           C         -0.184134161789     0.878312673160     0.576878791103    12.000000000000
           H         -2.326834161789     0.870507673160     0.330547791103     1.007825032070
           H         -1.441538161789     1.094144673160    -1.171597208897     1.007825032070
           C          1.067750838211     0.244410673160    -0.034322208897    12.000000000000
           H         -0.080814161789     1.956388673160     0.626493791103     1.007825032070
           H         -0.300494161789     0.526185673160     1.600701791103     1.007825032070
           C          2.352404838211     0.477567673160     0.769018791103    12.000000000000
           H          1.203089838211     0.622783673160    -1.045877208897     1.007825032070
           H          0.907674838211    -0.827662326840    -0.128575208897     1.007825032070
           C          2.809778838211     1.936227673160     0.824843791103    12.000000000000
           H          3.145126838211    -0.120639326840     0.326941791103     1.007825032070
           H          2.217059838211     0.100733673160     1.780831791103     1.007825032070
           H          2.942929838211     2.341891673160    -0.174372208897     1.007825032070
           H          3.759114838211     2.021480673160     1.344355791103     1.007825032070
           H          2.097041838211     2.566913673160     1.345450791103     1.007825032070
           H         -1.817147161789    -1.102621326840    -2.587851208897     1.007825032070
           H         -1.151999161789    -2.548218326840    -1.814483208897     1.007825032070
           H         -0.147232161789    -1.108845326840    -2.070101208897     1.007825032070

  Charge       = 0
  Multiplicity = 1
  Basis Set: 6-31G*
  Basis Set:

    Orbital Energies (a.u.)
    -----------------------

    Doubly Occupied:

       1A    -20.547114     2A    -11.323760     3A    -11.229451
       4A    -11.228786     5A    -11.226093     6A    -11.223992
       7A    -11.221527     8A    -11.213506     9A     -1.392979
      10A     -1.098879    11A     -1.043137    12A     -0.997922
      13A     -0.940850    14A     -0.859068    15A     -0.791989
      16A     -0.729001    17A     -0.663294    18A     -0.639077
      19A     -0.630642    20A     -0.618305    21A     -0.598131
      22A     -0.585168    23A     -0.562510    24A     -0.549166
      25A     -0.531809    26A     -0.526605    27A     -0.495555
      28A     -0.489900    29A     -0.472039    30A     -0.465379
      31A     -0.453435    32A     -0.396935

  @DF-RHF Final Energy:  -348.09373115386512

   => Energetics <=

    Nuclear Repulsion Energy =            383.8178093671414786
    One-Electron Energy =               -1232.3311669655458900
    Two-Electron Energy =                 500.4196264445389488
    DFT Exchange-Correlation Energy =       0.0000000000000000
    Empirical Dispersion Energy =           0.0000000000000000
    PCM Polarization Energy =               0.0000000000000000
    EFP Energy =                            0.0000000000000000
    Total Energy =                       -348.0937311538654058

  Mulliken Charges: (a.u.)
   Center  Symbol    Alpha    Beta     Spin     Total
       1     O     4.26283  4.26283  0.00000 -0.52567
       2     C     2.74276  2.74276  0.00000  0.51448
       3     C     3.19944  3.19944  0.00000 -0.39889
       4     C     3.28984  3.28984  0.00000 -0.57968
       5     C     3.15717  3.15717  0.00000 -0.31434
       6     H     0.39969  0.39969  0.00000  0.20062
       7     H     0.41676  0.41676  0.00000  0.16647
       8     C     3.16588  3.16588  0.00000 -0.33176
       9     H     0.41385  0.41385  0.00000  0.17230
      10     H     0.40864  0.40864  0.00000  0.18272
      11     C     3.15169  3.15169  0.00000 -0.30337
      12     H     0.42454  0.42454  0.00000  0.15092
      13     H     0.41470  0.41470  0.00000  0.17059
      14     C     3.24212  3.24212  0.00000 -0.48423
      15     H     0.41950  0.41950  0.00000  0.16100
      16     H     0.41938  0.41938  0.00000  0.16124
      17     H     0.42231  0.42231  0.00000  0.15537
      18     H     0.41726  0.41726  0.00000  0.16547
      19     H     0.41975  0.41975  0.00000  0.16051
      20     H     0.40770  0.40770  0.00000  0.18460
      21     H     0.39796  0.39796  0.00000  0.20408
      22     H     0.40623  0.40623  0.00000  0.18754

   Total alpha = 32.00000, Total beta = 32.00000, Total charge =  0.00000
