                              Psi4 1.0.54 Driver

  ==> Input File <==

--------------------------------------------------------------------------
set {
	reference rhf
	basis cc-pvtz
}

set_num_threads( 4 )
memory 2 gb

molecule MOL {
0 1

H	 -1.140736	 -0.466009	 0.677707
N	 -0.712187	 0.000026	 -0.093397
C	 0.734067	 -0.000020	 0.038424
H	 -1.068990	 0.931634	 -0.108986
H	 1.140372	 -0.872115	 -0.458226
H	 1.140363	 0.872301	 -0.457869
H	 1.095085	 -0.000244	 1.065614

	symmetry c1
}
set optking {
	frozen_dihedral = ("
		1 2 3 7
	")
}

ee,wfn = optimize('scf', return_wfn=True)
oeprop( wfn, 'DIPOLE', 'QUADRUPOLE', 'MULLIKEN_CHARGES')
f=open( 'psi4out.xyz', 'w' )
f.write( "7  " )
f.write( str(ee) + "\n" )
f.write( MOL.save_string_xyz() )
f.close()
--------------------------------------------------------------------------

    Molecular point group: c1
  Charge       = 0
  Multiplicity = 1
  Basis Set: CC-PVTZ
  Basis Set:
  @DF-RHF Final Energy:   -95.25205202085510
    Total Energy =                        -95.2520520208550465
    Molecular point group: c1
  Basis Set: CC-PVTZ
  Basis Set:
  Basis Set: CC-PVTZ
  Basis Set:
  @DF-RHF Final Energy:   -95.25214490758853
    Total Energy =                        -95.2521449075885585
  Basis Set: CC-PVTZ
  Basis Set:
  Basis Set: CC-PVTZ
  Basis Set:
  @DF-RHF Final Energy:   -95.25216056689571
    Total Energy =                        -95.2521605668957108
  Basis Set: CC-PVTZ
  Basis Set:
  Charge       = 0
  Multiplicity = 1
  Basis Set: CC-PVTZ
  Basis Set:

    Orbital Energies (a.u.)
    -----------------------

    Doubly Occupied:

       1A    -15.528556     2A    -11.235746     3A     -1.171525
       4A     -0.897752     5A     -0.664677     6A     -0.602106
       7A     -0.558084     8A     -0.518162     9A     -0.387187

  @DF-RHF Final Energy:   -95.25216114887672

   => Energetics <=

    Nuclear Repulsion Energy =             42.3358321980021799
    One-Electron Energy =                -212.0483981216447376
    Two-Electron Energy =                  74.4604047747658342
    DFT Exchange-Correlation Energy =       0.0000000000000000
    Empirical Dispersion Energy =           0.0000000000000000
    PCM Polarization Energy =               0.0000000000000000
    EFP Energy =                            0.0000000000000000
    Total Energy =                        -95.2521611488767235
    Molecular point group: c1
  Basis Set: CC-PVTZ
  Basis Set:

  -Total Gradient:
     Atom            X                  Y                   Z
    ------   -----------------  -----------------  -----------------
       1       -0.000151781808     0.002508413680     0.001428021141
       2        0.000196736860    -0.003966218601    -0.001752483292
       3       -0.000128564371     0.004223124270     0.000326495259
       4        0.000016437076    -0.000017378738    -0.000011321446
       5        0.000004621890    -0.000006353761     0.000008082402
       6        0.000034722234    -0.000005684181    -0.000001085691
       7        0.000027828121    -0.002735902668     0.000002291627

  **** Optimization is complete! (in 4 steps) ****
    Final optimized geometry and variables:
    Molecular point group: c1

    Geometry (in Angstrom), charge = 0, multiplicity = 1:

    H           -1.142709627700    -0.483644972007     0.680232522908
    N           -0.715094651144    -0.016227519450    -0.090334931971
    C            0.735762103924    -0.013055105712     0.040509235108
    H           -1.068537685673     0.916512689305    -0.078759704692
    H            1.151532165765    -0.891524320361    -0.439370154755
    H            1.149440523338     0.852938535087    -0.459319094174
    H            1.085456858900    -0.013366185641     1.070025094455

  Mulliken Charges: (a.u.)
   Center  Symbol    Alpha    Beta     Spin     Total
       1     H     0.42978  0.42978  0.00000  0.14043
       2     N     3.68464  3.68464  0.00000 -0.36927
       3     C     3.07042  3.07042  0.00000 -0.14084
       4     H     0.42875  0.42875  0.00000  0.14249
       5     H     0.45856  0.45856  0.00000  0.08287
       6     H     0.45803  0.45803  0.00000  0.08394
       7     H     0.46982  0.46982  0.00000  0.06037

   Total alpha =  9.00000, Total beta =  9.00000, Total charge =  0.00000

*** Psi4 exiting successfully. Buy a developer a beer!
