  ==> Input File <==

--------------------------------------------------------------------------
set {
	reference rhf
	basis cc-pvtz
}

set_num_threads( 4 )
memory 2 gb

molecule MOL {
0 1

H	 0.941048	 1.621430	 -0.138029
O	 0.057669	 1.301365	 -0.158528
C	 0.004145	 -0.005141	 0.363049
C	 1.199168	 -0.827145	 -0.096690
C	 -1.316386	 -0.602081	 -0.083515
H	 0.012026	 0.043363	 1.450619
H	 1.216685	 -0.896776	 -1.178167
H	 2.129940	 -0.372354	 0.228035
H	 1.160783	 -1.829622	 0.314294
H	 -1.357882	 -0.655920	 -1.165207
H	 -2.140147	 0.011735	 0.257253
H	 -1.440790	 -1.601175	 0.317669

	symmetry c1
}
set optking {
	frozen_dihedral = ("
		1 2 3 4
	")
}

ee = optimize('scf')
oeprop('DIPOLE', 'QUADRUPOLE', 'MULLIKEN_CHARGES')
f=open( 'psi4out.xyz', 'w' )
f.write( "12  " )
f.write( str(ee) + "\n" )
f.write( MOL.save_string_xyz() )
f.close()
--------------------------------------------------------------------------

    Molecular point group: c1
  Charge       = 0
  Multiplicity = 1
  Basis Set: CC-PVTZ
  Basis Set:
  @DF-RHF Final Energy:  -193.19559643985343
    Total Energy =                       -193.1955964398533467
    Molecular point group: c1
  Basis Set: CC-PVTZ
  Basis Set:
  Basis Set: CC-PVTZ
  Basis Set:
  @DF-RHF Final Energy:  -193.19562117311034
    Total Energy =                       -193.1956211731103394
  Basis Set: CC-PVTZ
  Basis Set:
  Basis Set: CC-PVTZ
  Basis Set:
  @DF-RHF Final Energy:  -193.19562864317297
    Total Energy =                       -193.1956286431729950
  Basis Set: CC-PVTZ
  Basis Set:
  Charge       = 0
  Multiplicity = 1
  Basis Set: CC-PVTZ
  Basis Set:

    Orbital Energies (a.u.)
    -----------------------

    Doubly Occupied:

       1A    -20.543711     2A    -11.273949     3A    -11.214323
       4A    -11.205179     5A     -1.364392     6A     -1.043721
       7A     -0.942591     8A     -0.806300     9A     -0.693824
      10A     -0.636070    11A     -0.607637    12A     -0.547297
      13A     -0.535357    14A     -0.529401    15A     -0.513703
      16A     -0.470361    17A     -0.431930

  @DF-RHF Final Energy:  -193.19562875863841

   => Energetics <=

    Nuclear Repulsion Energy =            135.7643518528533946
    One-Electron Energy =                -531.2004708500071501
    Two-Electron Energy =                 202.2404902385154060
    DFT Exchange-Correlation Energy =       0.0000000000000000
    Empirical Dispersion Energy =           0.0000000000000000
    PCM Polarization Energy =               0.0000000000000000
    EFP Energy =                            0.0000000000000000
    Total Energy =                       -193.1956287586383496
    Molecular point group: c1
  Basis Set: CC-PVTZ
  Basis Set:

  -Total Gradient:
     Atom            X                  Y                   Z
    ------   -----------------  -----------------  -----------------
       1        0.000242844826    -0.000536372086    -0.001371517779
       2       -0.000095315263     0.000786880053     0.001971839886
       3       -0.000626979484    -0.000516196510    -0.001351058284
       4        0.000481940268     0.000278734071     0.000757483097
       5       -0.000004490081    -0.000008833988    -0.000004205115
       6        0.000006540552    -0.000012116776    -0.000002523805
       7       -0.000009707551     0.000000159845     0.000003231836
       8        0.000007724768     0.000000517853    -0.000003532409
       9       -0.000001986553     0.000005765331     0.000000583106
      10       -0.000000408234     0.000001024671     0.000000166344
      11        0.000001017644    -0.000001142604    -0.000002079022
      12       -0.000001180893     0.000001580142     0.000001612143

  **** Optimization is complete! (in 4 steps) ****
    Final optimized geometry and variables:
    Molecular point group: c1

    Geometry (in Angstrom), charge = 0, multiplicity = 1:

    H            0.936760586944     1.630363090755    -0.121311391629
    O            0.055430180590     1.306043097222    -0.147187159997
    C            0.002983608302    -0.005611890457     0.362171704158
    C            1.199377411571    -0.824737840554    -0.097232720937
    C           -1.319243106315    -0.602374172613    -0.079267321736
    H            0.015916357310     0.038903672241     1.449915888874
    H            1.222390615694    -0.893484274672    -1.179155448267
    H            2.128829130171    -0.372098087940     0.235285878885
    H            1.159135342686    -1.828025390035     0.310465046021
    H           -1.358557459710    -0.676772507094    -1.159825720289
    H           -2.139232990602     0.024296727667     0.247260294847
    H           -1.453263793702    -1.591836884480     0.342571827075

  Mulliken Charges: (a.u.)
   Center  Symbol    Alpha    Beta     Spin     Total
       1     H     0.39458  0.39458  0.00000  0.21084
       2     O     4.20597  4.20597  0.00000 -0.41193
       3     C     2.91996  2.91996  0.00000  0.16009
       4     C     3.14977  3.14977  0.00000 -0.29953
       5     C     3.14098  3.14098  0.00000 -0.28196
       6     H     0.46675  0.46675  0.00000  0.06650
       7     H     0.45053  0.45053  0.00000  0.09894
       8     H     0.45762  0.45762  0.00000  0.08477
       9     H     0.45432  0.45432  0.00000  0.09136
      10     H     0.45442  0.45442  0.00000  0.09115
      11     H     0.44595  0.44595  0.00000  0.10811
      12     H     0.45916  0.45916  0.00000  0.08167

   Total alpha = 17.00000, Total beta = 17.00000, Total charge = -0.00000
