                              Psi4 1.0.54 Driver

  ==> Input File <==

--------------------------------------------------------------------------
set {
	reference rhf
	basis cc-pvtz
}

set_num_threads( 4 )
memory 2 gb

molecule MOL {
0 1

H	 2.319156	 -2.659270	 -0.113109
O	 3.056937	 -2.406777	 -0.636326
C	 2.717534	 -2.430118	 -1.997771
C	 1.800703	 -1.289524	 -2.413886
H	 3.652632	 -2.357667	 -2.536587
H	 2.267686	 -3.385695	 -2.260372
C	 0.412299	 -1.337647	 -1.779956
H	 2.284056	 -0.349514	 -2.165071
H	 1.702933	 -1.317457	 -3.496503
C	 -0.490291	 -0.196272	 -2.246249
H	 0.509790	 -1.303052	 -0.700001
H	 -0.061038	 -2.287922	 -2.021238
C	 -1.918392	 -0.236922	 -1.699321
H	 -0.031294	 0.752969	 -1.980748
H	 -0.537783	 -0.215365	 -3.331537
C	 -2.041121	 -0.006551	 -0.194127
H	 -2.502007	 0.521745	 -2.213465
H	 -2.373253	 -1.191252	 -1.955273
C	 -3.489218	 0.042606	 0.286507
H	 -1.546243	 0.926503	 0.066590
H	 -1.519045	 -0.789516	 0.347542
C	 -4.219984	 1.311773	 -0.139038
H	 -4.022855	 -0.824300	 -0.093339
H	 -3.510372	 -0.038577	 1.370031
H	 -4.244251	 1.405725	 -1.219696
H	 -5.244345	 1.313233	 0.215630
H	 -3.732090	 2.196311	 0.257073

	symmetry c1
}
set optking {
	frozen_dihedral = ("
		20 16 19 22
	")
}

ee,wfn = optimize('scf', return_wfn=True)
oeprop( wfn, 'DIPOLE', 'QUADRUPOLE', 'MULLIKEN_CHARGES')
f=open( 'psi4out.xyz', 'w' )
f.write( "27  " )
f.write( str(ee) + "\n" )
f.write( MOL.save_string_xyz() )
f.close()
--------------------------------------------------------------------------

    Molecular point group: c1
  Charge       = 0
  Multiplicity = 1
  Basis Set: CC-PVTZ
  Basis Set:
  @DF-RHF Final Energy:  -388.42546264376756
    Total Energy =                       -388.4254626437677871
    Molecular point group: c1
  Basis Set: CC-PVTZ
  Basis Set:
  Basis Set: CC-PVTZ
  Basis Set:
  @DF-RHF Final Energy:  -388.42565649746837
    Total Energy =                       -388.4256564974681396
  Basis Set: CC-PVTZ
  Basis Set:
  Basis Set: CC-PVTZ
  Basis Set:
  @DF-RHF Final Energy:  -388.42580667271466
    Total Energy =                       -388.4258066727143159
  Basis Set: CC-PVTZ
  Basis Set:
  Basis Set: CC-PVTZ
  Basis Set:
  @DF-RHF Final Energy:  -388.42580506199619
    Total Energy =                       -388.4258050619963569
  Basis Set: CC-PVTZ
  Basis Set:
  Basis Set: CC-PVTZ
  Basis Set:
  @DF-RHF Final Energy:  -388.42581923827589
    Total Energy =                       -388.4258192382758352
  Basis Set: CC-PVTZ
  Basis Set:
  Charge       = 0
  Multiplicity = 1
  Basis Set: CC-PVTZ
  Basis Set:

    Orbital Energies (a.u.)
    -----------------------

    Doubly Occupied:

       1A    -20.545313     2A    -11.264941     3A    -11.216622
       4A    -11.214618     5A    -11.214307     6A    -11.213180
       7A    -11.212811     8A    -11.212026     9A    -11.206836
      10A     -1.363204    11A     -1.095915    12A     -1.061831
      13A     -1.010718    14A     -0.947678    15A     -0.893325
      16A     -0.827205    17A     -0.798785    18A     -0.772108
      19A     -0.696220    20A     -0.647304    21A     -0.633053
      22A     -0.618819    23A     -0.609754    24A     -0.590026
      25A     -0.579700    26A     -0.554362    27A     -0.539516
      28A     -0.528994    29A     -0.507007    30A     -0.496521
      31A     -0.486622    32A     -0.473895    33A     -0.470180
      34A     -0.461129    35A     -0.449119    36A     -0.440718
      37A     -0.425823

  @DF-RHF Final Energy:  -388.42581934739877

   => Energetics <=

    Nuclear Repulsion Energy =            461.7236311718723414
    One-Electron Energy =               -1441.7385187112786298
    Two-Electron Energy =                 591.5890681920072893
    DFT Exchange-Correlation Energy =       0.0000000000000000
    Empirical Dispersion Energy =           0.0000000000000000
    PCM Polarization Energy =               0.0000000000000000
    EFP Energy =                            0.0000000000000000
    Total Energy =                       -388.4258193473990559
    Molecular point group: c1
  Basis Set: CC-PVTZ
  Basis Set:

  -Total Gradient:
     Atom            X                  Y                   Z
    ------   -----------------  -----------------  -----------------
       1       -0.000000667579     0.000000316469     0.000005870709
       2       -0.000007065390    -0.000002774232     0.000006971539
       3        0.000011669849     0.000007441898    -0.000007262517
       4       -0.000003011378    -0.000008261646    -0.000003596789
       5        0.000000031650    -0.000000772613    -0.000004164568
       6       -0.000000518192     0.000000731692     0.000000160403
       7        0.000000367019    -0.000004095642    -0.000003686531
       8        0.000000426564    -0.000001891760    -0.000000169959
       9       -0.000000460495     0.000000479582    -0.000000370844
      10        0.000006254110     0.000013240774     0.000010632669
      11       -0.000002858562    -0.000001539348     0.000001806921
      12        0.000005175097    -0.000001964509     0.000000039223
      13       -0.000006212164     0.000014710381    -0.000002434783
      14        0.000002150156     0.000006865319    -0.000006393641
      15       -0.000003080866    -0.000005042457     0.000007015801
      16        0.000383987357    -0.000310030775     0.001108547407
      17       -0.000006951765     0.000002055174    -0.000007299900
      18       -0.000001878982     0.000002461994     0.000007189620
      19       -0.000330489354    -0.000328975563    -0.000915620739
      20       -0.000244370003     0.000326149889    -0.000732751925
      21        0.000002697259     0.000002309493     0.000008340832
      22        0.000196099550     0.000287654655     0.000532096738
      23        0.000003532874    -0.000012185425     0.000002027279
      24       -0.000002035322     0.000005134496    -0.000004836596
      25        0.000004497349    -0.000005685204    -0.000004816996
      26       -0.000007329006     0.000000477571     0.000005123662
      27        0.000000040225     0.000013189787    -0.000002417013

  **** Optimization is complete! (in 6 steps) ****
    Final optimized geometry and variables:
    Molecular point group: c1

    Geometry (in Angstrom), charge = 0, multiplicity = 1:

    H            2.724916595949    -1.915468118682     1.083950281933
    O            3.468130348703    -1.667954504966     0.566311905303
    C            3.138951747849    -1.688949418285    -0.797641115648
    C            2.232850194821    -0.542422625617    -1.220651541136
    H            4.078544969057    -1.622772850641    -1.329379517684
    H            2.684758749228    -2.641500732170    -1.063578379537
    C            0.841112153080    -0.578369207754    -0.593298883856
    H            2.722212030965     0.394323240852    -0.971503745453
    H            2.140233923079    -0.571969456259    -2.303653525102
    C           -0.052436180676     0.564876255365    -1.072341491190
    H            0.933698586087    -0.537661998017     0.486765368172
    H            0.363734044086    -1.527448543083    -0.830969975503
    C           -1.487917208750     0.532513229085    -0.542803338601
    H            0.407177846307     1.513310063240    -0.805054623387
    H           -0.087342465227     0.542320548594    -2.158009660791
    C           -1.620746131869     0.763416001354     0.963172376758
    H           -2.057015781078     1.288869504099    -1.072522231033
    H           -1.942566479951    -0.422193141102    -0.798364848125
    C           -3.066139268730     0.794998234809     1.467430598387
    H           -1.132431646945     1.700447034865     1.221980083567
    H           -1.089744936323    -0.017421145987     1.496371079451
    C           -3.848038921710     2.047240121756     1.077683225891
    H           -3.590881935426    -0.087535393680     1.111162014849
    H           -3.054906977237     0.721895995658     2.550593635873
    H           -3.954815322504     2.143913596576     0.003879514660
    H           -4.845278352069     2.025789680374     1.502284805397
    H           -3.353536352420     2.941520519888     1.442731907884

  Mulliken Charges: (a.u.)
   Center  Symbol    Alpha    Beta     Spin     Total
       1     H     0.39229  0.39229  0.00000  0.21542
       2     O     4.20553  4.20553  0.00000 -0.41106
       3     C     2.98000  2.98000  0.00000  0.04000
       4     C     3.08920  3.08920  0.00000 -0.17841
       5     H     0.44855  0.44855  0.00000  0.10290
       6     H     0.46970  0.46970  0.00000  0.06059
       7     C     3.10266  3.10266  0.00000 -0.20532
       8     H     0.45079  0.45079  0.00000  0.09843
       9     H     0.45529  0.45529  0.00000  0.08942
      10     C     3.09720  3.09720  0.00000 -0.19439
      11     H     0.45600  0.45600  0.00000  0.08800
      12     H     0.45373  0.45373  0.00000  0.09254
      13     C     3.10063  3.10063  0.00000 -0.20126
      14     H     0.45134  0.45134  0.00000  0.09732
      15     H     0.44821  0.44821  0.00000  0.10358
      16     C     3.09696  3.09696  0.00000 -0.19392
      17     H     0.44546  0.44546  0.00000  0.10909
      18     H     0.45419  0.45419  0.00000  0.09162
      19     C     3.08936  3.08936  0.00000 -0.17872
      20     H     0.45403  0.45403  0.00000  0.09194
      21     H     0.44861  0.44861  0.00000  0.10278
      22     C     3.15036  3.15036  0.00000 -0.30072
      23     H     0.45501  0.45501  0.00000  0.08998
      24     H     0.44842  0.44842  0.00000  0.10315
      25     H     0.45463  0.45463  0.00000  0.09073
      26     H     0.44699  0.44699  0.00000  0.10603
      27     H     0.45485  0.45485  0.00000  0.09031

   Total alpha = 37.00000, Total beta = 37.00000, Total charge =  0.00000

*** Psi4 exiting successfully. Buy a developer a beer!
