  ==> Input File <==

--------------------------------------------------------------------------
set {
	reference rhf
	basis 6-31G*
}

set_num_threads( 4 )
memory 2 gb

molecule MOL {
0 1

H	 2.591676	 2.013956	 0.335017
O	 3.341076	 1.666752	 -0.126416
C	 3.569581	 0.339145	 0.272707
C	 3.367378	 0.117592	 1.767617
H	 2.862476	 -0.261615	 -0.284755
H	 4.568365	 0.019187	 -0.021975
C	 4.352514	 0.888324	 2.649857
H	 2.349662	 0.400592	 2.023609
H	 3.460155	 -0.948533	 1.967959
C	 4.158581	 0.602829	 4.141735
H	 4.238579	 1.953091	 2.466400
H	 5.372477	 0.628476	 2.366140
C	 5.175365	 1.283843	 5.065159
H	 3.152528	 0.897492	 4.434785
H	 4.216930	 -0.472170	 4.298813
C	 5.085992	 2.811838	 5.106630
H	 5.031597	 0.900724	 6.073309
H	 6.181630	 0.989179	 4.771149
C	 6.047399	 3.437940	 6.119116
H	 4.066289	 3.105283	 5.352002
H	 5.293781	 3.225750	 4.122859
C	 5.964781	 4.963499	 6.157945
H	 5.836350	 3.040143	 7.109421
H	 7.065886	 3.137927	 5.881288
H	 4.965471	 5.295324	 6.425330
H	 6.656071	 5.376868	 6.885873
H	 6.206994	 5.394427	 5.190475

	symmetry c1
}
set optking {
	frozen_dihedral = ("
		4 3 2 1
	")
}

ee = optimize('scf')
oeprop('DIPOLE', 'QUADRUPOLE', 'MULLIKEN_CHARGES')
f=open( 'psi4out.xyz', 'w' )
f.write( "27  " )
f.write( str(ee) + "\n" )
f.write( MOL.save_string_xyz() )
f.close()
--------------------------------------------------------------------------

    Molecular point group: c1
  Charge       = 0
  Multiplicity = 1
  Basis Set: 6-31G*
  Basis Set:
  @DF-RHF Final Energy:  -388.27973594630481
    Total Energy =                       -388.2797359463049816
    Molecular point group: c1
  Basis Set: 6-31G*
  Basis Set:
  Basis Set: 6-31G*
  Basis Set:
  @DF-RHF Final Energy:  -388.28092137779436
    Total Energy =                       -388.2809213777941295
  Basis Set: 6-31G*
  Basis Set:
  Basis Set: 6-31G*
  Basis Set:
  @DF-RHF Final Energy:  -388.28137738583143
    Total Energy =                       -388.2813773858321156
  Basis Set: 6-31G*
  Basis Set:
  Basis Set: 6-31G*
  Basis Set:
  @DF-RHF Final Energy:  -388.28138436285980
    Total Energy =                       -388.2813843628598534
  Basis Set: 6-31G*
  Basis Set:
  Basis Set: 6-31G*
  Basis Set:
  @DF-RHF Final Energy:  -388.28138794823428
    Total Energy =                       -388.2813879482340553
  Basis Set: 6-31G*
  Basis Set:
  Charge       = 0
  Multiplicity = 1
  Basis Set: 6-31G*
  Basis Set:

    Orbital Energies (a.u.)
    -----------------------

    Doubly Occupied:

       1A    -20.552145     2A    -11.267144     3A    -11.221646
       4A    -11.216062     5A    -11.215150     6A    -11.214289
       7A    -11.213959     8A    -11.212220     9A    -11.207700
      10A     -1.359112    11A     -1.093791    12A     -1.060860
      13A     -1.011184    14A     -0.946608    15A     -0.886029
      16A     -0.823840    17A     -0.803244    18A     -0.777362
      19A     -0.669487    20A     -0.653300    21A     -0.642491
      22A     -0.623127    23A     -0.605487    24A     -0.584986
      25A     -0.571724    26A     -0.561376    27A     -0.537596
      28A     -0.521293    29A     -0.512667    30A     -0.488067
      31A     -0.481032    32A     -0.477292    33A     -0.465974
      34A     -0.458502    35A     -0.452111    36A     -0.443532
      37A     -0.421115

  @DF-RHF Final Energy:  -388.28138845667718

   => Energetics <=

    Nuclear Repulsion Energy =            460.0148149927907752
    One-Electron Energy =               -1438.0853989088675462
    Two-Electron Energy =                 589.7891954593992523
    DFT Exchange-Correlation Energy =       0.0000000000000000
    Empirical Dispersion Energy =           0.0000000000000000
    PCM Polarization Energy =               0.0000000000000000
    EFP Energy =                            0.0000000000000000
    Total Energy =                       -388.2813884566775187
    Molecular point group: c1
  Basis Set: 6-31G*
  Basis Set:

  -Total Gradient:
     Atom            X                  Y                   Z
    ------   -----------------  -----------------  -----------------
       1        0.001444706031     0.000683561000     0.001724949771
       2       -0.002387305830    -0.001061823840    -0.002187101893
       3        0.002414806845     0.000607143188     0.000730780229
       4       -0.001417904254    -0.000287728178    -0.000244431743
       5       -0.000024707406     0.000026649391    -0.000011991077
       6       -0.000004363813     0.000021965806     0.000006103852
       7       -0.000009635550     0.000003986180     0.000018549413
       8        0.000004471333     0.000009454366    -0.000023008031
       9       -0.000014048117    -0.000009156803    -0.000002836852
      10       -0.000010188421     0.000027723877     0.000007103178
      11       -0.000030973085    -0.000023530921    -0.000015227577
      12        0.000009424601    -0.000006308952    -0.000009130950
      13        0.000021111529    -0.000008748446    -0.000008840042
      14       -0.000005181524     0.000006380285    -0.000005068816
      15       -0.000009959357     0.000002322941    -0.000005536267
      16        0.000005103156     0.000002171042     0.000001236581
      17        0.000013166185     0.000001714141     0.000000404981
      18        0.000005623751     0.000002422998    -0.000006340585
      19       -0.000007542025    -0.000001384244     0.000007307431
      20       -0.000003299430     0.000001293262    -0.000007413146
      21        0.000009399852     0.000001092243     0.000027026734
      22       -0.000002405042     0.000000411589     0.000002543745
      23        0.000002182226    -0.000001108211     0.000002328425
      24       -0.000002551450     0.000001268814    -0.000002069217
      25        0.000000578820     0.000000904204     0.000000175268
      26        0.000000249837     0.000000528406     0.000000528126
      27       -0.000000758861    -0.000001204141    -0.000000041528

  **** Optimization is complete! (in 6 steps) ****
    Final optimized geometry and variables:
    Molecular point group: c1

    Geometry (in Angstrom), charge = 0, multiplicity = 1:

    H           -1.949414938144     0.231004795727    -2.995642990083
    O           -1.209095340430    -0.100679916339    -3.484313857481
    C           -0.978397791418    -1.441986722002    -3.134109477692
    C           -1.152812396764    -1.715487542460    -1.644642931957
    H           -1.641017659515    -2.092736678440    -3.701985778179
    H            0.035983565124    -1.663141639192    -3.443003271892
    C           -0.180625916867    -0.935681361082    -0.756531608305
    H           -2.180102758871    -1.482434879817    -1.361126043045
    H           -1.030528612005    -2.783516550479    -1.476762780728
    C           -0.394595358210    -1.206672652037     0.735020957447
    H           -0.280413761995     0.123950834917    -0.965790251497
    H            0.838818513717    -1.204581936067    -1.028523476946
    C            0.620859898192    -0.527935126519     1.661684247942
    H           -1.400054370302    -0.897941428454     1.017861127191
    H           -0.350502331933    -2.280799567338     0.904357830964
    C            0.545667609519     1.001096689647     1.687588610165
    H            0.465580168556    -0.900526562887     2.672143920263
    H            1.626254671028    -0.834609699607     1.377726444831
    C            1.506748220119     1.628091455009     2.699816226859
    H           -0.472808626560     1.306193041081     1.924887982187
    H            0.762930792392     1.402719343411     0.701106167153
    C            1.435868205058     3.154521334606     2.725222668797
    H            1.288010193756     1.240295813828     3.692512635673
    H            2.523928515917     1.318422897564     2.469172691992
    H            0.438063182057     3.496384252327     2.985811651336
    H            2.127372286701     3.568799351828     3.452472961168
    H            1.685264573214     3.574924481404     1.755053630845

  Mulliken Charges: (a.u.)
   Center  Symbol    Alpha    Beta     Spin     Total
       1     H     0.28283  0.28283  0.00000  0.43433
       2     O     4.37129  4.37129  0.00000 -0.74258
       3     C     2.98579  2.98579  0.00000  0.02841
       4     C     3.17994  3.17994  0.00000 -0.35988
       5     H     0.42778  0.42778  0.00000  0.14445
       6     H     0.41813  0.41813  0.00000  0.16374
       7     C     3.15356  3.15356  0.00000 -0.30713
       8     H     0.42697  0.42697  0.00000  0.14607
       9     H     0.41919  0.41919  0.00000  0.16162
      10     C     3.15303  3.15303  0.00000 -0.30606
      11     H     0.41426  0.41426  0.00000  0.17148
      12     H     0.42209  0.42209  0.00000  0.15582
      13     C     3.15300  3.15300  0.00000 -0.30600
      14     H     0.42510  0.42510  0.00000  0.14980
      15     H     0.42254  0.42254  0.00000  0.15492
      16     C     3.15323  3.15323  0.00000 -0.30646
      17     H     0.42204  0.42204  0.00000  0.15593
      18     H     0.42342  0.42342  0.00000  0.15316
      19     C     3.15114  3.15114  0.00000 -0.30228
      20     H     0.42553  0.42553  0.00000  0.14894
      21     H     0.42049  0.42049  0.00000  0.15902
      22     C     3.23925  3.23925  0.00000 -0.47850
      23     H     0.42349  0.42349  0.00000  0.15302
      24     H     0.42285  0.42285  0.00000  0.15430
      25     H     0.42224  0.42224  0.00000  0.15553
      26     H     0.41950  0.41950  0.00000  0.16100
      27     H     0.42132  0.42132  0.00000  0.15737

   Total alpha = 37.00000, Total beta = 37.00000, Total charge =  0.00000
