  ==> Input File <==

--------------------------------------------------------------------------
set {
	reference rhf
	basis 6-31G*
}

set_num_threads( 1 )
memory 2 gb

molecule MOL {
0 1

H	 1.328810	 2.601113	 4.269596
C	 0.837708	 1.659922	 4.546363
C	 -0.367569	 1.301470	 3.714841
O	 1.261612	 1.006423	 5.443578
C	 -0.073724	 1.332271	 2.208534
H	 -0.724486	 0.328304	 4.031494
H	 -1.142622	 2.031992	 3.943503
C	 0.906196	 0.246994	 1.755509
H	 -1.011415	 1.218049	 1.672837
H	 0.312925	 2.313044	 1.935873
C	 1.180775	 0.282413	 0.250794
H	 0.508758	 -0.728148	 2.029348
H	 1.846340	 0.350527	 2.293977
C	 2.148627	 -0.814315	 -0.201312
H	 0.237543	 0.189075	 -0.281497
H	 1.589636	 1.255463	 -0.018259
C	 3.580890	 -0.659131	 0.322722
H	 2.166869	 -0.852443	 -1.289387
H	 1.762857	 -1.776509	 0.128956
C	 4.324889	 0.564933	 -0.213704
H	 4.142010	 -1.551473	 0.056605
H	 3.564836	 -0.624694	 1.410140
H	 4.342616	 0.565491	 -1.300421
H	 3.866655	 1.493402	 0.110242
H	 5.353900	 0.572371	 0.132816

	symmetry c1
}
set optking {
	frozen_dihedral = ("
		6 3 5 8,
		6 3 2 4,
		3 5 8 12,
		12 8 11 14,
		20 17 14 18
	")
}

ee = energy('scf')
oeprop('DIPOLE', 'QUADRUPOLE', 'MULLIKEN_CHARGES')
f=open( 'psi4out.xyz', 'w' )
f.write( "25  " )
f.write( str(ee) + "\n" )
f.write( MOL.save_string_xyz() )
f.close()
--------------------------------------------------------------------------

    Molecular point group: c1

    Geometry (in Angstrom), charge = 0, multiplicity = 1:

       Center              X                  Y                   Z               Mass
    ------------   -----------------  -----------------  -----------------  -----------------
           H         -0.224407067905     2.050725653265     2.279666376153     1.007825032070
           C         -0.715509067905     1.109534653265     2.556433376153    12.000000000000
           C         -1.920786067905     0.751082653265     1.724911376153    12.000000000000
           O         -0.291605067905     0.456035653265     3.453648376153    15.994914619560
           C         -1.626941067905     0.781883653265     0.218604376153    12.000000000000
           H         -2.277703067905    -0.222083346735     2.041564376153     1.007825032070
           H         -2.695839067905     1.481604653265     1.953573376153     1.007825032070
           C         -0.647021067905    -0.303393346735    -0.234420623847    12.000000000000
           H         -2.564632067905     0.667661653265    -0.317092623847     1.007825032070
           H         -1.240292067905     1.762656653265    -0.054056623847     1.007825032070
           C         -0.372442067905    -0.267974346735    -1.739135623847    12.000000000000
           H         -1.044459067905    -1.278535346735     0.039418376153     1.007825032070
           H          0.293122932095    -0.199860346735     0.304047376153     1.007825032070
           C          0.595409932095    -1.364702346735    -2.191241623847    12.000000000000
           H         -1.315674067905    -0.361312346735    -2.271426623847     1.007825032070
           H          0.036418932095     0.705075653265    -2.008188623847     1.007825032070
           C          2.027672932095    -1.209518346735    -1.667207623847    12.000000000000
           H          0.613651932095    -1.402830346735    -3.279316623847     1.007825032070
           H          0.209639932095    -2.326896346735    -1.860973623847     1.007825032070
           C          2.771671932095     0.014545653265    -2.203633623847    12.000000000000
           H          2.588792932095    -2.101860346735    -1.933324623847     1.007825032070
           H          2.011618932095    -1.175081346735    -0.579789623847     1.007825032070
           H          2.789398932095     0.015103653265    -3.290350623847     1.007825032070
           H          2.313437932095     0.943014653265    -1.879687623847     1.007825032070
           H          3.800682932095     0.021983653265    -1.857113623847     1.007825032070

  Charge       = 0
  Multiplicity = 1
  Basis Set: 6-31G*
  Basis Set:

    Orbital Energies (a.u.)
    -----------------------

    Doubly Occupied:

       1A    -20.562162     2A    -11.326281     3A    -11.235315
       4A    -11.234630     5A    -11.223203     6A    -11.219504
       7A    -11.217118     8A    -11.216533     9A    -11.210656
      10A     -1.402162    11A     -1.105073    12A     -1.069310
      13A     -1.010800    14A     -0.943658    15A     -0.874773
      16A     -0.830024    17A     -0.788621    18A     -0.769647
      19A     -0.665727    20A     -0.661514    21A     -0.633682
      22A     -0.625330    23A     -0.609919    24A     -0.588683
      25A     -0.564830    26A     -0.560054    27A     -0.538761
      28A     -0.521501    29A     -0.513518    30A     -0.500814
      31A     -0.487890    32A     -0.479023    33A     -0.458859
      34A     -0.452528    35A     -0.445378    36A     -0.409627

  @DF-RHF Final Energy:  -387.11986887818603

   => Energetics <=

    Nuclear Repulsion Energy =            449.7554831341135468
    One-Electron Energy =               -1415.8362106590527674
    Two-Electron Energy =                 578.9608586467533087
    DFT Exchange-Correlation Energy =       0.0000000000000000
    Empirical Dispersion Energy =           0.0000000000000000
    PCM Polarization Energy =               0.0000000000000000
    EFP Energy =                            0.0000000000000000
    Total Energy =                       -387.1198688781859119

  Mulliken Charges: (a.u.)
   Center  Symbol    Alpha    Beta     Spin     Total
       1     H     0.43263  0.43263  0.00000  0.13473
       2     C     2.83085  2.83085  0.00000  0.33829
       3     C     3.20799  3.20799  0.00000 -0.41597
       4     O     4.23790  4.23790  0.00000 -0.47580
       5     C     3.16577  3.16577  0.00000 -0.33154
       6     H     0.39974  0.39974  0.00000  0.20052
       7     H     0.40672  0.40672  0.00000  0.18655
       8     C     3.15746  3.15746  0.00000 -0.31491
       9     H     0.41290  0.41290  0.00000  0.17419
      10     H     0.41982  0.41982  0.00000  0.16035
      11     C     3.15592  3.15592  0.00000 -0.31184
      12     H     0.41821  0.41821  0.00000  0.16358
      13     H     0.41704  0.41704  0.00000  0.16591
      14     C     3.15476  3.15476  0.00000 -0.30953
      15     H     0.42029  0.42029  0.00000  0.15943
      16     H     0.42169  0.42169  0.00000  0.15662
      17     C     3.15665  3.15665  0.00000 -0.31329
      18     H     0.42120  0.42120  0.00000  0.15760
      19     H     0.42127  0.42127  0.00000  0.15746
      20     C     3.24084  3.24084  0.00000 -0.48167
      21     H     0.41917  0.41917  0.00000  0.16166
      22     H     0.41941  0.41941  0.00000  0.16118
      23     H     0.42171  0.42171  0.00000  0.15657
      24     H     0.42226  0.42226  0.00000  0.15549
      25     H     0.41779  0.41779  0.00000  0.16442

   Total alpha = 36.00000, Total beta = 36.00000, Total charge =  0.00000
