                              Psi4 1.0.54 Driver

  ==> Input File <==

--------------------------------------------------------------------------
set {
	reference rhf
	basis cc-pvtz
}

set_num_threads( 4 )
memory 2 gb

molecule MOL {
0 1

H	 -3.161182	 -0.829524	 1.450864
C	 -3.255254	 -0.601719	 0.380284
C	 -2.703955	 0.735635	 -0.033777
O	 -3.769036	 -1.379233	 -0.346907
C	 -1.265752	 0.957523	 0.443729
H	 -2.785392	 0.823695	 -1.109392
H	 -3.349034	 1.488942	 0.413107
C	 -0.247837	 0.040196	 -0.230469
H	 -0.998164	 1.991827	 0.256777
H	 -1.219938	 0.824234	 1.521843
C	 1.181757	 0.280428	 0.247371
H	 -0.298546	 0.184246	 -1.306473
H	 -0.514821	 -0.998557	 -0.054004
C	 2.151032	 -0.811012	 -0.202643
H	 1.515939	 1.247397	 -0.115449
H	 1.191514	 0.341223	 1.333422
C	 3.580021	 -0.656538	 0.320835
H	 2.170545	 -0.847575	 -1.289412
H	 1.766632	 -1.772905	 0.124928
C	 4.327657	 0.562694	 -0.213579
H	 4.138806	 -1.549270	 0.057813
H	 3.561991	 -0.620783	 1.406976
H	 4.355973	 0.557257	 -1.298551
H	 3.867136	 1.491650	 0.100501
H	 5.351524	 0.571613	 0.142204

	symmetry c1
}
set optking {
	frozen_dihedral = ("
		12 8 11 14
	")
}

ee,wfn = optimize('scf', return_wfn=True)
oeprop( wfn, 'DIPOLE', 'QUADRUPOLE', 'MULLIKEN_CHARGES')
f=open( 'psi4out.xyz', 'w' )
f.write( "25  " )
f.write( str(ee) + "\n" )
f.write( MOL.save_string_xyz() )
f.close()
--------------------------------------------------------------------------

    Molecular point group: c1
  Charge       = 0
  Multiplicity = 1
  Basis Set: CC-PVTZ
  Basis Set:
  @DF-RHF Final Energy:  -387.25986494114960
    Total Energy =                       -387.2598649411498855
    Molecular point group: c1
  Basis Set: CC-PVTZ
  Basis Set:
  Basis Set: CC-PVTZ
  Basis Set:
  @DF-RHF Final Energy:  -387.25988319903593
    Total Energy =                       -387.2598831990358121
  Basis Set: CC-PVTZ
  Basis Set:
  Basis Set: CC-PVTZ
  Basis Set:
  @DF-RHF Final Energy:  -387.25993135014835
    Total Energy =                       -387.2599313501486904
  Basis Set: CC-PVTZ
  Basis Set:
  Basis Set: CC-PVTZ
  Basis Set:
  @DF-RHF Final Energy:  -387.25969546710490
    Total Energy =                       -387.2596954671049616
  Basis Set: CC-PVTZ
  Basis Set:
  Basis Set: CC-PVTZ
  Basis Set:
  @DF-RHF Final Energy:  -387.25994631523082
    Total Energy =                       -387.2599463152307635
  Basis Set: CC-PVTZ
  Basis Set:
  Charge       = 0
  Multiplicity = 1
  Basis Set: CC-PVTZ
  Basis Set:

    Orbital Energies (a.u.)
    -----------------------

    Doubly Occupied:

       1A    -20.551339     2A    -11.320960     3A    -11.233739
       4A    -11.232790     5A    -11.221762     6A    -11.217754
       7A    -11.216297     8A    -11.215104     9A    -11.208822
      10A     -1.406296    11A     -1.105228    12A     -1.070934
      13A     -1.014507    14A     -0.943622    15A     -0.875767
      16A     -0.820935    17A     -0.788523    18A     -0.782217
      19A     -0.667737    20A     -0.664179    21A     -0.634585
      22A     -0.627555    23A     -0.602223    24A     -0.595076
      25A     -0.579221    26A     -0.548731    27A     -0.538225
      28A     -0.528255    29A     -0.507614    30A     -0.497693
      31A     -0.492708    32A     -0.479862    33A     -0.464247
      34A     -0.459955    35A     -0.442621    36A     -0.411816

  @DF-RHF Final Energy:  -387.25994685357756

   => Energetics <=

    Nuclear Repulsion Energy =            439.7241284768282981
    One-Electron Energy =               -1396.0303545579999991
    Two-Electron Energy =                 569.0462792275940274
    DFT Exchange-Correlation Energy =       0.0000000000000000
    Empirical Dispersion Energy =           0.0000000000000000
    PCM Polarization Energy =               0.0000000000000000
    EFP Energy =                            0.0000000000000000
    Total Energy =                       -387.2599468535776168
    Molecular point group: c1
  Basis Set: CC-PVTZ
  Basis Set:

  -Total Gradient:
     Atom            X                  Y                   Z
    ------   -----------------  -----------------  -----------------
       1       -0.000070422894     0.000025144791     0.000013188671
       2        0.000264170272     0.000011650509     0.000036698574
       3       -0.000101382444     0.000008582934     0.000005074069
       4       -0.000128933392    -0.000069031393    -0.000077312164
       5        0.000014451876     0.000007411258    -0.000019738906
       6       -0.000021780454     0.000008850802    -0.000015013883
       7        0.000005653268     0.000002047772     0.000000557750
       8        0.000440679412    -0.002950386011     0.000229775181
       9        0.000029511669     0.000006760638     0.000004518633
      10        0.000013282956    -0.000001923974     0.000007907211
      11        0.000305247362     0.001634596761    -0.001822345974
      12       -0.000476341274     0.002123961908     0.000325556995
      13       -0.000000749605    -0.000031719148    -0.000015621977
      14       -0.000311750917    -0.000847230056     0.001284911936
      15        0.000011108396     0.000014868685    -0.000012801479
      16        0.000003336874     0.000011118039     0.000008575200
      17       -0.000016037378     0.000014801813     0.000044479653
      18       -0.000014155796     0.000008061480    -0.000003854617
      19       -0.000046588489     0.000006023084    -0.000013856018
      20        0.000044483380    -0.000003007879     0.000002463642
      21        0.000005784242     0.000015860357     0.000007681984
      22        0.000023465037    -0.000007457439     0.000032547310
      23       -0.000008526989     0.000002796072    -0.000019969467
      24        0.000023294435    -0.000006543155     0.000000871217
      25        0.000012200455     0.000014762151    -0.000004293539

  **** Optimization is complete! (in 6 steps) ****
    Final optimized geometry and variables:
    Molecular point group: c1

    Geometry (in Angstrom), charge = 0, multiplicity = 1:

    H           -3.211486064210    -0.738478612095     1.367996507199
    C           -3.279501263070    -0.485757031578     0.301028869036
    C           -2.698181501588     0.850956457267    -0.072057915320
    O           -3.791939258617    -1.237914550510    -0.453396685480
    C           -1.267008727166     1.038355506156     0.440046304187
    H           -2.755905168515     0.963675187557    -1.146924286256
    H           -3.340374797351     1.604900501769     0.377918052173
    C           -0.251310789916     0.110245418700    -0.224768734153
    H           -0.975484405112     2.069902252335     0.273592916129
    H           -1.247626095831     0.889469647927     1.516780462480
    C            1.178212676798     0.356891500186     0.253829803494
    H           -0.302411735589     0.260556914758    -1.299736188256
    H           -0.524086098490    -0.925461817174    -0.042690665562
    C            2.156262205688    -0.724410476764    -0.201932575439
    H            1.502332583557     1.332930038037    -0.092049431239
    H            1.188997529905     0.399266622038     1.340980540453
    C            3.592429687855    -0.540136744334     0.291614281660
    H            2.156053329611    -0.778021458893    -1.288431798136
    H            1.791907264842    -1.686105816234     0.147578804644
    C            4.316879529598     0.672076235752    -0.288930025191
    H            4.156771779179    -1.433325990218     0.042419892624
    H            3.593354631184    -0.475541337654     1.376670993259
    H            4.326461693187     0.636765627111    -1.373646749905
    H            3.851536460486     1.604451702179     0.007369729073
    H            5.346590816753     0.702061923544     0.048422190964

  Mulliken Charges: (a.u.)
   Center  Symbol    Alpha    Beta     Spin     Total
       1     H     0.46417  0.46417  0.00000  0.07165
       2     C     2.90468  2.90468  0.00000  0.19064
       3     C     3.08923  3.08923  0.00000 -0.17846
       4     O     4.16638  4.16638  0.00000 -0.33277
       5     C     3.11563  3.11563  0.00000 -0.23125
       6     H     0.44288  0.44288  0.00000  0.11424
       7     H     0.44050  0.44050  0.00000  0.11900
       8     C     3.09014  3.09014  0.00000 -0.18028
       9     H     0.44325  0.44325  0.00000  0.11350
      10     H     0.45008  0.45008  0.00000  0.09983
      11     C     3.09347  3.09347  0.00000 -0.18695
      12     H     0.44939  0.44939  0.00000  0.10123
      13     H     0.44815  0.44815  0.00000  0.10369
      14     C     3.09561  3.09561  0.00000 -0.19121
      15     H     0.44986  0.44986  0.00000  0.10027
      16     H     0.45537  0.45537  0.00000  0.08927
      17     C     3.09083  3.09083  0.00000 -0.18165
      18     H     0.45270  0.45270  0.00000  0.09461
      19     H     0.44794  0.44794  0.00000  0.10412
      20     C     3.15226  3.15226  0.00000 -0.30452
      21     H     0.44760  0.44760  0.00000  0.10480
      22     H     0.45491  0.45491  0.00000  0.09018
      23     H     0.45441  0.45441  0.00000  0.09118
      24     H     0.45454  0.45454  0.00000  0.09092
      25     H     0.44602  0.44602  0.00000  0.10796

   Total alpha = 36.00000, Total beta = 36.00000, Total charge = -0.00000

*** Psi4 exiting successfully. Buy a developer a beer!
