  ==> Input File <==

--------------------------------------------------------------------------
set {
	reference rhf
	basis 6-31G*
}

set_num_threads( 4 )
memory 2 gb

molecule MOL {
0 1

O	 -0.682937	 1.318834	 -0.186099
C	 -0.860635	 0.152188	 -0.042321
C	 -2.173363	 -0.477127	 0.338347
O	 0.083258	 -0.765189	 -0.202595
H	 -2.477673	 -1.180929	 -0.427595
H	 -2.923125	 0.290956	 0.455536
H	 -2.058825	 -1.029004	 1.264191
C	 1.391937	 -0.334737	 -0.569838
C	 2.081548	 -1.349783	 -1.462455
H	 1.966472	 -0.143685	 0.323778
H	 1.233719	 0.597127	 -1.093380
H	 3.042227	 -0.961247	 -1.786285
H	 2.251718	 -2.277941	 -0.931482
H	 1.481867	 -1.553038	 -2.343072

	symmetry c1
}
set optking {
	frozen_dihedral = ("
		10 8 4 2
	")
}

ee = optimize('scf')
oeprop('DIPOLE', 'QUADRUPOLE', 'MULLIKEN_CHARGES')
f=open( 'psi4out.xyz', 'w' )
f.write( "14  " )
f.write( str(ee) + "\n" )
f.write( MOL.save_string_xyz() )
f.close()
--------------------------------------------------------------------------

    Molecular point group: c1
  Charge       = 0
  Multiplicity = 1
  Basis Set: 6-31G*
  Basis Set:
  @DF-RHF Final Energy:  -305.87317496518125
    Total Energy =                       -305.8731749651813629
    Molecular point group: c1
  Basis Set: 6-31G*
  Basis Set:
  Basis Set: 6-31G*
  Basis Set:
  @DF-RHF Final Energy:  -305.87451924697848
    Total Energy =                       -305.8745192469784797
  Basis Set: 6-31G*
  Basis Set:
  Basis Set: 6-31G*
  Basis Set:
  @DF-RHF Final Energy:  -305.87472543400111
    Total Energy =                       -305.8747254340009931
  Basis Set: 6-31G*
  Basis Set:
  Basis Set: 6-31G*
  Basis Set:
  @DF-RHF Final Energy:  -305.87471623147536
    Total Energy =                       -305.8747162314750767
  Basis Set: 6-31G*
  Basis Set:
  Basis Set: 6-31G*
  Basis Set:
  @DF-RHF Final Energy:  -305.87502410925168
    Total Energy =                       -305.8750241092516262
  Basis Set: 6-31G*
  Basis Set:
  Basis Set: 6-31G*
  Basis Set:
  @DF-RHF Final Energy:  -305.87502800926734
    Total Energy =                       -305.8750280092673961
  Basis Set: 6-31G*
  Basis Set:
  Charge       = 0
  Multiplicity = 1
  Basis Set: 6-31G*
  Basis Set:

    Orbital Energies (a.u.)
    -----------------------

    Doubly Occupied:

       1A    -20.601765     2A    -20.544049     3A    -11.375563
       4A    -11.284773     5A    -11.233125     6A    -11.222702
       7A     -1.466988     8A     -1.362923     9A     -1.057915
      10A     -1.000050    11A     -0.872974    12A     -0.778576
      13A     -0.694334    14A     -0.684150    15A     -0.664056
      16A     -0.611459    17A     -0.580754    18A     -0.563023
      19A     -0.557434    20A     -0.537415    21A     -0.512146
      22A     -0.500222    23A     -0.451594    24A     -0.438468

  @DF-RHF Final Energy:  -305.87502823299155

   => Energetics <=

    Nuclear Repulsion Energy =            245.5827104946430666
    One-Electron Energy =                -903.7225609891484055
    Two-Electron Energy =                 352.2648222615139275
    DFT Exchange-Correlation Energy =       0.0000000000000000
    Empirical Dispersion Energy =           0.0000000000000000
    PCM Polarization Energy =               0.0000000000000000
    EFP Energy =                            0.0000000000000000
    Total Energy =                       -305.8750282329914398
    Molecular point group: c1
  Basis Set: 6-31G*
  Basis Set:

  -Total Gradient:
     Atom            X                  Y                   Z
    ------   -----------------  -----------------  -----------------
       1        0.000007306878    -0.000012140823    -0.000009059698
       2       -0.000381300330    -0.000115458991    -0.001334783191
       3       -0.000011787951     0.000002343414    -0.000003651198
       4        0.000642523664    -0.000193753653     0.001956406122
       5       -0.000001034825     0.000000253998     0.000000680392
       6       -0.000004366405    -0.000001233607     0.000000391824
       7        0.000001755119     0.000001777662    -0.000001920368
       8       -0.000828467003     0.001808552191    -0.000570222586
       9       -0.000002216923     0.000016072077    -0.000003258551
      10        0.000546513056    -0.001496535222    -0.000030067132
      11        0.000026840364    -0.000011226375    -0.000001954055
      12        0.000006350518    -0.000002133359    -0.000005489551
      13       -0.000003664736     0.000006933766     0.000001755718
      14        0.000001548575    -0.000003451080     0.000001172274

  **** Optimization is complete! (in 7 steps) ****
    Final optimized geometry and variables:
    Molecular point group: c1

    Geometry (in Angstrom), charge = 0, multiplicity = 1:

    O           -0.684352292187     1.569320053710     0.225978067708
    C           -0.835660830269     0.394855184669     0.324861938016
    C           -2.132952504498    -0.277261153421     0.685735379889
    O            0.127214729494    -0.496669184911     0.132289690172
    H           -2.423886041216    -0.960752442618    -0.103459603289
    H           -2.899406230106     0.469127468662     0.831604717264
    H           -2.003252524214    -0.858117629715     1.591647148426
    C            1.420782527965    -0.039934119098    -0.253903168647
    C            2.064960659955    -1.128139921491    -1.088895166167
    H            1.994377653026     0.144011152370     0.646058963510
    H            1.327737974421     0.885246538594    -0.799648274700
    H            3.068756474972    -0.829775277225    -1.374231152006
    H            2.128804961163    -2.055635809625    -0.531436068120
    H            1.491668587948    -1.309966184976    -1.991044440258

  Mulliken Charges: (a.u.)
   Center  Symbol    Alpha    Beta     Spin     Total
       1     O     4.28278  4.28278  0.00000 -0.56555
       2     C     2.62029  2.62029  0.00000  0.75942
       3     C     3.28197  3.28197  0.00000 -0.56393
       4     O     4.30723  4.30723  0.00000 -0.61446
       5     H     0.40084  0.40084  0.00000  0.19833
       6     H     0.39703  0.39703  0.00000  0.20594
       7     H     0.40032  0.40032  0.00000  0.19936
       8     C     3.00659  3.00659  0.00000 -0.01319
       9     C     3.24754  3.24754  0.00000 -0.49507
      10     H     0.41465  0.41465  0.00000  0.17070
      11     H     0.39935  0.39935  0.00000  0.20131
      12     H     0.41675  0.41675  0.00000  0.16650
      13     H     0.41162  0.41162  0.00000  0.17676
      14     H     0.41306  0.41306  0.00000  0.17388

   Total alpha = 24.00000, Total beta = 24.00000, Total charge = -0.00000
