  ==> Input File <==

--------------------------------------------------------------------------
set {
	reference rhf
	basis 6-31G*
}

set_num_threads( 1 )
memory 2 gb

molecule MOL {
0 1

H	 3.566591	 -0.932302	 0.676169
O	 2.826016	 -1.159218	 0.122261
C	 2.077727	 -0.067559	 -0.035091
C	 0.624473	 -0.343591	 0.253101
O	 2.542965	 0.974826	 -0.363729
C	 -0.265902	 0.883932	 0.072916
H	 0.324016	 -1.163849	 -0.390541
H	 0.565024	 -0.726111	 1.268924
C	 -1.728698	 0.646073	 0.462102
H	 -0.209144	 1.219470	 -0.958188
H	 0.135059	 1.692851	 0.673903
C	 -2.482460	 -0.343073	 -0.431425
H	 -2.245265	 1.602650	 0.432430
H	 -1.779332	 0.308348	 1.496285
C	 -3.960546	 -0.461025	 -0.060175
H	 -2.395034	 -0.026811	 -1.468912
H	 -2.024850	 -1.327147	 -0.371646
H	 -4.472726	 -1.168004	 -0.705284
H	 -4.465146	 0.496508	 -0.151489
H	 -4.081218	 -0.800940	 0.964585

	symmetry c1
}
set optking {
	frozen_dihedral = ("
		16 12 9 6,
		7 4 6 10,
		12 9 6 10,
		5 3 4 7
	")
}

ee = energy('scf')
oeprop('DIPOLE', 'QUADRUPOLE', 'MULLIKEN_CHARGES')
f=open( 'psi4out.xyz', 'w' )
f.write( "20  " )
f.write( str(ee) + "\n" )
f.write( MOL.save_string_xyz() )
f.close()
--------------------------------------------------------------------------

    Molecular point group: c1

    Geometry (in Angstrom), charge = 0, multiplicity = 1:

       Center              X                  Y                   Z               Mass
    ------------   -----------------  -----------------  -----------------  -----------------
           H          3.568005252496    -0.932267149422     0.669685875252     1.007825032070
           O          2.827430252496    -1.159183149422     0.115777875252    15.994914619560
           C          2.079141252496    -0.067524149422    -0.041574124748    12.000000000000
           C          0.625887252496    -0.343556149422     0.246617875252    12.000000000000
           O          2.544379252496     0.974860850578    -0.370212124748    15.994914619560
           C         -0.264487747504     0.883966850578     0.066432875252    12.000000000000
           H          0.325430252496    -1.163814149422    -0.397024124748     1.007825032070
           H          0.566438252496    -0.726076149422     1.262440875252     1.007825032070
           C         -1.727283747504     0.646107850578     0.455618875252    12.000000000000
           H         -0.207729747504     1.219504850578    -0.964671124748     1.007825032070
           H          0.136473252496     1.692885850578     0.667419875252     1.007825032070
           C         -2.481045747504    -0.343038149422    -0.437908124748    12.000000000000
           H         -2.243850747504     1.602684850578     0.425946875252     1.007825032070
           H         -1.777917747504     0.308382850578     1.489801875252     1.007825032070
           C         -3.959131747504    -0.460990149422    -0.066658124748    12.000000000000
           H         -2.393619747504    -0.026776149422    -1.475395124748     1.007825032070
           H         -2.023435747504    -1.327112149422    -0.378129124748     1.007825032070
           H         -4.471311747504    -1.167969149422    -0.711767124748     1.007825032070
           H         -4.463731747504     0.496542850578    -0.157972124748     1.007825032070
           H         -4.079803747504    -0.800905149422     0.958101875252     1.007825032070

  Charge       = 0
  Multiplicity = 1
  Basis Set: 6-31G*
  Basis Set:

    Orbital Energies (a.u.)
    -----------------------

    Doubly Occupied:

       1A    -20.603951     2A    -20.555549     3A    -11.380358
       4A    -11.239769     5A    -11.222432     6A    -11.220665
       7A    -11.220075     8A    -11.212444     9A     -1.471484
      10A     -1.366484    11A     -1.095881    12A     -1.040202
      13A     -0.959762    14A     -0.867185    15A     -0.816271
      16A     -0.779073    17A     -0.705464    18A     -0.686434
      19A     -0.660854    20A     -0.640050    21A     -0.610386
      22A     -0.585792    23A     -0.569539    24A     -0.556099
      25A     -0.527993    26A     -0.515373    27A     -0.493864
      28A     -0.488161    29A     -0.469762    30A     -0.464387
      31A     -0.457509    32A     -0.443060

  @DF-RHF Final Energy:  -383.93594582734585

   => Energetics <=

    Nuclear Repulsion Energy =            375.9364965747578822
    One-Electron Energy =               -1267.8922459199523018
    Two-Electron Energy =                 508.0198035178482883
    DFT Exchange-Correlation Energy =       0.0000000000000000
    Empirical Dispersion Energy =           0.0000000000000000
    PCM Polarization Energy =               0.0000000000000000
    EFP Energy =                            0.0000000000000000
    Total Energy =                       -383.9359458273460746

  Mulliken Charges: (a.u.)
   Center  Symbol    Alpha    Beta     Spin     Total
       1     H     0.26565  0.26565  0.00000  0.46870
       2     O     4.35548  4.35548  0.00000 -0.71096
       3     C     2.63004  2.63004  0.00000  0.73992
       4     C     3.21172  3.21172  0.00000 -0.42345
       5     O     4.26509  4.26509  0.00000 -0.53018
       6     C     3.15490  3.15490  0.00000 -0.30979
       7     H     0.39635  0.39635  0.00000  0.20730
       8     H     0.40353  0.40353  0.00000  0.19295
       9     C     3.15531  3.15531  0.00000 -0.31063
      10     H     0.41166  0.41166  0.00000  0.17669
      11     H     0.40943  0.40943  0.00000  0.18113
      12     C     3.15480  3.15480  0.00000 -0.30960
      13     H     0.41801  0.41801  0.00000  0.16398
      14     H     0.42447  0.42447  0.00000  0.15106
      15     C     3.23920  3.23920  0.00000 -0.47841
      16     H     0.42113  0.42113  0.00000  0.15774
      17     H     0.42277  0.42277  0.00000  0.15446
      18     H     0.41824  0.41824  0.00000  0.16352
      19     H     0.42064  0.42064  0.00000  0.15872
      20     H     0.42158  0.42158  0.00000  0.15683

   Total alpha = 32.00000, Total beta = 32.00000, Total charge =  0.00000
