                              Psi4 1.0.54 Driver

  ==> Input File <==

--------------------------------------------------------------------------
set {
	reference rhf
	basis cc-pvtz
}

set_num_threads( 4 )
memory 2 gb

molecule MOL {
0 1

H	 3.137948	 0.490295	 2.087124
O	 3.845424	 0.264237	 1.512489
C	 3.745134	 -1.080626	 1.124472
C	 2.617818	 -1.344626	 0.137482
H	 4.693045	 -1.327090	 0.665451
H	 3.634246	 -1.720320	 1.997940
C	 1.219491	 -1.113875	 0.706063
H	 2.766995	 -0.714144	 -0.733952
H	 2.703458	 -2.374841	 -0.199744
C	 0.113298	 -1.420414	 -0.302504
H	 1.132102	 -0.084176	 1.036344
H	 1.081534	 -1.738058	 1.587340
C	 -1.311023	 -1.277304	 0.237018
H	 0.234190	 -0.777721	 -1.171156
H	 0.244359	 -2.438150	 -0.659584
C	 -2.041121	 -0.006551	 -0.194127
H	 -1.888548	 -2.136293	 -0.093331
H	 -1.289731	 -1.328757	 1.323321
C	 -3.489218	 0.042606	 0.286507
H	 -2.022185	 0.066287	 -1.279394
H	 -1.518764	 0.869305	 0.178730
C	 -4.219984	 1.311773	 -0.139038
H	 -4.022855	 -0.824300	 -0.093339
H	 -3.510372	 -0.038577	 1.370031
H	 -4.244251	 1.405725	 -1.219696
H	 -5.244345	 1.313233	 0.215630
H	 -3.732090	 2.196311	 0.257073

	symmetry c1
}
set optking {
	frozen_dihedral = ("
		14 10 13 16
	")
}

ee,wfn = optimize('scf', return_wfn=True)
oeprop( wfn, 'DIPOLE', 'QUADRUPOLE', 'MULLIKEN_CHARGES')
f=open( 'psi4out.xyz', 'w' )
f.write( "27  " )
f.write( str(ee) + "\n" )
f.write( MOL.save_string_xyz() )
f.close()
--------------------------------------------------------------------------

    Molecular point group: c1
  Charge       = 0
  Multiplicity = 1
  Basis Set: CC-PVTZ
  Basis Set:
  @DF-RHF Final Energy:  -388.42451946868249
    Total Energy =                       -388.4245194686832292
    Molecular point group: c1
  Basis Set: CC-PVTZ
  Basis Set:
  Basis Set: CC-PVTZ
  Basis Set:
  @DF-RHF Final Energy:  -388.42474969464490
    Total Energy =                       -388.4247496946453566
  Basis Set: CC-PVTZ
  Basis Set:
  Basis Set: CC-PVTZ
  Basis Set:
  @DF-RHF Final Energy:  -388.42520845012388
    Total Energy =                       -388.4252084501245008
  Basis Set: CC-PVTZ
  Basis Set:
  Basis Set: CC-PVTZ
  Basis Set:
  @DF-RHF Final Energy:  -388.42523394271700
    Total Energy =                       -388.4252339427171137
  Basis Set: CC-PVTZ
  Basis Set:
  Basis Set: CC-PVTZ
  Basis Set:
  @DF-RHF Final Energy:  -388.42524034160743
    Total Energy =                       -388.4252403416073776
  Basis Set: CC-PVTZ
  Basis Set:
  Charge       = 0
  Multiplicity = 1
  Basis Set: CC-PVTZ
  Basis Set:

    Orbital Energies (a.u.)
    -----------------------

    Doubly Occupied:

       1A    -20.545311     2A    -11.265039     3A    -11.217486
       4A    -11.214238     5A    -11.213543     6A    -11.213158
       7A    -11.212765     8A    -11.212050     9A    -11.206960
      10A     -1.363215    11A     -1.095308    12A     -1.062963
      13A     -1.011850    14A     -0.950376    15A     -0.884643
      16A     -0.821166    17A     -0.795248    18A     -0.787514
      19A     -0.696569    20A     -0.647564    21A     -0.644019
      22A     -0.614958    23A     -0.601996    24A     -0.585538
      25A     -0.577852    26A     -0.552954    27A     -0.544299
      28A     -0.526033    29A     -0.507808    30A     -0.491362
      31A     -0.485001    32A     -0.475751    33A     -0.470674
      34A     -0.463428    35A     -0.451368    36A     -0.443131
      37A     -0.424083

  @DF-RHF Final Energy:  -388.42524059170012

   => Energetics <=

    Nuclear Repulsion Energy =            457.2125835222983596
    One-Electron Energy =               -1432.7212022884996259
    Two-Electron Energy =                 587.0833781745008082
    DFT Exchange-Correlation Energy =       0.0000000000000000
    Empirical Dispersion Energy =           0.0000000000000000
    PCM Polarization Energy =               0.0000000000000000
    EFP Energy =                            0.0000000000000000
    Total Energy =                       -388.4252405917004580
    Molecular point group: c1
  Basis Set: CC-PVTZ
  Basis Set:

  -Total Gradient:
     Atom            X                  Y                   Z
    ------   -----------------  -----------------  -----------------
       1       -0.000008711296    -0.000006083207     0.000016720372
       2        0.000043067084     0.000045695676    -0.000028551504
       3       -0.000046029052    -0.000051711446     0.000038770285
       4        0.000013149570     0.000027135259    -0.000007845944
       5        0.000019691129     0.000010154693    -0.000004200198
       6        0.000008882897    -0.000016187869     0.000019091255
       7        0.000010548286     0.000011867399     0.000004808857
       8       -0.000007158464     0.000017153505    -0.000018801747
       9        0.000001838904    -0.000018292856    -0.000013820545
      10       -0.001463716236    -0.003101096470    -0.002888540854
      11       -0.000000956376     0.000014330328    -0.000009683684
      12       -0.000009390367    -0.000012260834     0.000012951130
      13        0.001318614713     0.001904829210     0.002852552490
      14        0.000919299463     0.002180876940     0.001789539571
      15       -0.000010620205    -0.000003104886    -0.000007788436
      16       -0.000796446720    -0.001010064953    -0.001766596631
      17       -0.000000254152    -0.000013999146    -0.000002665744
      18        0.000009546067    -0.000000344637    -0.000005905211
      19        0.000002407243     0.000027253835     0.000028287256
      20        0.000006595531    -0.000008015966    -0.000023453531
      21        0.000006087138     0.000015318579     0.000011090930
      22        0.000007892738    -0.000016500895    -0.000012663032
      23       -0.000009616550    -0.000019818027    -0.000006933785
      24       -0.000002531834     0.000002172266     0.000028475319
      25       -0.000001820970     0.000004273102    -0.000024034251
      26       -0.000024049000    -0.000004568118     0.000007546105
      27        0.000013680450     0.000020988520     0.000011651528

  **** Optimization is complete! (in 6 steps) ****
    Final optimized geometry and variables:
    Molecular point group: c1

    Geometry (in Angstrom), charge = 0, multiplicity = 1:

    H            2.865253393113     0.962190769949     1.767505245412
    O            3.592433202023     0.833288320962     1.187594634883
    C            3.605159887786    -0.486476069952     0.710877746713
    C            2.504095274460    -0.776982626835    -0.298037811454
    H            4.570698988543    -0.621924911584     0.242514337293
    H            3.547508518550    -1.189706397519     1.539454565671
    C            1.091480713905    -0.695398775623     0.274174251575
    H            2.603780195482    -0.083877125854    -1.127900428460
    H            2.671997314948    -1.774330288462    -0.697952915621
    C            0.007641033713    -1.052221242732    -0.743750375487
    H            0.904828446702     0.309195199748     0.645510255714
    H            1.009614025967    -1.362748673649     1.129742621395
    C           -1.420764246030    -0.895770162991    -0.193426507094
    H            0.134017828753    -0.405452010212    -1.607010596677
    H            0.169486265178    -2.068548939157    -1.086539263167
    C           -2.107163332086     0.396913739795    -0.630585352181
    H           -2.030778302917    -1.731767919415    -0.521925930161
    H           -1.402687239565    -0.949224325222     0.891464518911
    C           -3.501618458533     0.575529127922    -0.037889740826
    H           -2.173792792884     0.410996714934    -1.715541630302
    H           -1.489990131076     1.249403253863    -0.354395740029
    C           -4.189054824833     1.857429658818    -0.496360987102
    H           -4.117183749916    -0.278808961832    -0.306714625124
    H           -3.433992884433     0.571504512404     1.046698384103
    H           -4.303469230572     1.875842605504    -1.575143033319
    H           -5.175886055070     1.952797420249    -0.057999053580
    H           -3.614876896264     2.732941635028    -0.211607372098

  Mulliken Charges: (a.u.)
   Center  Symbol    Alpha    Beta     Spin     Total
       1     H     0.39237  0.39237  0.00000  0.21526
       2     O     4.20567  4.20567  0.00000 -0.41134
       3     C     2.97970  2.97970  0.00000  0.04059
       4     C     3.09051  3.09051  0.00000 -0.18102
       5     H     0.44863  0.44863  0.00000  0.10274
       6     H     0.46978  0.46978  0.00000  0.06043
       7     C     3.09946  3.09946  0.00000 -0.19892
       8     H     0.45031  0.45031  0.00000  0.09938
       9     H     0.45600  0.45600  0.00000  0.08800
      10     C     3.10013  3.10013  0.00000 -0.20026
      11     H     0.45735  0.45735  0.00000  0.08529
      12     H     0.45317  0.45317  0.00000  0.09366
      13     C     3.09982  3.09982  0.00000 -0.19964
      14     H     0.45284  0.45284  0.00000  0.09433
      15     H     0.44607  0.44607  0.00000  0.10787
      16     C     3.08449  3.08449  0.00000 -0.16898
      17     H     0.44720  0.44720  0.00000  0.10561
      18     H     0.45484  0.45484  0.00000  0.09032
      19     C     3.08543  3.08543  0.00000 -0.17085
      20     H     0.45372  0.45372  0.00000  0.09256
      21     H     0.45486  0.45486  0.00000  0.09027
      22     C     3.14977  3.14977  0.00000 -0.29953
      23     H     0.45462  0.45462  0.00000  0.09077
      24     H     0.45454  0.45454  0.00000  0.09091
      25     H     0.45509  0.45509  0.00000  0.08983
      26     H     0.44847  0.44847  0.00000  0.10306
      27     H     0.45516  0.45516  0.00000  0.08968

   Total alpha = 37.00000, Total beta = 37.00000, Total charge = -0.00000

*** Psi4 exiting successfully. Buy a developer a beer!
