  ==> Input File <==

--------------------------------------------------------------------------
set {
	reference rhf
	basis 6-31G*
}

set_num_threads( 4 )
memory 2 gb

molecule MOL {
0 1

H	 1.919298	 -0.717004	 -0.891590
O	 1.586534	 -0.678666	 -0.000226
C	 0.489431	 0.077273	 0.000046
C	 -0.764129	 -0.759190	 0.000191
O	 0.537743	 1.263962	 0.000257
C	 -2.038368	 0.075731	 -0.000248
H	 -0.717284	 -1.412404	 -0.866059
H	 -0.717458	 -1.411724	 0.866967
H	 -2.086483	 0.712501	 -0.875098
H	 -2.908485	 -0.571682	 -0.000042
H	 -2.086576	 0.713280	 0.874068

	symmetry c1
}
set optking {
	frozen_dihedral = ("
		1 2 3 5
	")
}

ee = optimize('scf')
oeprop('DIPOLE', 'QUADRUPOLE', 'MULLIKEN_CHARGES')
f=open( 'psi4out.xyz', 'w' )
f.write( "11  " )
f.write( str(ee) + "\n" )
f.write( MOL.save_string_xyz() )
f.close()
--------------------------------------------------------------------------

    Molecular point group: c1
  Charge       = 0
  Multiplicity = 1
  Basis Set: 6-31G*
  Basis Set:
  @DF-RHF Final Energy:  -266.82429343465685
    Total Energy =                       -266.8242934346567381
    Molecular point group: c1
  Basis Set: 6-31G*
  Basis Set:
  Basis Set: 6-31G*
  Basis Set:
  @DF-RHF Final Energy:  -266.82401801201411
    Total Energy =                       -266.8240180120142213
  Basis Set: 6-31G*
  Basis Set:
  Basis Set: 6-31G*
  Basis Set:
  @DF-RHF Final Energy:  -266.82517432425550
    Total Energy =                       -266.8251743242553857
  Basis Set: 6-31G*
  Basis Set:
  Basis Set: 6-31G*
  Basis Set:
  @DF-RHF Final Energy:  -266.82602163301374
    Total Energy =                       -266.8260216330136245
  Basis Set: 6-31G*
  Basis Set:
  Basis Set: 6-31G*
  Basis Set:
  @DF-RHF Final Energy:  -266.82602921178415
    Total Energy =                       -266.8260292117840891
  Basis Set: 6-31G*
  Basis Set:
  Charge       = 0
  Multiplicity = 1
  Basis Set: 6-31G*
  Basis Set:

    Orbital Energies (a.u.)
    -----------------------

    Doubly Occupied:

       1A    -20.595488     2A    -20.563230     3A    -11.382312
       4A    -11.245268     5A    -11.221271     6A     -1.461378
       7A     -1.367995     8A     -1.063857     9A     -0.910641
      10A     -0.804898    11A     -0.710322    12A     -0.676381
      13A     -0.658094    14A     -0.612706    15A     -0.567253
      16A     -0.528189    17A     -0.521740    18A     -0.500007
      19A     -0.490636    20A     -0.446132

  @DF-RHF Final Energy:  -266.82602972779222

   => Energetics <=

    Nuclear Repulsion Energy =            178.9773455501440367
    One-Electron Energy =                -718.9511515278562683
    Two-Electron Energy =                 273.1477762499199571
    DFT Exchange-Correlation Energy =       0.0000000000000000
    Empirical Dispersion Energy =           0.0000000000000000
    PCM Polarization Energy =               0.0000000000000000
    EFP Energy =                            0.0000000000000000
    Total Energy =                       -266.8260297277922746
    Molecular point group: c1
  Basis Set: 6-31G*
  Basis Set:

  -Total Gradient:
     Atom            X                  Y                   Z
    ------   -----------------  -----------------  -----------------
       1       -0.003202484740    -0.004875980037    -0.001287183864
       2        0.003831836939     0.006129278853     0.004014724737
       3       -0.000333878376    -0.001147593114    -0.007989719861
       4       -0.000013144701     0.000033802992    -0.000012164001
       5       -0.000288028261    -0.000104497803     0.005266031648
       6        0.000006051917    -0.000010782376     0.000006333894
       7       -0.000010953843    -0.000015123692    -0.000000287014
       8       -0.000004407238    -0.000004481141     0.000003759953
       9        0.000004829360    -0.000002451516    -0.000004301694
      10        0.000006534475    -0.000003051316    -0.000001417324
      11        0.000003644467     0.000000879154     0.000004223527

  **** Optimization is complete! (in 6 steps) ****
    Final optimized geometry and variables:
    Molecular point group: c1

    Geometry (in Angstrom), charge = 0, multiplicity = 1:

    H            2.041943779764    -0.723797076505    -0.822811349667
    O            1.620347900371    -0.673417581929     0.026612211104
    C            0.491304950241     0.086407033170    -0.018580838738
    C           -0.768292491656    -0.742590604870     0.002965542142
    O            0.531053217393     1.265509149670     0.007239251340
    C           -2.044613372902     0.087988050239     0.029832936679
    H           -0.741212099433    -1.400722669506    -0.862192165295
    H           -0.699935627257    -1.397218602845     0.867162290623
    H           -2.113951547387     0.726316187436    -0.842869279458
    H           -2.913812601053    -0.560510986702     0.048408701675
    H           -2.074424518181     0.724417030691     0.905767522987

  Mulliken Charges: (a.u.)
   Center  Symbol    Alpha    Beta     Spin     Total
       1     H     0.26565  0.26565  0.00000  0.46870
       2     O     4.36884  4.36884  0.00000 -0.73769
       3     C     2.63295  2.63295  0.00000  0.73411
       4     C     3.20685  3.20685  0.00000 -0.41370
       5     O     4.24664  4.24664  0.00000 -0.49327
       6     C     3.23980  3.23980  0.00000 -0.47961
       7     H     0.40759  0.40759  0.00000  0.18481
       8     H     0.39625  0.39625  0.00000  0.20750
       9     H     0.41087  0.41087  0.00000  0.17826
      10     H     0.41682  0.41682  0.00000  0.16636
      11     H     0.40774  0.40774  0.00000  0.18452

   Total alpha = 20.00000, Total beta = 20.00000, Total charge =  0.00000
