                              Psi4 1.0.54 Driver

  ==> Input File <==

--------------------------------------------------------------------------
set {
	reference rhf
	basis cc-pvtz
}

set_num_threads( 4 )
memory 2 gb

molecule MOL {
0 1

H	 -1.752232	 -2.214755	 -0.011938
C	 -1.343852	 -1.221619	 -0.018179
N	 -0.058800	 -1.097635	 -0.261688
C	 -2.148159	 -0.124236	 0.219734
C	 0.449026	 0.119242	 -0.273393
H	 -3.196988	 -0.237571	 0.417076
N	 -1.655094	 1.094230	 0.209506
C	 -0.370318	 1.215445	 -0.035100
C	 1.924033	 0.265863	 -0.538106
H	 0.033214	 2.210441	 -0.046812
C	 2.242841	 1.442291	 -1.462134
H	 2.425040	 0.408532	 0.411842
H	 2.305125	 -0.653036	 -0.967766
H	 3.313272	 1.536022	 -1.601157
H	 1.871796	 2.367983	 -1.042138
H	 1.787972	 1.307242	 -2.437020

	symmetry c1
}
set optking {
	frozen_dihedral = ("
		12 9 5 3
	")
}

ee,wfn = optimize('scf', return_wfn=True)
oeprop( wfn, 'DIPOLE', 'QUADRUPOLE', 'MULLIKEN_CHARGES')
f=open( 'psi4out.xyz', 'w' )
f.write( "16  " )
f.write( str(ee) + "\n" )
f.write( MOL.save_string_xyz() )
f.close()
--------------------------------------------------------------------------

    Molecular point group: c1
  Charge       = 0
  Multiplicity = 1
  Basis Set: CC-PVTZ
  Basis Set:
  @DF-RHF Final Energy:  -340.86913217238646
    Total Energy =                       -340.8691321723863439
    Molecular point group: c1
  Basis Set: CC-PVTZ
  Basis Set:
  Basis Set: CC-PVTZ
  Basis Set:
  @DF-RHF Final Energy:  -340.86969114153931
    Total Energy =                       -340.8696911415390787
  Basis Set: CC-PVTZ
  Basis Set:
  Basis Set: CC-PVTZ
  Basis Set:
  @DF-RHF Final Energy:  -340.87017565566657
    Total Energy =                       -340.8701756556665146
  Basis Set: CC-PVTZ
  Basis Set:
  Basis Set: CC-PVTZ
  Basis Set:
  @DF-RHF Final Energy:  -340.87020466865084
    Total Energy =                       -340.8702046686506719
  Basis Set: CC-PVTZ
  Basis Set:
  Basis Set: CC-PVTZ
  Basis Set:
  @DF-RHF Final Energy:  -340.87021093484179
    Total Energy =                       -340.8702109348417935
  Basis Set: CC-PVTZ
  Basis Set:
  Basis Set: CC-PVTZ
  Basis Set:
  @DF-RHF Final Energy:  -340.87021251089993
    Total Energy =                       -340.8702125108998757
  Basis Set: CC-PVTZ
  Basis Set:
  Charge       = 0
  Multiplicity = 1
  Basis Set: CC-PVTZ
  Basis Set:

    Orbital Energies (a.u.)
    -----------------------

    Doubly Occupied:

       1A    -15.580160     2A    -15.575223     3A    -11.279330
       4A    -11.270969     5A    -11.268523     6A    -11.266758
       7A    -11.231628     8A    -11.221674     9A     -1.315378
      10A     -1.223229    11A     -1.086494    12A     -1.016550
      13A     -0.907843    14A     -0.895318    15A     -0.831829
      16A     -0.716654    17A     -0.713379    18A     -0.655934
      19A     -0.622023    20A     -0.609076    21A     -0.577941
      22A     -0.565955    23A     -0.523295    24A     -0.512323
      25A     -0.505985    26A     -0.483360    27A     -0.433242
      28A     -0.397409    29A     -0.346368

  @DF-RHF Final Energy:  -340.87021336380985

   => Energetics <=

    Nuclear Repulsion Energy =            349.9463390187095229
    One-Electron Energy =               -1154.3654167026606956
    Two-Electron Energy =                 463.5488643201415471
    DFT Exchange-Correlation Energy =       0.0000000000000000
    Empirical Dispersion Energy =           0.0000000000000000
    PCM Polarization Energy =               0.0000000000000000
    EFP Energy =                            0.0000000000000000
    Total Energy =                       -340.8702133638096257
    Molecular point group: c1
  Basis Set: CC-PVTZ
  Basis Set:

  -Total Gradient:
     Atom            X                  Y                   Z
    ------   -----------------  -----------------  -----------------
       1       -0.000005302717     0.000002625179    -0.000004931248
       2        0.000127618113    -0.000033837030    -0.000006703278
       3        0.000024255941    -0.000106450027     0.000641929222
       4        0.000024787438     0.000126489236     0.000029001348
       5       -0.000149455700    -0.000031042015    -0.000860059936
       6       -0.000003870358    -0.000003969158    -0.000021429508
       7       -0.000067894683    -0.000066624205     0.000017951919
       8        0.000075987878    -0.000021782229    -0.000043057000
       9       -0.000043772727     0.000955783080     0.000196869451
      10       -0.000015873984    -0.000006566441    -0.000011725800
      11       -0.000010395711    -0.000042694421    -0.000066470476
      12        0.000082828119    -0.000785673418     0.000091083905
      13       -0.000012117348     0.000000619165    -0.000008526405
      14       -0.000079194459     0.000010698901     0.000005194516
      15        0.000006498271    -0.000034403015    -0.000014568411
      16        0.000045901929     0.000036826397     0.000055441700

  **** Optimization is complete! (in 7 steps) ****
    Final optimized geometry and variables:
    Molecular point group: c1

    Geometry (in Angstrom), charge = 0, multiplicity = 1:

    H           -1.659232956182    -2.458392568902     0.249051035414
    C           -1.267825867686    -1.458689084711     0.253573955955
    N            0.020078092655    -1.313485737749     0.018043806974
    C           -2.086770754002    -0.378588560459     0.495905959897
    C            0.512549875446    -0.093189977263     0.017641964771
    H           -3.135083259330    -0.506040854851     0.686129226745
    N           -1.607833896950     0.848866533372     0.502799930904
    C           -0.326713948615     0.990856273956     0.266973453088
    C            1.995618903598     0.061497977117    -0.221286760591
    H            0.057383709956     1.992292971135     0.276420941261
    C            2.388399040021     1.188096346721    -1.175546020153
    H            2.486433026126     0.206998909856     0.736988800462
    H            2.350531501119    -0.885082877507    -0.604051977256
    H            3.459450034177     1.180404854825    -1.335705716934
    H            2.125951020580     2.164564747956    -0.788098249973
    H            1.905542341410     1.069922602002    -2.138466749890

  Mulliken Charges: (a.u.)
   Center  Symbol    Alpha    Beta     Spin     Total
       1     H     0.41388  0.41388  0.00000  0.17223
       2     C     3.04126  3.04126  0.00000 -0.08252
       3     N     3.59001  3.59001  0.00000 -0.18003
       4     C     3.04799  3.04799  0.00000 -0.09597
       5     C     2.95300  2.95300  0.00000  0.09401
       6     H     0.41368  0.41368  0.00000  0.17263
       7     N     3.58804  3.58804  0.00000 -0.17608
       8     C     3.07370  3.07370  0.00000 -0.14740
       9     C     3.07705  3.07705  0.00000 -0.15411
      10     H     0.41442  0.41442  0.00000  0.17116
      11     C     3.15045  3.15045  0.00000 -0.30091
      12     H     0.44686  0.44686  0.00000  0.10628
      13     H     0.44071  0.44071  0.00000  0.11859
      14     H     0.44592  0.44592  0.00000  0.10816
      15     H     0.45498  0.45498  0.00000  0.09003
      16     H     0.44804  0.44804  0.00000  0.10392

   Total alpha = 29.00000, Total beta = 29.00000, Total charge = -0.00000

*** Psi4 exiting successfully. Buy a developer a beer!
