  ==> Input File <==

--------------------------------------------------------------------------
set {
	reference rhf
	basis 6-31G*
}

set_num_threads( 4 )
memory 2 gb

molecule MOL {
0 1

O	 0.625848	 1.349995	 -0.000749
C	 0.486307	 0.169203	 0.000779
C	 1.608116	 -0.841643	 0.000302
O	 -0.698257	 -0.426125	 0.001050
C	 2.990107	 -0.200498	 -0.000684
H	 1.468623	 -1.481519	 -0.865924
H	 1.469683	 -1.481289	 0.866878
H	 3.129736	 0.423364	 -0.875135
H	 3.757882	 -0.966877	 -0.001197
H	 3.130964	 0.423383	 0.873533
C	 -1.286424	 -0.721354	 -1.261605
C	 -2.617424	 -1.392499	 -0.996434
H	 -0.619050	 -1.363700	 -1.819805
H	 -1.406104	 0.197988	 -1.818452
H	 -2.480901	 -2.308691	 -0.433308
H	 -3.102112	 -1.636017	 -1.936341
H	 -3.272374	 -0.738507	 -0.431995

	symmetry c1
}
set optking {
	frozen_dihedral = ("
		11 4 2 3
	")
}

ee = optimize('scf')
oeprop('DIPOLE', 'QUADRUPOLE', 'MULLIKEN_CHARGES')
f=open( 'psi4out.xyz', 'w' )
f.write( "17  " )
f.write( str(ee) + "\n" )
f.write( MOL.save_string_xyz() )
f.close()
--------------------------------------------------------------------------

    Molecular point group: c1
  Charge       = 0
  Multiplicity = 1
  Basis Set: 6-31G*
  Basis Set:
  @DF-RHF Final Energy:  -344.89099579147063
    Total Energy =                       -344.8909957914706297
    Molecular point group: c1
  Basis Set: 6-31G*
  Basis Set:
  Basis Set: 6-31G*
  Basis Set:
  @DF-RHF Final Energy:  -344.89207337511527
    Total Energy =                       -344.8920733751156149
  Basis Set: 6-31G*
  Basis Set:
  Basis Set: 6-31G*
  Basis Set:
  @DF-RHF Final Energy:  -344.89216424864725
    Total Energy =                       -344.8921642486471910
  Basis Set: 6-31G*
  Basis Set:
  Basis Set: 6-31G*
  Basis Set:
  @DF-RHF Final Energy:  -344.89226627109895
    Total Energy =                       -344.8922662710990039
  Basis Set: 6-31G*
  Basis Set:
  Basis Set: 6-31G*
  Basis Set:
  @DF-RHF Final Energy:  -344.89230369779170
    Total Energy =                       -344.8923036977918173
  Basis Set: 6-31G*
  Basis Set:
  Basis Set: 6-31G*
  Basis Set:
  @DF-RHF Final Energy:  -344.89230607382211
    Total Energy =                       -344.8923060738219988
  Basis Set: 6-31G*
  Basis Set:
  Charge       = 0
  Multiplicity = 1
  Basis Set: 6-31G*
  Basis Set:

    Orbital Energies (a.u.)
    -----------------------

    Doubly Occupied:

       1A    -20.582371     2A    -20.556350     3A    -11.374153
       4A    -11.295926     5A    -11.242060     6A    -11.224728
       7A    -11.218835     8A     -1.457324     9A     -1.366266
      10A     -1.065236    11A     -1.037195    12A     -0.904319
      13A     -0.864515    14A     -0.769837    15A     -0.701240
      16A     -0.683882    17A     -0.656173    18A     -0.636498
      19A     -0.603460    20A     -0.564052    21A     -0.556098
      22A     -0.530216    23A     -0.526926    24A     -0.520686
      25A     -0.506796    26A     -0.487225    27A     -0.450757
      28A     -0.434542

  @DF-RHF Final Energy:  -344.89230648804272

   => Energetics <=

    Nuclear Repulsion Energy =            314.3515230592552712
    One-Electron Energy =               -1092.8523310834389122
    Two-Electron Energy =                 433.6085015361408637
    DFT Exchange-Correlation Energy =       0.0000000000000000
    Empirical Dispersion Energy =           0.0000000000000000
    PCM Polarization Energy =               0.0000000000000000
    EFP Energy =                            0.0000000000000000
    Total Energy =                       -344.8923064880428342
    Molecular point group: c1
  Basis Set: 6-31G*
  Basis Set:

  -Total Gradient:
     Atom            X                  Y                   Z
    ------   -----------------  -----------------  -----------------
       1       -0.000016352804     0.000012845549    -0.000005889961
       2        0.000540054682    -0.001117956742     0.003303043965
       3       -0.000012915728     0.000008644267    -0.002278924049
       4       -0.001627076841     0.003337861432    -0.000982234415
       5        0.000005882239    -0.000000442137    -0.000000300463
       6       -0.000003152798     0.000003342940    -0.000009464008
       7        0.000008273696    -0.000006101266    -0.000005694355
       8       -0.000007314813    -0.000005980093     0.000006684973
       9        0.000005146963    -0.000000398663     0.000001790343
      10        0.000004392786     0.000002149430    -0.000000204219
      11        0.001094453614    -0.002221296000    -0.000026844908
      12        0.000005234938    -0.000001402014    -0.000002154440
      13        0.000006504608    -0.000001785094     0.000020481233
      14       -0.000004701949    -0.000009304383    -0.000016792530
      15       -0.000000151031     0.000000118183    -0.000001579161
      16       -0.000002935813    -0.000001398015    -0.000002009659
      17        0.000004658251     0.000001102603     0.000000091653

  **** Optimization is complete! (in 7 steps) ****
    Final optimized geometry and variables:
    Molecular point group: c1

    Geometry (in Angstrom), charge = 0, multiplicity = 1:

    O            0.461752864620     1.613255067230     0.354938570881
    C            0.352308532510     0.436876783160     0.328854724849
    C            1.508887548734    -0.534610726204     0.321631457936
    O           -0.860158346150    -0.162949879861     0.327398869915
    C            2.873029853062     0.143560279399     0.328463191916
    H            1.397155147004    -1.178869751068    -0.546467885438
    H            1.385250561320    -1.183940308656     1.184032546607
    H            2.999338595677     0.774636930906    -0.543079086618
    H            3.662501041891    -0.600398833391     0.329117803700
    H            2.991067481714     0.767932314396     1.205534035087
    C           -1.447208327931    -0.445369501576    -0.933549947808
    C           -2.809934482895    -1.055069976664    -0.683799622762
    H           -0.815002441532    -1.132654301998    -1.487719705091
    H           -1.530682492934     0.474772721939    -1.500622547977
    H           -2.717539675017    -1.970206754803    -0.110536712457
    H           -3.294584932391    -1.284316462424    -1.627385316369
    H           -3.435066197275    -0.364521857516    -0.130741713103

  Mulliken Charges: (a.u.)
   Center  Symbol    Alpha    Beta     Spin     Total
       1     O     4.25211  4.25211  0.00000 -0.50422
       2     C     2.61316  2.61316  0.00000  0.77368
       3     C     3.21122  3.21122  0.00000 -0.42244
       4     O     4.32243  4.32243  0.00000 -0.64486
       5     C     3.23893  3.23893  0.00000 -0.47786
       6     H     0.40701  0.40701  0.00000  0.18599
       7     H     0.39846  0.39846  0.00000  0.20308
       8     H     0.41089  0.41089  0.00000  0.17821
       9     H     0.41797  0.41797  0.00000  0.16405
      10     H     0.40802  0.40802  0.00000  0.18396
      11     C     3.00296  3.00296  0.00000 -0.00592
      12     C     3.24616  3.24616  0.00000 -0.49233
      13     H     0.42447  0.42447  0.00000  0.15105
      14     H     0.41138  0.41138  0.00000  0.17724
      15     H     0.41102  0.41102  0.00000  0.17795
      16     H     0.41760  0.41760  0.00000  0.16480
      17     H     0.40620  0.40620  0.00000  0.18761

   Total alpha = 28.00000, Total beta = 28.00000, Total charge = -0.00000
