                              Psi4 1.0.54 Driver

  ==> Input File <==

--------------------------------------------------------------------------
set {
	reference rhf
	basis cc-pvtz
}

set_num_threads( 4 )
memory 2 gb

molecule MOL {
0 1

H	 -0.000105	 1.988529	 0.748933
O	 -0.000098	 1.879786	 -0.188206
C	 -0.000014	 0.545691	 -0.532416
C	 -1.315338	 0.177868	 -1.221187
C	 0.337953	 -0.314263	 0.686613
H	 0.787385	 0.389424	 -1.255082
F	 -1.458774	 0.908465	 -2.299387
F	 -1.354262	 -1.080436	 -1.580169
F	 -2.347264	 0.413189	 -0.439441
F	 1.520942	 0.021489	 1.139012
F	 0.363976	 -1.591906	 0.402597
F	 -0.528783	 -0.128098	 1.658975

	symmetry c1
}
set optking {
	frozen_dihedral = ("
		6 3 2 1
	")
}

ee,wfn = optimize('scf', return_wfn=True)
oeprop( wfn, 'DIPOLE', 'QUADRUPOLE', 'MULLIKEN_CHARGES')
f=open( 'psi4out.xyz', 'w' )
f.write( "12  " )
f.write( str(ee) + "\n" )
f.write( MOL.save_string_xyz() )
f.close()
--------------------------------------------------------------------------

    Molecular point group: c1
  Charge       = 0
  Multiplicity = 1
  Basis Set: CC-PVTZ
  Basis Set:
  @DF-RHF Final Energy:  -786.58542821735398
    Total Energy =                       -786.5854282173538650
    Molecular point group: c1
  Basis Set: CC-PVTZ
  Basis Set:
  Basis Set: CC-PVTZ
  Basis Set:
  @DF-RHF Final Energy:  -786.58599236138753
    Total Energy =                       -786.5859923613875253
  Basis Set: CC-PVTZ
  Basis Set:
  Basis Set: CC-PVTZ
  Basis Set:
  @DF-RHF Final Energy:  -786.58611042460188
    Total Energy =                       -786.5861104246021114
  Basis Set: CC-PVTZ
  Basis Set:
  Basis Set: CC-PVTZ
  Basis Set:
  @DF-RHF Final Energy:  -786.58612231872200
    Total Energy =                       -786.5861223187223459
  Basis Set: CC-PVTZ
  Basis Set:
  Basis Set: CC-PVTZ
  Basis Set:
  @DF-RHF Final Energy:  -786.58612391952829
    Total Energy =                       -786.5861239195280632
  Basis Set: CC-PVTZ
  Basis Set:
  Charge       = 0
  Multiplicity = 1
  Basis Set: CC-PVTZ
  Basis Set:

    Orbital Energies (a.u.)
    -----------------------

    Doubly Occupied:

       1A    -26.364259     2A    -26.363823     3A    -26.361773
       4A    -26.351492     5A    -26.350676     6A    -26.348166
       7A    -20.607859     8A    -11.527168     9A    -11.514284
      10A    -11.351894    11A     -1.776800    12A     -1.762619
      13A     -1.672865    14A     -1.668802    15A     -1.658245
      16A     -1.656416    17A     -1.437175    18A     -1.104824
      19A     -1.003089    20A     -0.944752    21A     -0.875521
      22A     -0.869470    23A     -0.862926    24A     -0.849752
      25A     -0.839013    26A     -0.811855    27A     -0.752118
      28A     -0.739498    29A     -0.727455    30A     -0.724914
      31A     -0.704216    32A     -0.696811    33A     -0.691910
      34A     -0.678242    35A     -0.674227    36A     -0.673196
      37A     -0.659808    38A     -0.657513    39A     -0.622238
      40A     -0.551149    41A     -0.508063

  @DF-RHF Final Energy:  -786.58612413688581

   => Energetics <=

    Nuclear Repulsion Energy =            670.9859074245451893
    One-Electron Energy =               -2429.1503067463045227
    Two-Electron Energy =                 971.5782751848735188
    DFT Exchange-Correlation Energy =       0.0000000000000000
    Empirical Dispersion Energy =           0.0000000000000000
    PCM Polarization Energy =               0.0000000000000000
    EFP Energy =                            0.0000000000000000
    Total Energy =                       -786.5861241368859282
    Molecular point group: c1
  Basis Set: CC-PVTZ
  Basis Set:

  -Total Gradient:
     Atom            X                  Y                   Z
    ------   -----------------  -----------------  -----------------
       1        0.002506221023    -0.000056407898    -0.000082826965
       2       -0.002786469086    -0.000066519281     0.000505589652
       3       -0.001150551317     0.000512080000    -0.001984658988
       4       -0.000013379117     0.000074327066     0.000062243199
       5       -0.000051024618    -0.000005157779     0.000006157213
       6        0.001424711693    -0.000395478643     0.001542960980
       7       -0.000019181162    -0.000014387237    -0.000005558509
       8        0.000000727317    -0.000016441375     0.000013612666
       9        0.000018106592    -0.000022181605    -0.000069429024
      10        0.000089539349     0.000005422462     0.000015911851
      11       -0.000020678790     0.000014461501     0.000014715907
      12        0.000001978114    -0.000029717207    -0.000018717974

  **** Optimization is complete! (in 6 steps) ****
    Final optimized geometry and variables:
    Molecular point group: c1

    Geometry (in Angstrom), charge = 0, multiplicity = 1:

    H            0.583968872953     1.962871185275     0.900957908397
    O            0.543703266188     1.809542746149    -0.026615747700
    C            0.500444725261     0.464450669118    -0.339061750560
    C           -0.863854121591     0.144812485213    -0.950297739659
    C            0.859003942394    -0.396431327150     0.871024424346
    H            1.247624280011     0.242590738360    -1.089932067066
    F           -1.076764532976     0.939374994858    -1.969386704189
    F           -0.913335634486    -1.091037143266    -1.390056905117
    F           -1.841518295763     0.312493461243    -0.093603795281
    F            2.093127752843    -0.125081868503     1.236364096881
    F            0.786009420574    -1.673883607939     0.611913422675
    F            0.084537436447    -0.136761494077     1.901436411345

  Mulliken Charges: (a.u.)
   Center  Symbol    Alpha    Beta     Spin     Total
       1     H     0.38189  0.38189  0.00000  0.23622
       2     O     4.19009  4.19009  0.00000 -0.38017
       3     C     2.99851  2.99851  0.00000  0.00298
       4     C     2.68009  2.68009  0.00000  0.63982
       5     C     2.68784  2.68784  0.00000  0.62433
       6     H     0.43457  0.43457  0.00000  0.13085
       7     F     4.60174  4.60174  0.00000 -0.20348
       8     F     4.60602  4.60602  0.00000 -0.21205
       9     F     4.60614  4.60614  0.00000 -0.21229
      10     F     4.60654  4.60654  0.00000 -0.21307
      11     F     4.59798  4.59798  0.00000 -0.19596
      12     F     4.60860  4.60860  0.00000 -0.21719

   Total alpha = 41.00000, Total beta = 41.00000, Total charge =  0.00000

*** Psi4 exiting successfully. Buy a developer a beer!
