  ==> Input File <==

--------------------------------------------------------------------------
set {
	reference rhf
	basis cc-pvtz
}

set_num_threads( 4 )
memory 2 gb

molecule MOL {
0 1

O	 -0.694481	 1.313155	 -0.204815
C	 -0.862519	 0.151932	 -0.046791
C	 -2.171428	 -0.477048	 0.339095
O	 0.085519	 -0.757083	 -0.192238
H	 -2.467997	 -1.191667	 -0.417688
H	 -2.923379	 0.287970	 0.444097
H	 -2.053854	 -1.015120	 1.270901
C	 1.392036	 -0.330828	 -0.560749
C	 1.385278	 1.077636	 -1.117597
H	 1.805986	 -1.028249	 -1.272132
H	 1.963963	 -0.380100	 0.353703
H	 2.402333	 1.391471	 -1.323891
H	 0.821261	 1.126299	 -2.038955
H	 0.953716	 1.769137	 -0.404033

	symmetry c1
}
set optking {
	frozen_dihedral = ("
		10 8 4 2
	")
}

ee = optimize('scf')
oeprop('DIPOLE', 'QUADRUPOLE', 'MULLIKEN_CHARGES')
f=open( 'psi4out.xyz', 'w' )
f.write( "14  " )
f.write( str(ee) + "\n" )
f.write( MOL.save_string_xyz() )
f.close()
--------------------------------------------------------------------------

    Molecular point group: c1
  Charge       = 0
  Multiplicity = 1
  Basis Set: CC-PVTZ
  Basis Set:
  @DF-RHF Final Energy:  -305.94826219232925
    Total Energy =                       -305.9482621923290822
    Molecular point group: c1
  Basis Set: CC-PVTZ
  Basis Set:
  Basis Set: CC-PVTZ
  Basis Set:
  @DF-RHF Final Energy:  -305.97342173912364
    Total Energy =                       -305.9734217391230686
  Basis Set: CC-PVTZ
  Basis Set:
  Basis Set: CC-PVTZ
  Basis Set:
  @DF-RHF Final Energy:  -305.97842922371103
    Total Energy =                       -305.9784292237110321
  Basis Set: CC-PVTZ
  Basis Set:
  Basis Set: CC-PVTZ
  Basis Set:
  @DF-RHF Final Energy:  -305.97434946506553
    Total Energy =                       -305.9743494650651883
  Basis Set: CC-PVTZ
  Basis Set:
  @DF-RHF Final Energy:  -305.98061353017727
    Total Energy =                       -305.9806135301772656
  @DF-RHF Final Energy:  -305.98085905177277
    Total Energy =                       -305.9808590517726543
  Basis Set: CC-PVTZ
  Basis Set:
  @DF-RHF Final Energy:  -305.98088241182967
    Total Energy =                       -305.9808824118294410
  Basis Set: CC-PVTZ
  Basis Set:
  Basis Set: CC-PVTZ
  Basis Set:
  @DF-RHF Final Energy:  -305.98088888271928
    Total Energy =                       -305.9808888827193414
  Basis Set: CC-PVTZ
  Basis Set:
  Basis Set: CC-PVTZ
  Basis Set:
  @DF-RHF Final Energy:  -305.98089045143121
    Total Energy =                       -305.9808904514311507
  Basis Set: CC-PVTZ
  Basis Set:
  Charge       = 0
  Multiplicity = 1
  Basis Set: CC-PVTZ
  Basis Set:

    Orbital Energies (a.u.)
    -----------------------

    Doubly Occupied:

       1A    -20.591332     2A    -20.529259     3A    -11.368035
       4A    -11.289763     5A    -11.228967     6A    -11.214048
       7A     -1.464173     8A     -1.365028     9A     -1.056005
      10A     -0.996925    11A     -0.893588    12A     -0.749439
      13A     -0.693047    14A     -0.683392    15A     -0.672335
      16A     -0.613906    17A     -0.587929    18A     -0.569747
      19A     -0.548095    20A     -0.534507    21A     -0.515703
      22A     -0.496463    23A     -0.448664    24A     -0.433388

  @DF-RHF Final Energy:  -305.98089144094240

   => Energetics <=

    Nuclear Repulsion Energy =            249.3752262785012874
    One-Electron Energy =                -911.6247601604716237
    Two-Electron Energy =                 356.2686424410277937
    DFT Exchange-Correlation Energy =       0.0000000000000000
    Empirical Dispersion Energy =           0.0000000000000000
    PCM Polarization Energy =               0.0000000000000000
    EFP Energy =                            0.0000000000000000
    Total Energy =                       -305.9808914409425711
    Molecular point group: c1
  Basis Set: CC-PVTZ
  Basis Set:

  -Total Gradient:
     Atom            X                  Y                   Z
    ------   -----------------  -----------------  -----------------
       1       -0.000050354921    -0.000041723222    -0.000000462694
       2       -0.001067643882    -0.000543483908    -0.003934865277
       3        0.000010497312    -0.000010095662    -0.000060732595
       4        0.001301406311     0.001228482724     0.005569587047
       5        0.000008712954    -0.000014394484     0.000015639706
       6        0.000010980196     0.000014997451     0.000000064620
       7        0.000012014434     0.000019284993     0.000015274139
       8        0.001395371971    -0.002814969572     0.001707400596
       9       -0.000005664560     0.000012791263     0.000010620682
      10       -0.001654000659     0.002146378125    -0.003289013080
      11       -0.000002907518     0.000005003652    -0.000013992128
      12        0.000006052060    -0.000007708682     0.000007231642
      13        0.000004646822     0.000018127394     0.000016262769
      14        0.000030889479    -0.000012690071    -0.000043015427

  **** Optimization is complete! (in 10 steps) ****
    Final optimized geometry and variables:
    Molecular point group: c1

    Geometry (in Angstrom), charge = 0, multiplicity = 1:

    O           -0.739316270912     1.171419707170     0.290494952955
    C           -0.786643526759    -0.010240651881     0.305758034081
    C           -2.046998345908    -0.799035491504     0.538186797184
    O            0.242480053874    -0.820858891769     0.146563963303
    H           -2.251252254176    -1.418947798886    -0.325403044399
    H           -2.868359962348    -0.123126978175     0.712367999197
    H           -1.914816334421    -1.454728072038     1.388818897064
    C            1.558483440187    -0.441263864132    -0.259220957765
    C            1.735402887911     0.877786754760    -0.991383639171
    H            1.853007783117    -1.234907475252    -0.930224591719
    H            2.184339096280    -0.475904994766     0.621863068707
    H            2.754649002171     0.894094385314    -1.363983830482
    H            1.067760744693     0.953828837785    -1.839464118579
    H            1.579771350809     1.734346681748    -0.358388384252

  Mulliken Charges: (a.u.)
   Center  Symbol    Alpha    Beta     Spin     Total
       1     O     4.19763  4.19763  0.00000 -0.39525
       2     C     2.80454  2.80454  0.00000  0.39093
       3     C     3.13663  3.13663  0.00000 -0.27326
       4     O     4.15618  4.15618  0.00000 -0.31236
       5     H     0.44740  0.44740  0.00000  0.10521
       6     H     0.43896  0.43896  0.00000  0.12207
       7     H     0.44524  0.44524  0.00000  0.10952
       8     C     2.97946  2.97946  0.00000  0.04108
       9     C     3.15186  3.15186  0.00000 -0.30371
      10     H     0.45103  0.45103  0.00000  0.09794
      11     H     0.45436  0.45436  0.00000  0.09128
      12     H     0.45215  0.45215  0.00000  0.09570
      13     H     0.44903  0.44903  0.00000  0.10195
      14     H     0.43555  0.43555  0.00000  0.12890

   Total alpha = 24.00000, Total beta = 24.00000, Total charge = -0.00000
