  ==> Input File <==

--------------------------------------------------------------------------
set {
	reference rhf
	basis 6-31G*
}

set_num_threads( 4 )
memory 2 gb

molecule MOL {
0 1

H	 -3.301617	 0.570527	 0.000000
C	 -2.250981	 0.344174	 0.000000
C	 -1.813665	 -0.976045	 0.000000
C	 -1.315303	 1.358057	 0.000000
H	 -2.528860	 -1.779366	 0.000000
C	 -0.467298	 -1.270142	 0.000000
H	 -1.635074	 2.385107	 0.000000
C	 0.047081	 1.078114	 0.000000
H	 -0.115948	 -2.285222	 0.000000
C	 0.472063	 -0.241155	 0.000000
H	 0.749976	 1.888426	 0.000000
O	 1.765256	 -0.628444	 0.000000
C	 2.773129	 0.317516	 0.210772
H	 2.767523	 1.082240	 -0.558967
H	 3.707513	 -0.221759	 0.166948
H	 2.679347	 0.787812	 1.184096

	symmetry c1
}
set optking {
	frozen_dihedral = ("
		13 12 10 8
	")
}

ee = optimize('scf')
oeprop('DIPOLE', 'QUADRUPOLE', 'MULLIKEN_CHARGES')
f=open( 'psi4out.xyz', 'w' )
f.write( "16  " )
f.write( str(ee) + "\n" )
f.write( MOL.save_string_xyz() )
f.close()
--------------------------------------------------------------------------

    Molecular point group: c1
  Charge       = 0
  Multiplicity = 1
  Basis Set: 6-31G*
  Basis Set:
  @DF-RHF Final Energy:  -344.58248804467735
    Total Energy =                       -344.5824880446775182
    Molecular point group: c1
  Basis Set: 6-31G*
  Basis Set:
  Basis Set: 6-31G*
  Basis Set:
  @DF-RHF Final Energy:  -344.58249768085761
    Total Energy =                       -344.5824976808576139
  Basis Set: 6-31G*
  Basis Set:
  Basis Set: 6-31G*
  Basis Set:
  @DF-RHF Final Energy:  -344.58265078188532
    Total Energy =                       -344.5826507818853202
  Basis Set: 6-31G*
  Basis Set:
  Basis Set: 6-31G*
  Basis Set:
  @DF-RHF Final Energy:  -344.58265283092373
    Total Energy =                       -344.5826528309237347
  Basis Set: 6-31G*
  Basis Set:
  Charge       = 0
  Multiplicity = 1
  Basis Set: 6-31G*
  Basis Set:

    Orbital Energies (a.u.)
    -----------------------

    Doubly Occupied:

       1A    -20.584798     2A    -11.293787     3A    -11.279883
       4A    -11.232848     5A    -11.231332     6A    -11.223814
       7A    -11.219365     8A    -11.219218     9A     -1.413900
      10A     -1.145757    11A     -1.021608    12A     -1.012667
      13A     -0.941413    14A     -0.830392    15A     -0.804583
      16A     -0.721445    17A     -0.663902    18A     -0.661622
      19A     -0.655922    20A     -0.616683    21A     -0.586775
      22A     -0.575866    23A     -0.524411    24A     -0.519805
      25A     -0.508523    26A     -0.476005    27A     -0.461226
      28A     -0.334573    29A     -0.305168

  @DF-RHF Final Energy:  -344.58265367789124

   => Energetics <=

    Nuclear Repulsion Energy =            348.1205334305535644
    One-Electron Energy =               -1157.2717915019275097
    Two-Electron Energy =                 464.5686043934823601
    DFT Exchange-Correlation Energy =       0.0000000000000000
    Empirical Dispersion Energy =           0.0000000000000000
    PCM Polarization Energy =               0.0000000000000000
    EFP Energy =                            0.0000000000000000
    Total Energy =                       -344.5826536778915852
    Molecular point group: c1
  Basis Set: 6-31G*
  Basis Set:

  -Total Gradient:
     Atom            X                  Y                   Z
    ------   -----------------  -----------------  -----------------
       1        0.000000847958     0.000001276047     0.000002219517
       2        0.000003198999     0.000015387238    -0.000008128485
       3        0.000011737011    -0.000003813646     0.000013996592
       4       -0.000018813431    -0.000001899456    -0.000008662268
       5        0.000001424146     0.000000526932    -0.000004115617
       6       -0.000009459922    -0.000004574511     0.000005328183
       7       -0.000002473708     0.000000623870     0.000006661543
       8       -0.000008805132     0.000008405663    -0.000756068889
       9        0.000001878807    -0.000000587291    -0.000003535284
      10        0.000021673930    -0.000062452798     0.001534973286
      11       -0.000012443240    -0.000004116928     0.000005498015
      12        0.000045851372     0.000174587917    -0.001454674321
      13       -0.000033380414    -0.000113078327     0.000652942478
      14        0.000018382154     0.000009019327     0.000005940122
      15       -0.000009043099    -0.000008577108     0.000000388531
      16       -0.000010575433    -0.000010726930     0.000007236596

  **** Optimization is complete! (in 5 steps) ****
    Final optimized geometry and variables:
    Molecular point group: c1

    Geometry (in Angstrom), charge = 0, multiplicity = 1:

    H           -3.300798802259     0.572719103891    -0.028619378659
    C           -2.250146867936     0.346314267560    -0.027975078803
    C           -1.813168809806    -0.973995961368    -0.040208573486
    C           -1.314430462486     1.360127993173    -0.015251033651
    H           -2.528791805476    -1.776922506893    -0.050457894244
    C           -0.466802425357    -1.268318964555    -0.037413798049
    H           -1.633968503827     2.387224410224    -0.007380044841
    C            0.047830777384     1.079658723683    -0.014665483844
    H           -0.115364256787    -2.283329042069    -0.046197845060
    C            0.472490854893    -0.239512981624    -0.022898290924
    H            0.751595535640     1.889292030711    -0.008344535478
    O            1.766308407992    -0.625185213009    -0.037620707122
    C            2.774211923487     0.322884944277     0.165445974010
    H            2.820579619191     1.036838370770    -0.650303093196
    H            3.702889897819    -0.226682990818     0.204382504653
    H            2.633853965216     0.855540524984     1.100238967007

  Mulliken Charges: (a.u.)
   Center  Symbol    Alpha    Beta     Spin     Total
       1     H     0.40123  0.40123  0.00000  0.19754
       2     C     3.11192  3.11192  0.00000 -0.22385
       3     C     3.09196  3.09196  0.00000 -0.18391
       4     C     3.09111  3.09111  0.00000 -0.18222
       5     H     0.39878  0.39878  0.00000  0.20243
       6     C     3.12533  3.12533  0.00000 -0.25066
       7     H     0.39966  0.39966  0.00000  0.20069
       8     C     3.14426  3.14426  0.00000 -0.28852
       9     H     0.39295  0.39295  0.00000  0.21410
      10     C     2.78279  2.78279  0.00000  0.43442
      11     H     0.39743  0.39743  0.00000  0.20514
      12     O     4.32612  4.32612  0.00000 -0.65224
      13     C     3.09220  3.09220  0.00000 -0.18439
      14     H     0.42016  0.42016  0.00000  0.15967
      15     H     0.40480  0.40480  0.00000  0.19041
      16     H     0.41931  0.41931  0.00000  0.16138

   Total alpha = 29.00000, Total beta = 29.00000, Total charge =  0.00000
