  ==> Input File <==

--------------------------------------------------------------------------
set {
	reference rhf
	basis 6-31G*
}

set_num_threads( 4 )
memory 2 gb

molecule MOL {
0 1

O	 0.074228	 1.262779	 -0.000085
C	 0.028650	 0.075053	 -0.000277
C	 -1.233602	 -0.752807	 0.000328
O	 1.109162	 -0.694619	 -0.000298
C	 -2.501530	 0.091881	 0.000126
H	 -1.193807	 -1.406641	 -0.865785
H	 -1.193516	 -1.405779	 0.867015
H	 -2.545121	 0.729328	 -0.874513
H	 -3.377167	 -0.548497	 0.000561
H	 -2.544818	 0.730135	 0.874258
C	 2.266485	 -0.177481	 -0.631772
H	 2.073188	 0.019380	 -1.676423
H	 3.023959	 -0.938683	 -0.528489
H	 2.585431	 0.736123	 -0.151070

	symmetry c1
}
set optking {
	frozen_dihedral = ("
		11 4 2 3
	")
}

ee = optimize('scf')
oeprop('DIPOLE', 'QUADRUPOLE', 'MULLIKEN_CHARGES')
f=open( 'psi4out.xyz', 'w' )
f.write( "14  " )
f.write( str(ee) + "\n" )
f.write( MOL.save_string_xyz() )
f.close()
--------------------------------------------------------------------------

    Molecular point group: c1
  Charge       = 0
  Multiplicity = 1
  Basis Set: 6-31G*
  Basis Set:
  @DF-RHF Final Energy:  -305.86693627915838
    Total Energy =                       -305.8669362791582671
    Molecular point group: c1
  Basis Set: 6-31G*
  Basis Set:
  Basis Set: 6-31G*
  Basis Set:
  @DF-RHF Final Energy:  -305.86405906663799
    Total Energy =                       -305.8640590666378785
  Basis Set: 6-31G*
  Basis Set:
  Basis Set: 6-31G*
  Basis Set:
  @DF-RHF Final Energy:  -305.86742368004877
    Total Energy =                       -305.8674236800487165
  Basis Set: 6-31G*
  Basis Set:
  Basis Set: 6-31G*
  Basis Set:
  @DF-RHF Final Energy:  -305.86756439658791
    Total Energy =                       -305.8675643965879090
  Basis Set: 6-31G*
  Basis Set:
  Basis Set: 6-31G*
  Basis Set:
  @DF-RHF Final Energy:  -305.86761088193043
    Total Energy =                       -305.8676108819303749
  Basis Set: 6-31G*
  Basis Set:
  Basis Set: 6-31G*
  Basis Set:
  @DF-RHF Final Energy:  -305.86761361329678
    Total Energy =                       -305.8676136132969532
  Basis Set: 6-31G*
  Basis Set:
  Charge       = 0
  Multiplicity = 1
  Basis Set: 6-31G*
  Basis Set:

    Orbital Energies (a.u.)
    -----------------------

    Doubly Occupied:

       1A    -20.600494     2A    -20.548211     3A    -11.373669
       4A    -11.283367     5A    -11.239629     6A    -11.217210
       7A     -1.467726     8A     -1.364217     9A     -1.064124
      10A     -0.979525    11A     -0.880967    12A     -0.768186
      13A     -0.700263    14A     -0.680527    15A     -0.672111
      16A     -0.621134    17A     -0.604246    18A     -0.550117
      19A     -0.538972    20A     -0.520691    21A     -0.511449
      22A     -0.496766    23A     -0.456620    24A     -0.438298

  @DF-RHF Final Energy:  -305.86761383407031

   => Energetics <=

    Nuclear Repulsion Energy =            246.9292427959284453
    One-Electron Energy =                -906.4366777970410567
    Two-Electron Energy =                 353.6398211670423279
    DFT Exchange-Correlation Energy =       0.0000000000000000
    Empirical Dispersion Energy =           0.0000000000000000
    PCM Polarization Energy =               0.0000000000000000
    EFP Energy =                            0.0000000000000000
    Total Energy =                       -305.8676138340703119
    Molecular point group: c1
  Basis Set: 6-31G*
  Basis Set:

  -Total Gradient:
     Atom            X                  Y                   Z
    ------   -----------------  -----------------  -----------------
       1        0.000072238199    -0.000039661364     0.000046430265
       2       -0.001336235849    -0.000644945224     0.005895374001
       3        0.000255301666    -0.000735973972    -0.006146243407
       4        0.002711519683     0.004957642148     0.005898002379
       5        0.000001813804    -0.000020261854     0.000003900919
       6       -0.000008879570     0.000004539637    -0.000003913881
       7       -0.000005333809     0.000005919361     0.000001447316
       8        0.000005529882    -0.000001966071    -0.000006829819
       9        0.000001260550     0.000004561689     0.000002042662
      10       -0.000006700826     0.000003001651     0.000006204904
      11       -0.001697402873    -0.003556551914    -0.005700716854
      12       -0.000002207131     0.000002427383    -0.000005255690
      13       -0.000000073843     0.000012078899     0.000004764625
      14        0.000009170120     0.000009189630     0.000004792579

  **** Optimization is complete! (in 7 steps) ****
    Final optimized geometry and variables:
    Molecular point group: c1

    Geometry (in Angstrom), charge = 0, multiplicity = 1:

    O            0.072122102048     1.279449182573    -0.140505949072
    C            0.038311663204     0.112517846484     0.076626289081
    C           -1.214420902124    -0.727748873064     0.116861496736
    O            1.132536947198    -0.633876918063     0.213589797124
    C           -2.492021905741     0.097314880203     0.207061151209
    H           -1.198313284832    -1.325956372169    -0.790777225439
    H           -1.132734320208    -1.431807249822     0.938270495236
    H           -2.569924817440     0.784811520847    -0.625585835729
    H           -3.359861824357    -0.553390877831     0.198642231066
    H           -2.515402229695     0.681148891097     1.120090871690
    C            2.310053919409    -0.170219926645    -0.422375363461
    H            2.124488971572     0.000735389613    -1.474312841580
    H            3.042244860224    -0.952624002012    -0.297620761389
    H            2.661082193971     0.744900714791     0.031282882259

  Mulliken Charges: (a.u.)
   Center  Symbol    Alpha    Beta     Spin     Total
       1     O     4.27974  4.27974  0.00000 -0.55949
       2     C     2.60808  2.60808  0.00000  0.78384
       3     C     3.20547  3.20547  0.00000 -0.41094
       4     O     4.30861  4.30861  0.00000 -0.61722
       5     C     3.24050  3.24050  0.00000 -0.48101
       6     H     0.40110  0.40110  0.00000  0.19779
       7     H     0.40030  0.40030  0.00000  0.19940
       8     H     0.40690  0.40690  0.00000  0.18620
       9     H     0.41752  0.41752  0.00000  0.16495
      10     H     0.41215  0.41215  0.00000  0.17570
      11     C     3.09220  3.09220  0.00000 -0.18441
      12     H     0.41421  0.41421  0.00000  0.17158
      13     H     0.40778  0.40778  0.00000  0.18445
      14     H     0.40543  0.40543  0.00000  0.18914

   Total alpha = 24.00000, Total beta = 24.00000, Total charge = -0.00000
