                              Psi4 1.0.54 Driver

  ==> Input File <==

--------------------------------------------------------------------------
set {
	reference rhf
	basis cc-pvtz
}

set_num_threads( 4 )
memory 2 gb

molecule MOL {
0 1

H	 -4.067119	 0.330777	 -0.936059
C	 -3.382734	 -0.295844	 -0.401951
C	 -2.105997	 -0.000418	 -0.398703
H	 -3.763347	 -1.151710	 0.119995
O	 -1.189946	 -0.765863	 0.237511
H	 -1.714916	 0.859476	 -0.911310
C	 0.026572	 -0.995256	 -0.379403
C	 1.057223	 0.049888	 -0.004615
H	 -0.054361	 -1.010670	 -1.459674
H	 0.397526	 -1.952058	 -0.044198
F	 2.203233	 -0.234060	 -0.590375
F	 0.698147	 1.254887	 -0.392621
F	 1.266440	 0.094219	 1.288722

	symmetry c1
}
set optking {
	frozen_dihedral = ("
		6 3 5 7
	")
}

ee,wfn = optimize('scf', return_wfn=True)
oeprop( wfn, 'DIPOLE', 'QUADRUPOLE', 'MULLIKEN_CHARGES')
f=open( 'psi4out.xyz', 'w' )
f.write( "13  " )
f.write( str(ee) + "\n" )
f.write( MOL.save_string_xyz() )
f.close()
--------------------------------------------------------------------------

    Molecular point group: c1
  Charge       = 0
  Multiplicity = 1
  Basis Set: CC-PVTZ
  Basis Set:
  @DF-RHF Final Energy:  -527.74058709434939
    Total Energy =                       -527.7405870943491664
    Molecular point group: c1
  Basis Set: CC-PVTZ
  Basis Set:
  Basis Set: CC-PVTZ
  Basis Set:
  @DF-RHF Final Energy:  -527.74076648763867
    Total Energy =                       -527.7407664876384388
  Basis Set: CC-PVTZ
  Basis Set:
  Basis Set: CC-PVTZ
  Basis Set:
  @DF-RHF Final Energy:  -527.74114027448081
    Total Energy =                       -527.7411402744808129
  Basis Set: CC-PVTZ
  Basis Set:
  Basis Set: CC-PVTZ
  Basis Set:
  @DF-RHF Final Energy:  -527.74116733461892
    Total Energy =                       -527.7411673346191492
  Basis Set: CC-PVTZ
  Basis Set:
  Basis Set: CC-PVTZ
  Basis Set:
  @DF-RHF Final Energy:  -527.74117872053898
    Total Energy =                       -527.7411787205394376
  Basis Set: CC-PVTZ
  Basis Set:
  Basis Set: CC-PVTZ
  Basis Set:
  @DF-RHF Final Energy:  -527.74118063348010
    Total Energy =                       -527.7411806334802122
  Basis Set: CC-PVTZ
  Basis Set:
  Charge       = 0
  Multiplicity = 1
  Basis Set: CC-PVTZ
  Basis Set:

    Orbital Energies (a.u.)
    -----------------------

    Doubly Occupied:

       1A    -26.341422     2A    -26.340699     3A    -26.337512
       4A    -20.599512     5A    -11.497338     6A    -11.317854
       7A    -11.296775     8A    -11.219925     9A     -1.750053
      10A     -1.646682    11A     -1.644905    12A     -1.439361
      13A     -1.087003    14A     -1.021098    15A     -0.931817
      16A     -0.842788    17A     -0.839288    18A     -0.828191
      19A     -0.790056    20A     -0.730812    21A     -0.719090
      22A     -0.707567    23A     -0.681674    24A     -0.666282
      25A     -0.661144    26A     -0.650701    27A     -0.633506
      28A     -0.598921    29A     -0.570161    30A     -0.533358
      31A     -0.493700    32A     -0.366322

  @DF-RHF Final Energy:  -527.74118105264552

   => Energetics <=

    Nuclear Repulsion Energy =            411.6949738241789873
    One-Electron Energy =               -1547.3012683047747942
    Two-Electron Energy =                 607.8651134279502912
    DFT Exchange-Correlation Energy =       0.0000000000000000
    Empirical Dispersion Energy =           0.0000000000000000
    PCM Polarization Energy =               0.0000000000000000
    EFP Energy =                            0.0000000000000000
    Total Energy =                       -527.7411810526455156
    Molecular point group: c1
  Basis Set: CC-PVTZ
  Basis Set:

  -Total Gradient:
     Atom            X                  Y                   Z
    ------   -----------------  -----------------  -----------------
       1       -0.000000854359     0.000005902559    -0.000001076856
       2        0.000017231946    -0.000026400198     0.000006757524
       3        0.000040284810    -0.001555478298    -0.001615448352
       4        0.000013878020     0.000014585232    -0.000005104404
       5        0.000488980568     0.001662985001     0.000933913774
       6       -0.000183727629     0.000838178509     0.001069770456
       7       -0.000394608225    -0.000930016858    -0.000370347652
       8        0.000065823614    -0.000057831851    -0.000010296022
       9        0.000004683862     0.000005870468    -0.000002186001
      10       -0.000002656695     0.000014541740    -0.000001000936
      11        0.000015949565     0.000005826616    -0.000025159169
      12       -0.000023332940    -0.000013462869     0.000030706120
      13       -0.000041652530     0.000035299944    -0.000010528485

  **** Optimization is complete! (in 7 steps) ****
    Final optimized geometry and variables:
    Molecular point group: c1

    Geometry (in Angstrom), charge = 0, multiplicity = 1:

    H           -4.110478625518     0.365527406690    -0.867932152634
    C           -3.397302331274    -0.231825250269    -0.336972470940
    C           -2.120036588646     0.044566516220    -0.432075545748
    H           -3.752316947579    -1.034069302509     0.279952433478
    O           -1.184066485273    -0.637232864014     0.274983087482
    H           -1.748497834906     0.857762960283    -1.028362212247
    C            0.031763781370    -0.889835081093    -0.343380127743
    C            1.084387748620     0.114861034574     0.074807667619
    H           -0.040825194425    -0.870757277930    -1.423387529134
    H            0.374168270225    -1.866790359827    -0.035286293036
    F            2.226685956506    -0.168923541305    -0.517400249889
    F            0.753240620952     1.343702841925    -0.265292409454
    F            1.289055433810     0.104672748236     1.369699495371

  Mulliken Charges: (a.u.)
   Center  Symbol    Alpha    Beta     Spin     Total
       1     H     0.42488  0.42488  0.00000  0.15023
       2     C     3.18569  3.18569  0.00000 -0.37138
       3     C     2.97407  2.97407  0.00000  0.05186
       4     H     0.42285  0.42285  0.00000  0.15429
       5     O     4.15139  4.15139  0.00000 -0.30278
       6     H     0.42705  0.42705  0.00000  0.14589
       7     C     3.01501  3.01501  0.00000 -0.03002
       8     C     2.67509  2.67509  0.00000  0.64982
       9     H     0.45606  0.45606  0.00000  0.08788
      10     H     0.43694  0.43694  0.00000  0.12611
      11     F     4.61237  4.61237  0.00000 -0.22474
      12     F     4.61198  4.61198  0.00000 -0.22395
      13     F     4.60661  4.60661  0.00000 -0.21321

   Total alpha = 32.00000, Total beta = 32.00000, Total charge = -0.00000

*** Psi4 exiting successfully. Buy a developer a beer!
