                              Psi4 1.0.54 Driver

  ==> Input File <==

--------------------------------------------------------------------------
set {
	reference rhf
	basis cc-pvtz
}

set_num_threads( 4 )
memory 2 gb

molecule MOL {
0 1

O	 0.921701	 1.770761	 -0.490833
C	 0.268117	 1.476034	 -1.432652
C	 -1.002821	 0.666744	 -1.397551
O	 0.578877	 1.829416	 -2.669149
C	 -1.413045	 0.229353	 0.001137
H	 -1.777464	 1.265772	 -1.865069
H	 -0.856826	 -0.188142	 -2.049714
C	 -2.702562	 -0.586401	 0.000228
H	 -1.532748	 1.104811	 0.629456
H	 -0.611632	 -0.350976	 0.444421
C	 -3.953810	 0.284959	 -0.000782
H	 -2.717793	 -1.238567	 -0.869075
H	 -2.719108	 -1.238472	 0.869576
H	 -3.983727	 0.924403	 -0.876454
H	 -4.852989	 -0.320147	 -0.001515
H	 -3.985140	 0.924399	 0.874841
C	 1.752655	 2.595602	 -2.849489
H	 1.683588	 3.530858	 -2.313996
H	 1.828985	 2.778241	 -3.909057
H	 2.619238	 2.053384	 -2.501269

	symmetry c1
}
set optking {
	frozen_dihedral = ("
		9 5 8 12
	")
}

ee,wfn = optimize('scf', return_wfn=True)
oeprop( wfn, 'DIPOLE', 'QUADRUPOLE', 'MULLIKEN_CHARGES')
f=open( 'psi4out.xyz', 'w' )
f.write( "20  " )
f.write( str(ee) + "\n" )
f.write( MOL.save_string_xyz() )
f.close()
--------------------------------------------------------------------------

    Molecular point group: c1
  Charge       = 0
  Multiplicity = 1
  Basis Set: CC-PVTZ
  Basis Set:
  @DF-RHF Final Energy:  -384.08039810335646
    Total Energy =                       -384.0803981033565151
    Molecular point group: c1
  Basis Set: CC-PVTZ
  Basis Set:
  Basis Set: CC-PVTZ
  Basis Set:
  @DF-RHF Final Energy:  -384.08056770696095
    Total Energy =                       -384.0805677069604371
  Basis Set: CC-PVTZ
  Basis Set:
  Basis Set: CC-PVTZ
  Basis Set:
  @DF-RHF Final Energy:  -384.08024043298872
    Total Energy =                       -384.0802404329884894
  Basis Set: CC-PVTZ
  Basis Set:
  Basis Set: CC-PVTZ
  Basis Set:
  @DF-RHF Final Energy:  -384.08060752690977
    Total Energy =                       -384.0806075269096027
  Basis Set: CC-PVTZ
  Basis Set:
  Charge       = 0
  Multiplicity = 1
  Basis Set: CC-PVTZ
  Basis Set:

    Orbital Energies (a.u.)
    -----------------------

    Doubly Occupied:

       1A    -20.596367     2A    -20.534222     3A    -11.364596
       4A    -11.278525     5A    -11.233738     6A    -11.218616
       7A    -11.217491     8A    -11.210440     9A     -1.472237
      10A     -1.365852    11A     -1.089643    12A     -1.023878
      13A     -0.968885    14A     -0.892111    15A     -0.802159
      16A     -0.767769    17A     -0.703279    18A     -0.685985
      19A     -0.676301    20A     -0.633512    21A     -0.613695
      22A     -0.596556    23A     -0.572012    24A     -0.548687
      25A     -0.529763    26A     -0.524709    27A     -0.512098
      28A     -0.475252    29A     -0.474560    30A     -0.467795
      31A     -0.459034    32A     -0.440444

  @DF-RHF Final Energy:  -384.08061131108269

   => Energetics <=

    Nuclear Repulsion Energy =            384.8463096801847882
    One-Electron Energy =               -1285.9534159425654707
    Two-Electron Energy =                 517.0264949512978774
    DFT Exchange-Correlation Energy =       0.0000000000000000
    Empirical Dispersion Energy =           0.0000000000000000
    PCM Polarization Energy =               0.0000000000000000
    EFP Energy =                            0.0000000000000000
    Total Energy =                       -384.0806113110828619
    Molecular point group: c1
  Basis Set: CC-PVTZ
  Basis Set:

  -Total Gradient:
     Atom            X                  Y                   Z
    ------   -----------------  -----------------  -----------------
       1        0.000000521806    -0.000030598988     0.000094103329
       2       -0.000008690006     0.000044827850    -0.000046563320
       3        0.000024659234     0.000008927915     0.000009343852
       4       -0.000036854673    -0.000035514004    -0.000047935564
       5        0.000848550234    -0.001280840801     0.002322975719
       6        0.000012065828     0.000000995609    -0.000015743519
       7        0.000002956329     0.000003719727    -0.000005398345
       8        0.001260550935    -0.002129763860     0.001263517172
       9       -0.000905440183     0.001445142873    -0.002127620249
      10       -0.000004833625    -0.000002768098    -0.000003986404
      11        0.000031144428    -0.000003413707    -0.000000918278
      12       -0.001221333477     0.001958463031    -0.001438634574
      13        0.000008078396     0.000016848365    -0.000016437603
      14       -0.000016899876     0.000001848040     0.000002685621
      15        0.000010520922     0.000004222329    -0.000004377793
      16        0.000003778265     0.000003445744     0.000002841840
      17        0.000004885406     0.000001700163     0.000024409501
      18        0.000002056522    -0.000001471807    -0.000005209637
      19       -0.000012233579    -0.000008028657    -0.000002726385
      20       -0.000003482888     0.000002258275    -0.000004325362

  **** Optimization is complete! (in 5 steps) ****
    Final optimized geometry and variables:
    Molecular point group: c1

    Geometry (in Angstrom), charge = 0, multiplicity = 1:

    O            1.590606633035     0.718746075893     0.619555875514
    C            0.934329181787     0.419554613382    -0.319032210874
    C           -0.328279902248    -0.402540223497    -0.278725721730
    O            1.234687482556     0.777798631216    -1.556842685197
    C           -0.719313118777    -0.854471608852     1.123859631217
    H           -1.108546080474     0.191974275434    -0.740872816786
    H           -0.176890901882    -1.253251126784    -0.934896639236
    C           -2.029502220846    -1.650005907928     1.145129264151
    H           -0.812765014585     0.023137343868     1.752890182943
    H            0.086475805540    -1.448508476819     1.535713301905
    C           -3.278895730196    -0.770767252326     1.154594092625
    H           -2.073253163537    -2.303195600368     0.277868166480
    H           -2.045244588240    -2.289749269714     2.020152501218
    H           -3.320836658737    -0.120699524366     0.287392596235
    H           -4.179113010618    -1.374504488285     1.151645353849
    H           -3.304049174496    -0.142419171005     2.038249415048
    C            2.400371135307     1.554812221814    -1.742771096823
    H            2.325928952013     2.488741246367    -1.205683992480
    H            2.468987516461     1.739486420476    -2.802526789743
    H            3.273828671115     1.020046030578    -1.400247377333

  Mulliken Charges: (a.u.)
   Center  Symbol    Alpha    Beta     Spin     Total
       1     O     4.19684  4.19684  0.00000 -0.39368
       2     C     2.80532  2.80532  0.00000  0.38936
       3     C     3.10057  3.10057  0.00000 -0.20115
       4     O     4.14719  4.14719  0.00000 -0.29438
       5     C     3.08753  3.08753  0.00000 -0.17506
       6     H     0.44039  0.44039  0.00000  0.11922
       7     H     0.44005  0.44005  0.00000  0.11991
       8     C     3.09365  3.09365  0.00000 -0.18730
       9     H     0.44769  0.44769  0.00000  0.10462
      10     H     0.44133  0.44133  0.00000  0.11733
      11     C     3.14859  3.14859  0.00000 -0.29718
      12     H     0.45723  0.45723  0.00000  0.08555
      13     H     0.44490  0.44490  0.00000  0.11020
      14     H     0.45671  0.45671  0.00000  0.08659
      15     H     0.44720  0.44720  0.00000  0.10560
      16     H     0.45314  0.45314  0.00000  0.09373
      17     C     3.03781  3.03781  0.00000 -0.07562
      18     H     0.45430  0.45430  0.00000  0.09139
      19     H     0.44528  0.44528  0.00000  0.10944
      20     H     0.45428  0.45428  0.00000  0.09143

   Total alpha = 32.00000, Total beta = 32.00000, Total charge = -0.00000

*** Psi4 exiting successfully. Buy a developer a beer!
