  ==> Input File <==

--------------------------------------------------------------------------
set {
	reference rhf
	basis 6-31G*
}

set_num_threads( 4 )
memory 2 gb

molecule MOL {
0 1

O	 -0.682937	 1.318834	 -0.186099
C	 -0.860635	 0.152188	 -0.042321
C	 -2.173363	 -0.477127	 0.338347
O	 0.083258	 -0.765189	 -0.202595
H	 -2.477673	 -1.180929	 -0.427595
H	 -2.923125	 0.290956	 0.455536
H	 -2.058825	 -1.029004	 1.264191
C	 1.391937	 -0.334737	 -0.569838
C	 2.340436	 -0.365106	 0.614255
H	 1.332792	 0.653527	 -0.999928
H	 1.702810	 -1.033530	 -1.333085
H	 3.343135	 -0.106182	 0.288244
H	 2.035004	 0.345845	 1.371637
H	 2.370352	 -1.356271	 1.053700

	symmetry c1
}
set optking {
	frozen_dihedral = ("
		10 8 4 2
	")
}

ee = optimize('scf')
oeprop('DIPOLE', 'QUADRUPOLE', 'MULLIKEN_CHARGES')
f=open( 'psi4out.xyz', 'w' )
f.write( "14  " )
f.write( str(ee) + "\n" )
f.write( MOL.save_string_xyz() )
f.close()
--------------------------------------------------------------------------

    Molecular point group: c1
  Charge       = 0
  Multiplicity = 1
  Basis Set: 6-31G*
  Basis Set:
  @DF-RHF Final Energy:  -305.87456974520069
    Total Energy =                       -305.8745697452008017
    Molecular point group: c1
  Basis Set: 6-31G*
  Basis Set:
  Basis Set: 6-31G*
  Basis Set:
  @DF-RHF Final Energy:  -305.87464494357880
    Total Energy =                       -305.8746449435787440
  Basis Set: 6-31G*
  Basis Set:
  Basis Set: 6-31G*
  Basis Set:
  @DF-RHF Final Energy:  -305.87403454067578
    Total Energy =                       -305.8740345406756660
  Basis Set: 6-31G*
  Basis Set:
  Basis Set: 6-31G*
  Basis Set:
  @DF-RHF Final Energy:  -305.87478612336849
    Total Energy =                       -305.8747861233686081
  Basis Set: 6-31G*
  Basis Set:
  Basis Set: 6-31G*
  Basis Set:
  @DF-RHF Final Energy:  -305.87480283502964
    Total Energy =                       -305.8748028350295272
  Basis Set: 6-31G*
  Basis Set:
  Charge       = 0
  Multiplicity = 1
  Basis Set: 6-31G*
  Basis Set:

    Orbital Energies (a.u.)
    -----------------------

    Doubly Occupied:

       1A    -20.601478     2A    -20.544315     3A    -11.376350
       4A    -11.284206     5A    -11.233125     6A    -11.220678
       7A     -1.466589     8A     -1.363091     9A     -1.056063
      10A     -0.999173    11A     -0.879954    12A     -0.770057
      13A     -0.698820    14A     -0.682035    15A     -0.656608
      16A     -0.611962    17A     -0.584439    18A     -0.568988
      19A     -0.560806    20A     -0.528199    21A     -0.518346
      22A     -0.495086    23A     -0.448571    24A     -0.439960

  @DF-RHF Final Energy:  -305.87480302928986

   => Energetics <=

    Nuclear Repulsion Energy =            247.3922922453560886
    One-Electron Energy =                -907.3563868884921249
    Two-Electron Energy =                 354.0892916138460578
    DFT Exchange-Correlation Energy =       0.0000000000000000
    Empirical Dispersion Energy =           0.0000000000000000
    PCM Polarization Energy =               0.0000000000000000
    EFP Energy =                            0.0000000000000000
    Total Energy =                       -305.8748030292899784
    Molecular point group: c1
  Basis Set: 6-31G*
  Basis Set:

  -Total Gradient:
     Atom            X                  Y                   Z
    ------   -----------------  -----------------  -----------------
       1       -0.000030596309     0.000031338058     0.000005336464
       2       -0.000322185157    -0.000140723335    -0.001196485738
       3       -0.000014599396     0.000012719183    -0.000034995548
       4        0.000491508722     0.000276174155     0.002050019402
       5        0.000005238694    -0.000001735214     0.000011350245
       6       -0.000007712104    -0.000001484488     0.000006472662
       7        0.000004815202     0.000008712854     0.000008636869
       8       -0.000419953202    -0.000760563294    -0.002143868067
       9        0.000052164087     0.000007510140    -0.000023240325
      10        0.000228118764     0.000571237317     0.001300384886
      11       -0.000007733361    -0.000001650679     0.000012653220
      12        0.000024949773     0.000000881718     0.000019278673
      13       -0.000003489547    -0.000002158837    -0.000011539328
      14       -0.000000526169    -0.000000257581    -0.000004003414

  **** Optimization is complete! (in 6 steps) ****
    Final optimized geometry and variables:
    Molecular point group: c1

    Geometry (in Angstrom), charge = 0, multiplicity = 1:

    O           -0.707098898215     1.404133516222    -0.150664068624
    C           -0.881254900829     0.234738229526    -0.029901662525
    C           -2.192658364831    -0.403475167325     0.340741319053
    O            0.062518648224    -0.681871806652    -0.201832445298
    H           -2.497806396923    -1.091777642223    -0.438837003534
    H           -2.942912861877     0.361290406570     0.475193316908
    H           -2.075507286086    -0.974073741454     1.254807054285
    C            1.371370237997    -0.269430056216    -0.589212741031
    C            2.301038693343    -0.286506494674     0.609749950899
    H            1.321604652880     0.715310157633    -1.024332785822
    H            1.687562585153    -0.980583341509    -1.339367967451
    H            3.310384635820    -0.032234712245     0.301193532542
    H            1.980448818638     0.436520538704     1.351454875269
    H            2.319996820925    -1.268706047327     1.068616876246

  Mulliken Charges: (a.u.)
   Center  Symbol    Alpha    Beta     Spin     Total
       1     O     4.28376  4.28376  0.00000 -0.56753
       2     C     2.61990  2.61990  0.00000  0.76020
       3     C     3.28196  3.28196  0.00000 -0.56393
       4     O     4.30764  4.30764  0.00000 -0.61528
       5     H     0.40040  0.40040  0.00000  0.19919
       6     H     0.39711  0.39711  0.00000  0.20578
       7     H     0.40045  0.40045  0.00000  0.19910
       8     C     3.01124  3.01124  0.00000 -0.02248
       9     C     3.24950  3.24950  0.00000 -0.49899
      10     H     0.39650  0.39650  0.00000  0.20700
      11     H     0.41149  0.41149  0.00000  0.17703
      12     H     0.41760  0.41760  0.00000  0.16481
      13     H     0.40937  0.40937  0.00000  0.18127
      14     H     0.41308  0.41308  0.00000  0.17383

   Total alpha = 24.00000, Total beta = 24.00000, Total charge =  0.00000
