                              Psi4 1.0.54 Driver

  ==> Input File <==

--------------------------------------------------------------------------
set {
	reference rhf
	basis cc-pvtz
}

set_num_threads( 4 )
memory 2 gb

molecule MOL {
0 1

H	 2.971780	 1.596698	 0.566214
C	 2.347200	 0.718351	 0.442955
C	 0.901988	 1.130673	 0.198298
H	 2.418687	 0.116632	 1.340587
H	 2.753845	 0.140893	 -0.377969
N	 0.000297	 0.000045	 0.046090
H	 0.573698	 1.717678	 1.044920
H	 0.846808	 1.794258	 -0.669192
C	 -1.359159	 0.315706	 0.454404
C	 0.058718	 -0.581056	 -1.285613
C	 -2.416729	 -0.286720	 -0.460525
H	 -1.478729	 1.390261	 0.442008
H	 -1.539692	 0.003361	 1.486761
C	 -0.294022	 -2.062058	 -1.311036
H	 1.065922	 -0.470358	 -1.662902
H	 -0.585759	 -0.033957	 -1.979331
H	 -2.285276	 0.073129	 -1.473515
H	 -2.371743	 -1.368476	 -0.483209
H	 -3.408658	 -0.007405	 -0.121593
H	 0.385251	 -2.620259	 -0.678654
H	 -1.302358	 -2.249780	 -0.963480
H	 -0.219206	 -2.447854	 -2.322162

	symmetry c1
}
set optking {
	frozen_dihedral = ("
		3 6 9 11
	")
}

ee,wfn = optimize('scf', return_wfn=True)
oeprop( wfn, 'DIPOLE', 'QUADRUPOLE', 'MULLIKEN_CHARGES')
f=open( 'psi4out.xyz', 'w' )
f.write( "22  " )
f.write( str(ee) + "\n" )
f.write( MOL.save_string_xyz() )
f.close()
--------------------------------------------------------------------------

    Molecular point group: c1
  Charge       = 0
  Multiplicity = 1
  Basis Set: CC-PVTZ
  Basis Set:
  @DF-RHF Final Energy:  -290.44477166959962
    Total Energy =                       -290.4447716695996178
    Molecular point group: c1
  Basis Set: CC-PVTZ
  Basis Set:
  Basis Set: CC-PVTZ
  Basis Set:
  @DF-RHF Final Energy:  -290.45998090000393
    Total Energy =                       -290.4599809000038135
  Basis Set: CC-PVTZ
  Basis Set:
  Basis Set: CC-PVTZ
  Basis Set:
  @DF-RHF Final Energy:  -290.46279118590849
    Total Energy =                       -290.4627911859082587
  Basis Set: CC-PVTZ
  Basis Set:
  Basis Set: CC-PVTZ
  Basis Set:
  @DF-RHF Final Energy:  -290.46334983605146
    Total Energy =                       -290.4633498360515205
  Basis Set: CC-PVTZ
  Basis Set:
  @DF-RHF Final Energy:  -290.46390525722597
    Total Energy =                       -290.4639052572258606
  @DF-RHF Final Energy:  -290.46427019727952
    Total Energy =                       -290.4642701972798022
  @DF-RHF Final Energy:  -290.46461697412826
    Total Energy =                       -290.4646169741283757
  @DF-RHF Final Energy:  -290.46472315324792
    Total Energy =                       -290.4647231532480873
  @DF-RHF Final Energy:  -290.46476040272364
    Total Energy =                       -290.4647604027235275
  Basis Set: CC-PVTZ
  Basis Set:
  @DF-RHF Final Energy:  -290.46477366691460
    Total Energy =                       -290.4647736669149936
  Basis Set: CC-PVTZ
  Basis Set:
  Basis Set: CC-PVTZ
  Basis Set:
  @DF-RHF Final Energy:  -290.46477864054793
    Total Energy =                       -290.4647786405485590
  Basis Set: CC-PVTZ
  Basis Set:
  Basis Set: CC-PVTZ
  Basis Set:
  @DF-RHF Final Energy:  -290.46477976311922
    Total Energy =                       -290.4647797631192248
  Basis Set: CC-PVTZ
  Basis Set:
  Charge       = 0
  Multiplicity = 1
  Basis Set: CC-PVTZ
  Basis Set:

    Orbital Energies (a.u.)
    -----------------------

    Doubly Occupied:

       1A    -15.525543     2A    -11.240267     3A    -11.238709
       4A    -11.236190     5A    -11.209590     6A    -11.202541
       7A    -11.199643     8A     -1.216853     9A     -1.027524
      10A     -1.019105    11A     -0.959149    12A     -0.861780
      13A     -0.834053    14A     -0.764402    15A     -0.661937
      16A     -0.632860    17A     -0.627115    18A     -0.591389
      19A     -0.570692    20A     -0.553245    21A     -0.540815
      22A     -0.532959    23A     -0.511549    24A     -0.501695
      25A     -0.488871    26A     -0.477125    27A     -0.469849
      28A     -0.465259    29A     -0.326611

  @DF-RHF Final Energy:  -290.46477992677688

   => Energetics <=

    Nuclear Repulsion Energy =            338.3249646072919745
    One-Electron Energy =               -1062.6048496270111627
    Two-Electron Energy =                 433.8151050929423604
    DFT Exchange-Correlation Energy =       0.0000000000000000
    Empirical Dispersion Energy =           0.0000000000000000
    PCM Polarization Energy =               0.0000000000000000
    EFP Energy =                            0.0000000000000000
    Total Energy =                       -290.4647799267767709
    Molecular point group: c1
  Basis Set: CC-PVTZ
  Basis Set:

  -Total Gradient:
     Atom            X                  Y                   Z
    ------   -----------------  -----------------  -----------------
       1        0.000001688251    -0.000000599398     0.000000038757
       2       -0.000001046617     0.000001518786    -0.000005047623
       3       -0.000162736206     0.000455033789    -0.000843883790
       4       -0.000003938730     0.000004266880     0.000000556345
       5        0.000001418422     0.000001342188     0.000001931046
       6        0.000274313955    -0.000216116271     0.001009238660
       7       -0.000002610643    -0.000005078086    -0.000004391356
       8        0.000001697730    -0.000003402089     0.000004496010
       9       -0.000143333676    -0.001110753044     0.000258068980
      10       -0.000008790806     0.000006488011    -0.000011802517
      11        0.000034447157     0.000869847004    -0.000401011570
      12        0.000006466886     0.000001717999     0.000001117229
      13        0.000006580641    -0.000002090649    -0.000002237029
      14        0.000006571721     0.000001513304     0.000004184264
      15        0.000000824825    -0.000001327582     0.000004417684
      16       -0.000006445424    -0.000006813345    -0.000014737072
      17       -0.000002581056    -0.000005576475     0.000000379184
      18       -0.000003733135     0.000002811182    -0.000001881344
      19        0.000002399445    -0.000000189418    -0.000002086737
      20       -0.000001545715     0.000000016697     0.000003132263
      21        0.000001698077    -0.000000102527    -0.000002385708
      22       -0.000001345102     0.000007493046     0.000001904323

  **** Optimization is complete! (in 13 steps) ****
    Final optimized geometry and variables:
    Molecular point group: c1

    Geometry (in Angstrom), charge = 0, multiplicity = 1:

    H            2.987479175629     1.531230968981     1.153643326933
    C            2.350833465505     0.701918969286     0.863907058818
    C            0.937585228167     1.200146938434     0.587501962896
    H            2.342584723550    -0.023044321022     1.668919656020
    H            2.800985704731     0.233732506007    -0.002647245456
    N            0.006401120407     0.145540337323     0.240015308316
    H            0.577271312659     1.675805132831     1.490470646042
    H            0.969603244741     1.980736482767    -0.179300707711
    C           -1.365313134916     0.413856098045     0.675428682016
    C            0.234894980425    -0.467799666250    -1.056448786661
    C           -2.497785338323     0.034876813010    -0.273135798243
    H           -1.472920587024     1.476222610377     0.877320999033
    H           -1.537455310618    -0.089688275158     1.623401771109
    C            0.333743221584    -1.988447662234    -0.991345842982
    H            1.164988670133    -0.084122051815    -1.454836003125
    H           -0.522183955389    -0.187048639052    -1.780671251796
    H           -2.480051464755     0.615179097242    -1.186783227729
    H           -2.490758500130    -1.014748677869    -0.536646128829
    H           -3.438758362845     0.239585942636     0.224491455123
    H            1.151687200019    -2.287345974468    -0.346960081235
    H           -0.573311112612    -2.428111714940    -0.594683548821
    H            0.503835881820    -2.405014171391    -1.979547607783

  Mulliken Charges: (a.u.)
   Center  Symbol    Alpha    Beta     Spin     Total
       1     H     0.45147  0.45147  0.00000  0.09707
       2     C     3.14421  3.14421  0.00000 -0.28843
       3     C     3.03950  3.03950  0.00000 -0.07900
       4     H     0.45234  0.45234  0.00000  0.09532
       5     H     0.45578  0.45578  0.00000  0.08845
       6     N     3.62206  3.62206  0.00000 -0.24412
       7     H     0.45425  0.45425  0.00000  0.09149
       8     H     0.46617  0.46617  0.00000  0.06765
       9     C     3.02832  3.02832  0.00000 -0.05665
      10     C     3.06373  3.06373  0.00000 -0.12745
      11     C     3.16129  3.16129  0.00000 -0.32258
      12     H     0.46574  0.46574  0.00000  0.06851
      13     H     0.45456  0.45456  0.00000  0.09088
      14     C     3.13231  3.13231  0.00000 -0.26463
      15     H     0.44590  0.44590  0.00000  0.10819
      16     H     0.45070  0.45070  0.00000  0.09861
      17     H     0.45228  0.45228  0.00000  0.09545
      18     H     0.44957  0.44957  0.00000  0.10086
      19     H     0.44461  0.44461  0.00000  0.11078
      20     H     0.45173  0.45173  0.00000  0.09655
      21     H     0.45614  0.45614  0.00000  0.08773
      22     H     0.45734  0.45734  0.00000  0.08532

   Total alpha = 29.00000, Total beta = 29.00000, Total charge =  0.00000

*** Psi4 exiting successfully. Buy a developer a beer!
