  ==> Input File <==

--------------------------------------------------------------------------
set {
	reference rhf
	basis 6-31G*
}

set_num_threads( 4 )
memory 2 gb

molecule MOL {
0 1

H	 1.148083	 -1.049780	 0.784252
O	 1.319262	 -0.618148	 -0.041729
C	 0.709265	 0.639550	 -0.033818
C	 -0.771925	 0.608805	 -0.305315
H	 1.207879	 1.222289	 -0.799979
H	 0.888518	 1.150657	 0.911519
C	 -1.454485	 -0.452165	 -0.686389
H	 -1.279238	 1.551438	 -0.169077
H	 -0.979007	 -1.402308	 -0.849421
H	 -2.513984	 -0.402188	 -0.862290

	symmetry c1
}
set optking {
	frozen_dihedral = ("
		5 3 2 1
	")
}

ee = optimize('scf')
oeprop('DIPOLE', 'QUADRUPOLE', 'MULLIKEN_CHARGES')
f=open( 'psi4out.xyz', 'w' )
f.write( "10  " )
f.write( str(ee) + "\n" )
f.write( MOL.save_string_xyz() )
f.close()
--------------------------------------------------------------------------

    Molecular point group: c1
  Charge       = 0
  Multiplicity = 1
  Basis Set: 6-31G*
  Basis Set:
  @DF-RHF Final Energy:  -191.91677847194416
    Total Energy =                       -191.9167784719440419
    Molecular point group: c1
  Basis Set: 6-31G*
  Basis Set:
  Basis Set: 6-31G*
  Basis Set:
  @DF-RHF Final Energy:  -191.91684429715457
    Total Energy =                       -191.9168442971546824
  Basis Set: 6-31G*
  Basis Set:
  Basis Set: 6-31G*
  Basis Set:
  @DF-RHF Final Energy:  -191.91685723231211
    Total Energy =                       -191.9168572323121964
  Basis Set: 6-31G*
  Basis Set:
  Charge       = 0
  Multiplicity = 1
  Basis Set: 6-31G*
  Basis Set:

    Orbital Energies (a.u.)
    -----------------------

    Doubly Occupied:

       1A    -20.560700     2A    -11.278493     3A    -11.228113
       4A    -11.216126     5A     -1.368996     6A     -1.055977
       7A     -0.926992     8A     -0.765632     9A     -0.692184
      10A     -0.658646    11A     -0.613335    12A     -0.571612
      13A     -0.529332    14A     -0.497009    15A     -0.446088
      16A     -0.362072

  @DF-RHF Final Energy:  -191.91685752092530

   => Energetics <=

    Nuclear Repulsion Energy =            119.3063778280935594
    One-Electron Energy =                -496.9038518023039614
    Two-Electron Energy =                 185.6806164532850403
    DFT Exchange-Correlation Energy =       0.0000000000000000
    Empirical Dispersion Energy =           0.0000000000000000
    PCM Polarization Energy =               0.0000000000000000
    EFP Energy =                            0.0000000000000000
    Total Energy =                       -191.9168575209253618
    Molecular point group: c1
  Basis Set: 6-31G*
  Basis Set:

  -Total Gradient:
     Atom            X                  Y                   Z
    ------   -----------------  -----------------  -----------------
       1        0.001329881915     0.000642086404     0.000661614329
       2       -0.001440370853    -0.000688549996    -0.000584145354
       3       -0.000818148828    -0.000367612999    -0.001038139272
       4        0.000013592081     0.000039934549    -0.000007757517
       5        0.000897849834     0.000424723367     0.000962591158
       6        0.000005560950    -0.000020467863     0.000005487987
       7        0.000020972055    -0.000013153638    -0.000050050403
       8        0.000001069997    -0.000009001887     0.000008875496
       9       -0.000006723827    -0.000002979857     0.000016901509
      10       -0.000003683328    -0.000004978079     0.000024622065

  **** Optimization is complete! (in 4 steps) ****
    Final optimized geometry and variables:
    Molecular point group: c1

    Geometry (in Angstrom), charge = 0, multiplicity = 1:

    H            1.113501153395    -1.086687036667     0.989022795505
    O            1.296922213027    -0.627957076452     0.181341717075
    C            0.683622649783     0.628963390490     0.214031212122
    C           -0.793982447512     0.598156850633    -0.072426647497
    H            1.192112045467     1.239130412171    -0.524205669932
    H            0.851216145902     1.115001028648     1.174707514429
    C           -1.477465446657    -0.471252061368    -0.425736366496
    H           -1.296421608537     1.547937836036     0.029067772183
    H           -1.002759021733    -1.427324439145    -0.548770174062
    H           -2.534782223962    -0.421916224330    -0.614738196092

  Mulliken Charges: (a.u.)
   Center  Symbol    Alpha    Beta     Spin     Total
       1     H     0.27975  0.27975  0.00000  0.44049
       2     O     4.36687  4.36687  0.00000 -0.73374
       3     C     3.00319  3.00319  0.00000 -0.00637
       4     C     3.09146  3.09146  0.00000 -0.18292
       5     H     0.40905  0.40905  0.00000  0.18191
       6     H     0.42618  0.42618  0.00000  0.14764
       7     C     3.19529  3.19529  0.00000 -0.39058
       8     H     0.41144  0.41144  0.00000  0.17711
       9     H     0.40458  0.40458  0.00000  0.19084
      10     H     0.41219  0.41219  0.00000  0.17562

   Total alpha = 16.00000, Total beta = 16.00000, Total charge =  0.00000
