                              Psi4 1.0.54 Driver

  ==> Input File <==

--------------------------------------------------------------------------
set {
	reference rhf
	basis cc-pvtz
}

set_num_threads( 4 )
memory 2 gb

molecule MOL {
0 1

H	 2.296699	 -1.817351	 0.550657
O	 2.824271	 -1.154299	 0.131461
C	 2.076458	 -0.067370	 -0.038225
C	 0.626018	 -0.337582	 0.258241
O	 2.538288	 0.965419	 -0.381593
C	 -0.267326	 0.883135	 0.076490
H	 0.325620	 -1.161483	 -0.378003
H	 0.574537	 -0.713685	 1.275261
C	 -1.726822	 0.642622	 0.463839
H	 -0.210803	 1.217591	 -0.953497
H	 0.129920	 1.693110	 0.675679
C	 -2.480891	 -0.340606	 -0.429852
H	 -2.243098	 1.597649	 0.438609
H	 -1.776542	 0.301208	 1.495542
C	 -3.955933	 -0.460128	 -0.060472
H	 -2.393755	 -0.020485	 -1.464726
H	 -2.024244	 -1.323637	 -0.374360
H	 -4.467673	 -1.160944	 -0.709827
H	 -4.458917	 0.497287	 -0.144505
H	 -4.076458	 -0.806900	 0.960497

	symmetry c1
}
set optking {
	frozen_dihedral = ("
		1 2 3 5
	")
}

ee,wfn = optimize('scf', return_wfn=True)
oeprop( wfn, 'DIPOLE', 'QUADRUPOLE', 'MULLIKEN_CHARGES')
f=open( 'psi4out.xyz', 'w' )
f.write( "20  " )
f.write( str(ee) + "\n" )
f.write( MOL.save_string_xyz() )
f.close()
--------------------------------------------------------------------------

    Molecular point group: c1
  Charge       = 0
  Multiplicity = 1
  Basis Set: CC-PVTZ
  Basis Set:
  @DF-RHF Final Energy:  -384.08393361803604
    Total Energy =                       -384.0839336180366672
    Molecular point group: c1
  Basis Set: CC-PVTZ
  Basis Set:
  Basis Set: CC-PVTZ
  Basis Set:
  @DF-RHF Final Energy:  -384.08511538315378
    Total Energy =                       -384.0851153831534930
  Basis Set: CC-PVTZ
  Basis Set:
  Basis Set: CC-PVTZ
  Basis Set:
  @DF-RHF Final Energy:  -384.08535274515827
    Total Energy =                       -384.0853527451586729
  Basis Set: CC-PVTZ
  Basis Set:
  Basis Set: CC-PVTZ
  Basis Set:
  @DF-RHF Final Energy:  -384.08511602982713
    Total Energy =                       -384.0851160298268496
  Basis Set: CC-PVTZ
  Basis Set:
  Basis Set: CC-PVTZ
  Basis Set:
  @DF-RHF Final Energy:  -384.08537975269940
    Total Energy =                       -384.0853797526991684
  Basis Set: CC-PVTZ
  Basis Set:
  Charge       = 0
  Multiplicity = 1
  Basis Set: CC-PVTZ
  Basis Set:

    Orbital Energies (a.u.)
    -----------------------

    Doubly Occupied:

       1A    -20.603689     2A    -20.536141     3A    -11.372396
       4A    -11.249582     5A    -11.226429     6A    -11.223802
       7A    -11.223190     8A    -11.214636     9A     -1.470851
      10A     -1.372941    11A     -1.102449    12A     -1.045219
      13A     -0.961600    14A     -0.867288    15A     -0.833043
      16A     -0.794195    17A     -0.722079    18A     -0.671097
      19A     -0.662810    20A     -0.637525    21A     -0.613010
      22A     -0.602921    23A     -0.573523    24A     -0.564514
      25A     -0.547663    26A     -0.517652    27A     -0.501380
      28A     -0.481637    29A     -0.476120    30A     -0.473033
      31A     -0.463312    32A     -0.442630

  @DF-RHF Final Energy:  -384.08538052859763

   => Energetics <=

    Nuclear Repulsion Energy =            376.6283633792286309
    One-Electron Energy =               -1269.3307781937983236
    Two-Electron Energy =                 508.6170342859722950
    DFT Exchange-Correlation Energy =       0.0000000000000000
    Empirical Dispersion Energy =           0.0000000000000000
    PCM Polarization Energy =               0.0000000000000000
    EFP Energy =                            0.0000000000000000
    Total Energy =                       -384.0853805285973976
    Molecular point group: c1
  Basis Set: CC-PVTZ
  Basis Set:

  -Total Gradient:
     Atom            X                  Y                   Z
    ------   -----------------  -----------------  -----------------
       1        0.000725800927     0.000773812010     0.002153988414
       2       -0.000761605734    -0.000988566083    -0.001780858538
       3       -0.000260232330    -0.000411737006    -0.002339869471
       4        0.000029295318    -0.000014235576    -0.000021390898
       5        0.000249220939     0.000632807309     0.001967873731
       6        0.000028727946     0.000009469372     0.000010053269
       7       -0.000004833632    -0.000002574389     0.000009917682
       8        0.000003508202     0.000006502217     0.000005750477
       9       -0.000017805193     0.000005663181    -0.000000510156
      10        0.000000837677     0.000000745518     0.000000439323
      11        0.000000091815    -0.000008864049    -0.000004521479
      12        0.000002578696    -0.000001300109    -0.000001413109
      13       -0.000003259093    -0.000000829013    -0.000001513577
      14       -0.000000373234     0.000003329614    -0.000001011145
      15        0.000001504232    -0.000000526105     0.000002257537
      16       -0.000000725291    -0.000000204606     0.000001113520
      17        0.000005405878    -0.000003222998    -0.000000632405
      18        0.000001223281     0.000000734149    -0.000000332143
      19        0.000001568506    -0.000000116415     0.000000469592
      20       -0.000000928902    -0.000000887023     0.000000189376

  **** Optimization is complete! (in 6 steps) ****
    Final optimized geometry and variables:
    Molecular point group: c1

    Geometry (in Angstrom), charge = 0, multiplicity = 1:

    H            2.467923059031    -1.841091546837     0.513722161988
    O            2.899955496253    -1.117429284352     0.095088937970
    C            2.087737880381    -0.066566582008    -0.053583118990
    C            0.631387225404    -0.339280506264     0.251371770464
    O            2.521608333505     0.971037012452    -0.396999859438
    C           -0.262767344637     0.882625288024     0.080134609896
    H            0.317242852697    -1.156036169663    -0.390345097046
    H            0.572507897166    -0.712427418691     1.271833542193
    C           -1.721143200229     0.643797841267     0.472633714009
    H           -0.207256637718     1.219504446088    -0.948550760443
    H            0.141340958599     1.687751163498     0.680451883044
    C           -2.482642891955    -0.332665199884    -0.422385789322
    H           -2.233766384334     1.600700900976     0.453396875451
    H           -1.768627691879     0.299043434854     1.503508621392
    C           -3.955547311785    -0.452268905641    -0.044402732897
    H           -2.401210017693    -0.006577657315    -1.455736389674
    H           -2.027763408325    -1.317383951145    -0.376190193275
    H           -4.471703350493    -1.150493261401    -0.692933274479
    H           -4.457930656117     0.505814263019    -0.122652501545
    H           -4.070554964769    -0.801883639082     0.976258189843

  Mulliken Charges: (a.u.)
   Center  Symbol    Alpha    Beta     Spin     Total
       1     H     0.38839  0.38839  0.00000  0.22321
       2     O     4.14565  4.14565  0.00000 -0.29129
       3     C     2.80000  2.80000  0.00000  0.40001
       4     C     3.13211  3.13211  0.00000 -0.26422
       5     O     4.17579  4.17579  0.00000 -0.35159
       6     C     3.09679  3.09679  0.00000 -0.19357
       7     H     0.43887  0.43887  0.00000  0.12226
       8     H     0.44595  0.44595  0.00000  0.10811
       9     C     3.10003  3.10003  0.00000 -0.20007
      10     H     0.44235  0.44235  0.00000  0.11529
      11     H     0.43659  0.43659  0.00000  0.12683
      12     C     3.08708  3.08708  0.00000 -0.17416
      13     H     0.44438  0.44438  0.00000  0.11123
      14     H     0.45413  0.45413  0.00000  0.09174
      15     C     3.14933  3.14933  0.00000 -0.29867
      16     H     0.45111  0.45111  0.00000  0.09778
      17     H     0.45643  0.45643  0.00000  0.08714
      18     H     0.44728  0.44728  0.00000  0.10544
      19     H     0.45271  0.45271  0.00000  0.09458
      20     H     0.45502  0.45502  0.00000  0.08996

   Total alpha = 32.00000, Total beta = 32.00000, Total charge =  0.00000

*** Psi4 exiting successfully. Buy a developer a beer!
