  ==> Input File <==

--------------------------------------------------------------------------
set {
	reference rhf
	basis 6-31G*
}

set_num_threads( 4 )
memory 2 gb

molecule MOL {
0 1

H	 2.838767	 -0.639526	 1.843161
C	 2.165567	 -0.766307	 0.999974
C	 0.956686	 0.153162	 1.142466
H	 1.844520	 -1.801499	 0.967253
H	 2.731387	 -0.564528	 0.096831
N	 -0.000257	 -0.000071	 0.054619
H	 0.458297	 -0.089793	 2.072498
H	 1.284352	 1.192645	 1.236261
C	 -1.363055	 0.315058	 0.462241
C	 0.402491	 0.717873	 -1.147466
C	 -2.412078	 -0.285320	 -0.468531
H	 -1.482241	 1.391144	 0.451970
H	 -1.549931	 -0.001174	 1.492681
C	 -0.125146	 0.073432	 -2.425564
H	 1.484048	 0.722228	 -1.196137
H	 0.096483	 1.767185	 -1.101728
H	 -2.262839	 0.075384	 -1.480151
H	 -2.369300	 -1.368867	 -0.491760
H	 -3.410332	 -0.003975	 -0.144961
H	 0.227594	 -0.949118	 -2.500397
H	 -1.209144	 0.054909	 -2.459569
H	 0.220286	 0.622911	 -3.296813

	symmetry c1
}
set optking {
	frozen_dihedral = ("
		3 6 9 11
	")
}

ee = optimize('scf')
oeprop('DIPOLE', 'QUADRUPOLE', 'MULLIKEN_CHARGES')
f=open( 'psi4out.xyz', 'w' )
f.write( "22  " )
f.write( str(ee) + "\n" )
f.write( MOL.save_string_xyz() )
f.close()
--------------------------------------------------------------------------

    Molecular point group: c1
  Charge       = 0
  Multiplicity = 1
  Basis Set: 6-31G*
  Basis Set:
  @DF-RHF Final Energy:  -290.35384723869674
    Total Energy =                       -290.3538472386970852
    Molecular point group: c1
  Basis Set: 6-31G*
  Basis Set:
  Basis Set: 6-31G*
  Basis Set:
  @DF-RHF Final Energy:  -290.36511127038710
    Total Energy =                       -290.3651112703872172
  Basis Set: 6-31G*
  Basis Set:
  Basis Set: 6-31G*
  Basis Set:
  @DF-RHF Final Energy:  -290.36796939343509
    Total Energy =                       -290.3679693934353168
  Basis Set: 6-31G*
  Basis Set:
  Basis Set: 6-31G*
  Basis Set:
  @DF-RHF Final Energy:  -290.36904712142166
    Total Energy =                       -290.3690471214218292
  Basis Set: 6-31G*
  Basis Set:
  @DF-RHF Final Energy:  -290.36936920891799
    Total Energy =                       -290.3693692089179876
  @DF-RHF Final Energy:  -290.36997818570273
    Total Energy =                       -290.3699781857027347
  @DF-RHF Final Energy:  -290.37033814859393
    Total Energy =                       -290.3703381485937598
  @DF-RHF Final Energy:  -290.37045140630261
    Total Energy =                       -290.3704514063027204
  @DF-RHF Final Energy:  -290.37048168608266
    Total Energy =                       -290.3704816860826554
  @DF-RHF Final Energy:  -290.37051055285991
    Total Energy =                       -290.3705105528600825
  Basis Set: 6-31G*
  Basis Set:
  @DF-RHF Final Energy:  -290.37051836210219
    Total Energy =                       -290.3705183621016772
  Basis Set: 6-31G*
  Basis Set:
  Basis Set: 6-31G*
  Basis Set:
  @DF-RHF Final Energy:  -290.37052123378743
    Total Energy =                       -290.3705212337870307
  Basis Set: 6-31G*
  Basis Set:
  Basis Set: 6-31G*
  Basis Set:
  @DF-RHF Final Energy:  -290.37052242980678
    Total Energy =                       -290.3705224298068970
  Basis Set: 6-31G*
  Basis Set:
  Charge       = 0
  Multiplicity = 1
  Basis Set: 6-31G*
  Basis Set:

    Orbital Energies (a.u.)
    -----------------------

    Doubly Occupied:

       1A    -15.535994     2A    -11.240908     3A    -11.240785
       4A    -11.239736     5A    -11.206129     6A    -11.205852
       7A    -11.201902     8A     -1.221932     9A     -1.027282
      10A     -1.018041    11A     -0.957442    12A     -0.853942
      13A     -0.833313    14A     -0.774051    15A     -0.660126
      16A     -0.642023    17A     -0.605096    18A     -0.601367
      19A     -0.567395    20A     -0.559017    21A     -0.538565
      22A     -0.530003    23A     -0.513128    24A     -0.497564
      25A     -0.491782    26A     -0.474261    27A     -0.467105
      28A     -0.463079    29A     -0.337695

  @DF-RHF Final Energy:  -290.37052258209206

   => Energetics <=

    Nuclear Repulsion Energy =            339.0027083515433901
    One-Electron Energy =               -1063.7354365412156767
    Two-Electron Energy =                 434.3622056075799946
    DFT Exchange-Correlation Energy =       0.0000000000000000
    Empirical Dispersion Energy =           0.0000000000000000
    PCM Polarization Energy =               0.0000000000000000
    EFP Energy =                            0.0000000000000000
    Total Energy =                       -290.3705225820923488
    Molecular point group: c1
  Basis Set: 6-31G*
  Basis Set:

  -Total Gradient:
     Atom            X                  Y                   Z
    ------   -----------------  -----------------  -----------------
       1       -0.000000369523     0.000002196959    -0.000001740573
       2       -0.000001447098     0.000000343371    -0.000006224309
       3       -0.000073405821    -0.000319384276     0.000080447601
       4       -0.000001767330     0.000001415974     0.000003376913
       5        0.000002554133     0.000000142885    -0.000005036745
       6        0.000080910074     0.000324773874    -0.000014297095
       7       -0.000003303562     0.000000316266     0.000001901297
       8        0.000000063745    -0.000000311172    -0.000001676066
       9        0.000007354351     0.000255538209    -0.000193783675
      10       -0.000008703455     0.000000081474    -0.000002723521
      11       -0.000018361972    -0.000271381159     0.000159304633
      12       -0.000000368001     0.000002664118     0.000000847509
      13        0.000007104546    -0.000002642352    -0.000002809542
      14        0.000012933420     0.000004063073    -0.000004797170
      15       -0.000003538396    -0.000002091118    -0.000003124230
      16        0.000004091763     0.000003168144    -0.000002797257
      17       -0.000001142032     0.000003201862    -0.000010489731
      18        0.000000169834    -0.000000588092     0.000001232127
      19        0.000002816772     0.000000129478     0.000001257356
      20        0.000001396047    -0.000000212260     0.000001711764
      21       -0.000008020360    -0.000000865660     0.000002309204
      22        0.000001032865    -0.000000559598    -0.000002888491

  **** Optimization is complete! (in 14 steps) ****
    Final optimized geometry and variables:
    Molecular point group: c1

    Geometry (in Angstrom), charge = 0, multiplicity = 1:

    H            2.908140829613    -0.817197439448     1.736194096431
    C            2.200709274468    -0.799878166572     0.912264929960
    C            0.966405123909     0.007902476576     1.300512096965
    H            1.922841543282    -1.821108614742     0.675688991120
    H            2.713292166154    -0.381654287673     0.052775791158
    N           -0.065526690042     0.000799415370     0.276347121495
    H            0.545429718162    -0.433499078425     2.196554392742
    H            1.266328338793     1.027026637784     1.566578130401
    C           -1.368320737785     0.396097394831     0.786884220660
    C            0.318294402346     0.701534646315    -0.949173289170
    C           -2.519304392087    -0.058817667433    -0.104831553254
    H           -1.431184750464     1.477750281952     0.944353437466
    H           -1.496505803948    -0.064434313503     1.759740369745
    C            0.454319594929    -0.228394171795    -2.151923054253
    H            1.256211753962     1.229206598272    -0.795704528216
    H           -0.413383163281     1.472075168932    -1.176326729581
    H           -2.487153083241     0.403499246217    -1.085642546191
    H           -2.487852034686    -1.134544692768    -0.238282029630
    H           -3.470270644023     0.205258433560     0.348671146117
    H            1.208027990525    -0.986976640670    -1.973296029044
    H           -0.481794291839    -0.736663210104    -2.354659165788
    H            0.737937554857     0.330538909840    -3.040327374522

  Mulliken Charges: (a.u.)
   Center  Symbol    Alpha    Beta     Spin     Total
       1     H     0.42161  0.42161  0.00000  0.15678
       2     C     3.24097  3.24097  0.00000 -0.48194
       3     C     3.05186  3.05186  0.00000 -0.10372
       4     H     0.41470  0.41470  0.00000  0.17060
       5     H     0.42048  0.42048  0.00000  0.15905
       6     N     3.78702  3.78702  0.00000 -0.57405
       7     H     0.42009  0.42009  0.00000  0.15982
       8     H     0.43507  0.43507  0.00000  0.12986
       9     C     3.05257  3.05257  0.00000 -0.10514
      10     C     3.06583  3.06583  0.00000 -0.13166
      11     C     3.23994  3.23994  0.00000 -0.47989
      12     H     0.43466  0.43466  0.00000  0.13068
      13     H     0.42029  0.42029  0.00000  0.15943
      14     C     3.22915  3.22915  0.00000 -0.45829
      15     H     0.42236  0.42236  0.00000  0.15529
      16     H     0.42181  0.42181  0.00000  0.15637
      17     H     0.42071  0.42071  0.00000  0.15858
      18     H     0.41479  0.41479  0.00000  0.17042
      19     H     0.42200  0.42200  0.00000  0.15601
      20     H     0.41831  0.41831  0.00000  0.16338
      21     H     0.41829  0.41829  0.00000  0.16341
      22     H     0.42750  0.42750  0.00000  0.14501

   Total alpha = 29.00000, Total beta = 29.00000, Total charge = -0.00000
