                              Psi4 1.0.54 Driver

  ==> Input File <==

--------------------------------------------------------------------------
set {
	reference rhf
	basis cc-pvtz
}

set_num_threads( 4 )
memory 2 gb

molecule MOL {
0 1

O	 -2.646492	 0.996548	 -0.126341
C	 -1.922978	 0.063265	 -0.045005
C	 -2.340039	 -1.365093	 -0.255494
O	 -0.637375	 0.157174	 0.243149
H	 -2.140749	 -1.937808	 0.641166
H	 -3.390369	 -1.403299	 -0.494209
H	 -1.758664	 -1.799231	 -1.058674
C	 0.162530	 -1.009518	 0.097799
C	 1.587210	 -0.664190	 0.477086
H	 0.096803	 -1.356267	 -0.924704
H	 -0.233803	 -1.785900	 0.736810
C	 2.256770	 0.342732	 -0.454344
H	 2.154716	 -1.590834	 0.479041
H	 1.598751	 -0.289614	 1.496104
C	 3.698146	 0.643205	 -0.057145
H	 2.235038	 -0.042575	 -1.470299
H	 1.683491	 1.262594	 -0.461300
H	 4.150202	 1.356548	 -0.736242
H	 4.305463	 -0.255904	 -0.069842
H	 3.749130	 1.061068	 0.942759

	symmetry c1
}
set optking {
	frozen_dihedral = ("
		1 2 4 8
	")
}

ee,wfn = optimize('scf', return_wfn=True)
oeprop( wfn, 'DIPOLE', 'QUADRUPOLE', 'MULLIKEN_CHARGES')
f=open( 'psi4out.xyz', 'w' )
f.write( "20  " )
f.write( str(ee) + "\n" )
f.write( MOL.save_string_xyz() )
f.close()
--------------------------------------------------------------------------

    Molecular point group: c1
  Charge       = 0
  Multiplicity = 1
  Basis Set: CC-PVTZ
  Basis Set:
  @DF-RHF Final Energy:  -384.06413150109080
    Total Energy =                       -384.0641315010906283
    Molecular point group: c1
  Basis Set: CC-PVTZ
  Basis Set:
  Basis Set: CC-PVTZ
  Basis Set:
  @DF-RHF Final Energy:  -384.03143571812632
    Total Energy =                       -384.0314357181269997
  Basis Set: CC-PVTZ
  Basis Set:
  Basis Set: CC-PVTZ
  Basis Set:
  @DF-RHF Final Energy:  -384.06950350214640
    Total Energy =                       -384.0695035021461763
  Basis Set: CC-PVTZ
  Basis Set:
  Basis Set: CC-PVTZ
  Basis Set:
  @DF-RHF Final Energy:  -384.07325964577933
    Total Energy =                       -384.0732596457791033
  Basis Set: CC-PVTZ
  Basis Set:
  @DF-RHF Final Energy:  -384.07288734151479
    Total Energy =                       -384.0728873415149565
  @DF-RHF Final Energy:  -384.07361721494050
    Total Energy =                       -384.0736172149399863
  @DF-RHF Final Energy:  -384.07420262941406
    Total Energy =                       -384.0742026294136622
  Basis Set: CC-PVTZ
  Basis Set:
  @DF-RHF Final Energy:  -384.07421987890598
    Total Energy =                       -384.0742198789059785
  Basis Set: CC-PVTZ
  Basis Set:
  Basis Set: CC-PVTZ
  Basis Set:
  @DF-RHF Final Energy:  -384.07422094572149
    Total Energy =                       -384.0742209457216632
  Basis Set: CC-PVTZ
  Basis Set:
  Basis Set: CC-PVTZ
  Basis Set:
  @DF-RHF Final Energy:  -384.07422394050826
    Total Energy =                       -384.0742239405084320
  Basis Set: CC-PVTZ
  Basis Set:
  Charge       = 0
  Multiplicity = 1
  Basis Set: CC-PVTZ
  Basis Set:

    Orbital Energies (a.u.)
    -----------------------

    Doubly Occupied:

       1A    -20.592785     2A    -20.526837     3A    -11.368263
       4A    -11.294993     5A    -11.240336     6A    -11.228714
       7A    -11.219361     8A    -11.211738     9A     -1.465423
      10A     -1.366816    11A     -1.088028    12A     -1.019963
      13A     -1.001512    14A     -0.890537    15A     -0.815644
      16A     -0.781718    17A     -0.700720    18A     -0.690438
      19A     -0.664325    20A     -0.635248    21A     -0.605310
      22A     -0.596924    23A     -0.579619    24A     -0.561837
      25A     -0.545591    26A     -0.534222    27A     -0.521346
      28A     -0.487784    29A     -0.478480    30A     -0.475436
      31A     -0.444656    32A     -0.435094

  @DF-RHF Final Energy:  -384.07422401003504

   => Energetics <=

    Nuclear Repulsion Energy =            385.3305675039768516
    One-Electron Energy =               -1286.6701874752172898
    Two-Electron Energy =                 517.2653959612050585
    DFT Exchange-Correlation Energy =       0.0000000000000000
    Empirical Dispersion Energy =           0.0000000000000000
    PCM Polarization Energy =               0.0000000000000000
    EFP Energy =                            0.0000000000000000
    Total Energy =                       -384.0742240100353229
    Molecular point group: c1
  Basis Set: CC-PVTZ
  Basis Set:

  -Total Gradient:
     Atom            X                  Y                   Z
    ------   -----------------  -----------------  -----------------
       1        0.000026509935     0.000000601457    -0.001008118583
       2       -0.000002475543     0.000104569626     0.000946618628
       3       -0.000000960028    -0.000005470605    -0.000030827083
       4       -0.000083596501    -0.000220485285     0.000940524181
       5        0.000000475700     0.000004430654     0.000012725133
       6       -0.000005281871     0.000002138433     0.000001675566
       7        0.000001546974    -0.000006278608     0.000008346257
       8        0.000060297401     0.000130468666    -0.000861565432
       9        0.000000255082    -0.000008526222    -0.000003729380
      10       -0.000000387928     0.000001296773    -0.000002261985
      11        0.000003828588    -0.000002467770    -0.000002920303
      12       -0.000001111629     0.000001044895     0.000000200258
      13        0.000003670464    -0.000000364399    -0.000000123544
      14       -0.000002663972    -0.000000925127    -0.000002333612
      15        0.000000886151    -0.000000087227     0.000000440764
      16       -0.000000384271     0.000000329359     0.000001701987
      17       -0.000000900006    -0.000000387162    -0.000000494389
      18       -0.000000001841    -0.000000061008     0.000000066566
      19        0.000000047965     0.000000314901     0.000000381535
      20        0.000000245324    -0.000000141346    -0.000000306564

  **** Optimization is complete! (in 11 steps) ****
    Final optimized geometry and variables:
    Molecular point group: c1

    Geometry (in Angstrom), charge = 0, multiplicity = 1:

    O           -2.451445268482     1.281043347259     0.182421991596
    C           -1.900371344789     0.239972160994     0.239508295283
    C           -2.643669110259    -1.073243707656     0.246022215272
    O           -0.574300850506     0.208758457909     0.317531929237
    H           -2.429920415274    -1.627563542169     1.151229509212
    H           -3.698174349007    -0.860810994286     0.193913027320
    H           -2.357242861738    -1.688857880965    -0.596762401939
    C            0.186570025815    -0.975125247581     0.185090298127
    C            1.652796837685    -0.611001912995     0.306008565325
    H           -0.009311289299    -1.432463105830    -0.778203487184
    H           -0.084481203235    -1.680827476611     0.960220771093
    C            2.163682178746     0.289833975990    -0.814925022802
    H            2.219198713542    -1.538414380040     0.318738592488
    H            1.810814467859    -0.132092151752     1.266852063972
    C            3.642009754456     0.631217545239    -0.663341007981
    H            2.003620672083    -0.203565130150    -1.770312782665
    H            1.579150249404     1.201213095685    -0.835208710829
    H            3.979562279516     1.267289489578    -1.472915271394
    H            4.256412291067    -0.263319610909    -0.667040080965
    H            3.827863944214     1.155739169417     0.267758973369

  Mulliken Charges: (a.u.)
   Center  Symbol    Alpha    Beta     Spin     Total
       1     O     4.18322  4.18322  0.00000 -0.36643
       2     C     2.82127  2.82127  0.00000  0.35747
       3     C     3.16639  3.16639  0.00000 -0.33277
       4     O     4.12929  4.12929  0.00000 -0.25858
       5     H     0.44558  0.44558  0.00000  0.10885
       6     H     0.42542  0.42542  0.00000  0.14916
       7     H     0.44739  0.44739  0.00000  0.10522
       8     C     2.99802  2.99802  0.00000  0.00396
       9     C     3.08277  3.08277  0.00000 -0.16554
      10     H     0.45836  0.45836  0.00000  0.08328
      11     H     0.45090  0.45090  0.00000  0.09821
      12     C     3.08621  3.08621  0.00000 -0.17242
      13     H     0.45286  0.45286  0.00000  0.09428
      14     H     0.44871  0.44871  0.00000  0.10258
      15     C     3.15067  3.15067  0.00000 -0.30134
      16     H     0.45748  0.45748  0.00000  0.08503
      17     H     0.43899  0.43899  0.00000  0.12202
      18     H     0.44641  0.44641  0.00000  0.10717
      19     H     0.45703  0.45703  0.00000  0.08595
      20     H     0.45304  0.45304  0.00000  0.09391

   Total alpha = 32.00000, Total beta = 32.00000, Total charge =  0.00000

*** Psi4 exiting successfully. Buy a developer a beer!
