  ==> Input File <==

--------------------------------------------------------------------------
set {
	reference rhf
	basis 6-31G*
}

set_num_threads( 4 )
memory 2 gb

molecule MOL {
0 1

O	 -0.434980	 -4.639932	 -1.557373
C	 0.006973	 -3.819796	 -2.303355
C	 0.179603	 -2.377373	 -1.860726
C	 0.445257	 -4.176644	 -3.706189
C	 1.444635	 -2.215080	 -1.002532
H	 -0.692148	 -2.106520	 -1.275070
H	 0.227552	 -1.716506	 -2.721529
C	 1.631333	 -0.777471	 -0.511575
H	 1.374422	 -2.898790	 -0.164084
H	 2.319114	 -2.513156	 -1.578886
C	 2.915987	 -0.544314	 0.291766
H	 0.772718	 -0.491400	 0.093131
H	 1.634471	 -0.110820	 -1.371467
C	 3.373361	 0.914346	 0.347591
H	 3.708709	 -1.142521	 -0.150311
H	 2.780642	 -0.921148	 1.303579
H	 3.506512	 1.320010	 -0.651625
H	 4.322697	 0.999599	 0.867103
H	 2.660624	 1.545032	 0.868198
H	 -0.202856	 -3.685631	 -4.427382
H	 0.394881	 -5.247114	 -3.848805
H	 1.456153	 -3.826424	 -3.893916

	symmetry c1
}
set optking {
	frozen_dihedral = ("
		12 8 11 15
	")
}

ee = optimize('scf')
oeprop('DIPOLE', 'QUADRUPOLE', 'MULLIKEN_CHARGES')
f=open( 'psi4out.xyz', 'w' )
f.write( "22  " )
f.write( str(ee) + "\n" )
f.write( MOL.save_string_xyz() )
f.close()
--------------------------------------------------------------------------

    Molecular point group: c1
  Charge       = 0
  Multiplicity = 1
  Basis Set: 6-31G*
  Basis Set:
  @DF-RHF Final Energy:  -348.09792227990857
    Total Energy =                       -348.0979222799085164
    Molecular point group: c1
  Basis Set: 6-31G*
  Basis Set:
  Basis Set: 6-31G*
  Basis Set:
  @DF-RHF Final Energy:  -348.09849864870489
    Total Energy =                       -348.0984986487049468
  Basis Set: 6-31G*
  Basis Set:
  Basis Set: 6-31G*
  Basis Set:
  @DF-RHF Final Energy:  -348.09606408787783
    Total Energy =                       -348.0960640878775507
  Basis Set: 6-31G*
  Basis Set:
  Basis Set: 6-31G*
  Basis Set:
  @DF-RHF Final Energy:  -348.09857362583296
    Total Energy =                       -348.0985736258331826
  Basis Set: 6-31G*
  Basis Set:
  @DF-RHF Final Energy:  -348.09850379197735
    Total Energy =                       -348.0985037919774641
  @DF-RHF Final Energy:  -348.09787470359703
    Total Energy =                       -348.0978747035969718
  Basis Set: 6-31G*
  Basis Set:
  @DF-RHF Final Energy:  -348.09857818160862
    Total Energy =                       -348.0985781816087297
  Basis Set: 6-31G*
  Basis Set:
  Basis Set: 6-31G*
  Basis Set:
  @DF-RHF Final Energy:  -348.09849519785701
    Total Energy =                       -348.0984951978571189
  Basis Set: 6-31G*
  Basis Set:
  Basis Set: 6-31G*
  Basis Set:
  @DF-RHF Final Energy:  -348.09863178476718
    Total Energy =                       -348.0986317847668943
  Basis Set: 6-31G*
  Basis Set:
  Charge       = 0
  Multiplicity = 1
  Basis Set: 6-31G*
  Basis Set:

    Orbital Energies (a.u.)
    -----------------------

    Doubly Occupied:

       1A    -20.547314     2A    -11.324429     3A    -11.230055
       4A    -11.229072     5A    -11.228164     6A    -11.222370
       7A    -11.220367     8A    -11.213016     9A     -1.393067
      10A     -1.095768    11A     -1.045447    12A     -1.000822
      13A     -0.939184    14A     -0.845455    15A     -0.798962
      16A     -0.732467    17A     -0.665233    18A     -0.647101
      19A     -0.630325    20A     -0.608917    21A     -0.591112
      22A     -0.586264    23A     -0.562337    24A     -0.550480
      25A     -0.533175    26A     -0.514350    27A     -0.496772
      28A     -0.486240    29A     -0.474806    30A     -0.468394
      31A     -0.459392    32A     -0.396005

  @DF-RHF Final Energy:  -348.09863228550643

   => Energetics <=

    Nuclear Repulsion Energy =            368.5734159972615203
    One-Electron Energy =               -1201.8703745339621491
    Two-Electron Energy =                 485.1983262511947146
    DFT Exchange-Correlation Energy =       0.0000000000000000
    Empirical Dispersion Energy =           0.0000000000000000
    PCM Polarization Energy =               0.0000000000000000
    EFP Energy =                            0.0000000000000000
    Total Energy =                       -348.0986322855059711
    Molecular point group: c1
  Basis Set: 6-31G*
  Basis Set:

  -Total Gradient:
     Atom            X                  Y                   Z
    ------   -----------------  -----------------  -----------------
       1        0.000024617122     0.000011052280     0.000030607709
       2       -0.000000968416    -0.000017575166    -0.000037191877
       3        0.000074578251     0.000010187989    -0.000002538389
       4       -0.000037758470    -0.000006439346    -0.000003593504
       5       -0.000036119803    -0.000010118221     0.000025403550
       6       -0.000010238605     0.000009789690    -0.000000277475
       7       -0.000009951173     0.000008962932    -0.000005936985
       8        0.000057073031     0.003346550457    -0.000897982096
       9       -0.000020572713     0.000002184028    -0.000016780237
      10        0.000024618025    -0.000006221392     0.000021128535
      11        0.001176174211     0.002570132305    -0.002259993706
      12       -0.000314675521    -0.003224078607     0.001147626315
      13       -0.000020926438    -0.000026543369     0.000010954144
      14       -0.000013464122    -0.000010733363     0.000033987874
      15       -0.000930974039    -0.002660327069     0.001958304143
      16        0.000011552075     0.000009042389    -0.000008327518
      17        0.000030673859    -0.000016844700    -0.000001232212
      18       -0.000018537115    -0.000002685121     0.000024308187
      19       -0.000003803766    -0.000002656080    -0.000023554821
      20        0.000010897581     0.000005189939    -0.000017942452
      21        0.000001677707     0.000004789102     0.000006916568
      22        0.000006128321     0.000006341326     0.000016114247

  **** Optimization is complete! (in 10 steps) ****
    Final optimized geometry and variables:
    Molecular point group: c1

    Geometry (in Angstrom), charge = 0, multiplicity = 1:

    O           -1.620917229261    -2.444761909147    -0.225785820585
    C           -1.203226049683    -1.627465227699    -0.988520207501
    C           -1.038371899123    -0.178578843719    -0.564613552601
    C           -0.795021231675    -1.992449022119    -2.398551130757
    C            0.262172647033     0.015933899300     0.230576645674
    H           -1.887252937220     0.080255596008     0.058618649459
    H           -1.043036653580     0.475649259306    -1.432034261048
    C            0.456291348558     1.460246199988     0.698379700910
    H            0.245817230055    -0.650545826255     1.087834949298
    H            1.113347220282    -0.281278360627    -0.379211723839
    C            1.719331784071     1.642353320476     1.547997688078
    H           -0.413586589552     1.747119050736     1.285276186756
    H            0.490530524368     2.118614099368    -0.167164113903
    C            2.150067170009     3.100701016673     1.688258808413
    H            2.530263633757     1.048390435286     1.132091933282
    H            1.537400789596     1.225259296017     2.536076302442
    H            2.406456774283     3.528346920485     0.723178477480
    H            3.017721648936     3.194471770329     2.333671467080
    H            1.353760625150     3.704010413253     2.115170689929
    H           -1.469504228826    -1.519867592264    -3.107753672543
    H           -0.832038049997    -3.065066755266    -2.528374691713
    H            0.204858905378    -1.628565145651    -2.616436117479

  Mulliken Charges: (a.u.)
   Center  Symbol    Alpha    Beta     Spin     Total
       1     O     4.26222  4.26222  0.00000 -0.52444
       2     C     2.73712  2.73712  0.00000  0.52576
       3     C     3.20002  3.20002  0.00000 -0.40005
       4     C     3.28955  3.28955  0.00000 -0.57911
       5     C     3.16322  3.16322  0.00000 -0.32644
       6     H     0.40121  0.40121  0.00000  0.19759
       7     H     0.41692  0.41692  0.00000  0.16617
       8     C     3.15106  3.15106  0.00000 -0.30211
       9     H     0.40617  0.40617  0.00000  0.18766
      10     H     0.42072  0.42072  0.00000  0.15856
      11     C     3.15349  3.15349  0.00000 -0.30697
      12     H     0.41958  0.41958  0.00000  0.16083
      13     H     0.42298  0.42298  0.00000  0.15405
      14     C     3.23970  3.23970  0.00000 -0.47939
      15     H     0.42208  0.42208  0.00000  0.15584
      16     H     0.41972  0.41972  0.00000  0.16056
      17     H     0.42166  0.42166  0.00000  0.15669
      18     H     0.41814  0.41814  0.00000  0.16371
      19     H     0.42074  0.42074  0.00000  0.15853
      20     H     0.40682  0.40682  0.00000  0.18636
      21     H     0.39706  0.39706  0.00000  0.20587
      22     H     0.40983  0.40983  0.00000  0.18035

   Total alpha = 32.00000, Total beta = 32.00000, Total charge =  0.00000
