  ==> Input File <==

--------------------------------------------------------------------------
set {
	reference rhf
	basis 6-31G*
}

set_num_threads( 4 )
memory 2 gb

molecule MOL {
0 1

H	 -3.301617	 0.570527	 0.000000
C	 -2.250981	 0.344174	 0.000000
C	 -1.813665	 -0.976045	 0.000000
C	 -1.315303	 1.358057	 0.000000
H	 -2.528860	 -1.779366	 0.000000
C	 -0.467298	 -1.270142	 0.000000
H	 -1.635074	 2.385107	 0.000000
C	 0.047081	 1.078114	 0.000000
H	 -0.115948	 -2.285222	 0.000000
C	 0.472063	 -0.241155	 0.000000
H	 0.749976	 1.888426	 0.000000
O	 1.765256	 -0.628444	 0.000000
C	 2.604306	 -0.246200	 1.051170
H	 2.692957	 0.833256	 1.116346
H	 3.573791	 -0.668267	 0.832610
H	 2.253200	 -0.635131	 2.001322

	symmetry c1
}
set optking {
	frozen_dihedral = ("
		13 12 10 8
	")
}

ee = optimize('scf')
oeprop('DIPOLE', 'QUADRUPOLE', 'MULLIKEN_CHARGES')
f=open( 'psi4out.xyz', 'w' )
f.write( "16  " )
f.write( str(ee) + "\n" )
f.write( MOL.save_string_xyz() )
f.close()
--------------------------------------------------------------------------

    Molecular point group: c1
  Charge       = 0
  Multiplicity = 1
  Basis Set: 6-31G*
  Basis Set:
  @DF-RHF Final Energy:  -344.57914738349939
    Total Energy =                       -344.5791473834993894
    Molecular point group: c1
  Basis Set: 6-31G*
  Basis Set:
  Basis Set: 6-31G*
  Basis Set:
  @DF-RHF Final Energy:  -344.58007300787358
    Total Energy =                       -344.5800730078736933
  Basis Set: 6-31G*
  Basis Set:
  Basis Set: 6-31G*
  Basis Set:
  @DF-RHF Final Energy:  -344.58025397399030
    Total Energy =                       -344.5802539739900112
  Basis Set: 6-31G*
  Basis Set:
  Basis Set: 6-31G*
  Basis Set:
  @DF-RHF Final Energy:  -344.58027431606916
    Total Energy =                       -344.5802743160690511
  Basis Set: 6-31G*
  Basis Set:
  Charge       = 0
  Multiplicity = 1
  Basis Set: 6-31G*
  Basis Set:

    Orbital Energies (a.u.)
    -----------------------

    Doubly Occupied:

       1A    -20.574170     2A    -11.287639     3A    -11.276259
       4A    -11.233685     5A    -11.232500     6A    -11.226125
       7A    -11.224667     8A    -11.222895     9A     -1.402248
      10A     -1.147250    11A     -1.018166    12A     -1.014380
      13A     -0.935158    14A     -0.833467    15A     -0.805954
      16A     -0.715382    17A     -0.666075    18A     -0.661926
      19A     -0.640337    20A     -0.613839    21A     -0.593790
      22A     -0.583005    23A     -0.529454    24A     -0.508771
      25A     -0.505076    26A     -0.482212    27A     -0.441613
      28A     -0.335011    29A     -0.316401

  @DF-RHF Final Energy:  -344.58027631770665

   => Energetics <=

    Nuclear Repulsion Energy =            347.9128999241470410
    One-Electron Energy =               -1156.9314440755160831
    Two-Electron Energy =                 464.4382678336621666
    DFT Exchange-Correlation Energy =       0.0000000000000000
    Empirical Dispersion Energy =           0.0000000000000000
    PCM Polarization Energy =               0.0000000000000000
    EFP Energy =                            0.0000000000000000
    Total Energy =                       -344.5802763177068755
    Molecular point group: c1
  Basis Set: 6-31G*
  Basis Set:

  -Total Gradient:
     Atom            X                  Y                   Z
    ------   -----------------  -----------------  -----------------
       1       -0.000022915359    -0.000046364371     0.000002841947
       2        0.000058506683     0.000135452927    -0.000097210589
       3        0.000101398567    -0.000090066373     0.000057772655
       4       -0.000157686857    -0.000040161344     0.000089842483
       5       -0.000029034141     0.000022505392    -0.000004998781
       6       -0.000073630207    -0.000086986627     0.000000258824
       7        0.000023525509    -0.000021594280    -0.000005674985
       8        0.000145137832    -0.000095773780    -0.000018481391
       9       -0.000011788434     0.000007685853    -0.000019030299
      10       -0.000224774486     0.000337332571     0.000023681554
      11        0.000006595205    -0.000012727337    -0.000015307760
      12        0.000138463691    -0.000143401409    -0.000044474590
      13        0.000057825848     0.000046075062     0.000075720868
      14       -0.000006532219     0.000007422219    -0.000012538991
      15        0.000004294013    -0.000012831007     0.000008331537
      16       -0.000009385646    -0.000006567493    -0.000040732482

  **** Optimization is complete! (in 5 steps) ****
    Final optimized geometry and variables:
    Molecular point group: c1

    Geometry (in Angstrom), charge = 0, multiplicity = 1:

    H           -3.264333574336     0.676856777454    -0.143006375324
    C           -2.216927834684     0.434789351190    -0.142777089877
    C           -1.804827843387    -0.888309944716    -0.169085364117
    C           -1.266688495290     1.442517491587    -0.121054988850
    H           -2.533900698398    -1.678724175019    -0.189607860894
    C           -0.456516035157    -1.202954122518    -0.164978642678
    H           -1.575256317484     2.472741618296    -0.109462657632
    C            0.085003299099     1.137407370860    -0.125173712301
    H           -0.121253822376    -2.223405504606    -0.186117696495
    C            0.488661347196    -0.189350588434    -0.142282822281
    H            0.818024905118     1.923030144498    -0.130305384696
    O            1.802695241300    -0.541651472004    -0.181093407417
    C            2.613787388619    -0.108656350988     0.880286181483
    H            2.732601700325     0.968994836736     0.884410524589
    H            3.581494612857    -0.566741405770     0.735715000163
    H            2.204353211420    -0.423395481018     1.834646885261

  Mulliken Charges: (a.u.)
   Center  Symbol    Alpha    Beta     Spin     Total
       1     H     0.40018  0.40018  0.00000  0.19964
       2     C     3.10729  3.10729  0.00000 -0.21458
       3     C     3.09570  3.09570  0.00000 -0.19140
       4     C     3.09525  3.09525  0.00000 -0.19051
       5     H     0.39839  0.39839  0.00000  0.20322
       6     C     3.12239  3.12239  0.00000 -0.24479
       7     H     0.39877  0.39877  0.00000  0.20246
       8     C     3.12669  3.12669  0.00000 -0.25339
       9     H     0.39326  0.39326  0.00000  0.21347
      10     C     2.79537  2.79537  0.00000  0.40925
      11     H     0.39641  0.39641  0.00000  0.20718
      12     O     4.33183  4.33183  0.00000 -0.66366
      13     C     3.08385  3.08385  0.00000 -0.16770
      14     H     0.42420  0.42420  0.00000  0.15159
      15     H     0.40927  0.40927  0.00000  0.18147
      16     H     0.42113  0.42113  0.00000  0.15774

   Total alpha = 29.00000, Total beta = 29.00000, Total charge = -0.00000
