  ==> Input File <==

--------------------------------------------------------------------------
set {
	reference rhf
	basis cc-pvtz
}

set_num_threads( 4 )
memory 2 gb

molecule MOL {
0 1

H	 -2.341272	 1.074491	 1.842774
C	 -1.675365	 1.173697	 2.696946
O	 -0.386603	 0.760315	 2.387510
H	 -1.629180	 2.214444	 2.982607
H	 -2.090830	 0.602183	 3.524982
C	 -0.287391	 -0.573066	 2.008186
C	 1.130085	 -0.882500	 1.596657
H	 -0.563761	 -1.223093	 2.838279
H	 -0.955891	 -0.787649	 1.177226
O	 1.401606	 -0.295166	 0.366636
H	 1.812514	 -0.512657	 2.358850
H	 1.251132	 -1.963850	 1.533402
C	 2.714315	 -0.441627	 -0.061017
H	 2.765292	 -0.641548	 -1.128869
H	 3.305661	 0.447341	 0.150952
H	 3.143725	 -1.278506	 0.470147

	symmetry c1
}
set optking {
	frozen_dihedral = ("
		7 10 13 14
	")
}

ee = optimize('scf')
oeprop('DIPOLE', 'QUADRUPOLE', 'MULLIKEN_CHARGES')
f=open( 'psi4out.xyz', 'w' )
f.write( "16  " )
f.write( str(ee) + "\n" )
f.write( MOL.save_string_xyz() )
f.close()
--------------------------------------------------------------------------

    Molecular point group: c1
  Charge       = 0
  Multiplicity = 1
  Basis Set: CC-PVTZ
  Basis Set:
  @DF-RHF Final Energy:  -307.09420183060018
    Total Energy =                       -307.0942018306001842
    Molecular point group: c1
  Basis Set: CC-PVTZ
  Basis Set:
  Basis Set: CC-PVTZ
  Basis Set:
  @DF-RHF Final Energy:  -307.09502242934371
    Total Energy =                       -307.0950224293437714
  Basis Set: CC-PVTZ
  Basis Set:
  Basis Set: CC-PVTZ
  Basis Set:
  @DF-RHF Final Energy:  -307.09523639469535
    Total Energy =                       -307.0952363946952914
  Basis Set: CC-PVTZ
  Basis Set:
  Charge       = 0
  Multiplicity = 1
  Basis Set: CC-PVTZ
  Basis Set:

    Orbital Energies (a.u.)
    -----------------------

    Doubly Occupied:

       1A    -20.547542     2A    -20.545049     3A    -11.267696
       4A    -11.266647     5A    -11.261393     6A    -11.261202
       7A     -1.390034     8A     -1.372349     9A     -1.031778
      10A     -0.937170    11A     -0.892235    12A     -0.824109
      13A     -0.685414    14A     -0.681598    15A     -0.658580
      16A     -0.636515    17A     -0.631449    18A     -0.596951
      19A     -0.553773    20A     -0.538853    21A     -0.508072
      22A     -0.479019    23A     -0.464169    24A     -0.421320
      25A     -0.411528

  @DF-RHF Final Energy:  -307.09523773594179

   => Energetics <=

    Nuclear Repulsion Energy =            258.6894103683245589
    One-Electron Energy =                -931.8404082868489695
    Two-Electron Energy =                 366.0557601825825600
    DFT Exchange-Correlation Energy =       0.0000000000000000
    Empirical Dispersion Energy =           0.0000000000000000
    PCM Polarization Energy =               0.0000000000000000
    EFP Energy =                            0.0000000000000000
    Total Energy =                       -307.0952377359417937
    Molecular point group: c1
  Basis Set: CC-PVTZ
  Basis Set:

  -Total Gradient:
     Atom            X                  Y                   Z
    ------   -----------------  -----------------  -----------------
       1        0.000001355285    -0.000000084859    -0.000000820600
       2       -0.000003518277    -0.000006839701     0.000002992994
       3        0.000002742460    -0.000004961010     0.000007922353
       4        0.000003394619    -0.000001750411    -0.000001294341
       5       -0.000001710638     0.000001171192     0.000000456582
       6       -0.000008542042     0.000046425035    -0.000076348268
       7       -0.000436191113    -0.001798712633    -0.000938682862
       8        0.000022185357    -0.000002031826    -0.000001074917
       9       -0.000013665281    -0.000004813588     0.000000252426
      10        0.000778706623     0.001923493985     0.001416253496
      11        0.000013104873     0.000000859902    -0.000018074158
      12        0.000006417508     0.000016003428    -0.000027701996
      13       -0.000147515110     0.002317213024    -0.000840443964
      14       -0.000194013071    -0.002491320551     0.000465163603
      15       -0.000031892903     0.000022107942    -0.000004565045
      16        0.000009141707    -0.000016759929     0.000015964702

  **** Optimization is complete! (in 4 steps) ****
    Final optimized geometry and variables:
    Molecular point group: c1

    Geometry (in Angstrom), charge = 0, multiplicity = 1:

    H           -2.818633562999     1.124171857449     0.326117255953
    C           -2.161304298163     1.217530862161     1.187545649252
    O           -0.871791650005     0.797314536204     0.890872537538
    H           -2.112105227280     2.257328512628     1.476151252507
    H           -2.588908639957     0.646569760359     2.009793378422
    C           -0.776290898984    -0.535759377047     0.509539266705
    C            0.643104631221    -0.852615743906     0.110849056674
    H           -1.063682452920    -1.186052088424     1.335801362288
    H           -1.438086768117    -0.744960371403    -0.328093151420
    O            0.925098628946    -0.264377745665    -1.117356449953
    H            1.317813383051    -0.488212612143     0.882132615263
    H            0.757451049583    -1.933880172693     0.045669127479
    C            2.237837179377    -0.400495314662    -1.562429269688
    H            2.224835278487    -0.590136314810    -2.627729360374
    H            2.811215627634     0.498925034566    -1.362353085075
    H            2.738643040803    -1.239004792756    -1.086207788689

  Mulliken Charges: (a.u.)
   Center  Symbol    Alpha    Beta     Spin     Total
       1     H     0.47015  0.47015  0.00000  0.05969
       2     C     3.03202  3.03202  0.00000 -0.06403
       3     O     4.17046  4.17046  0.00000 -0.34092
       4     H     0.44642  0.44642  0.00000  0.10716
       5     H     0.47372  0.47372  0.00000  0.05256
       6     C     2.96261  2.96261  0.00000  0.07477
       7     C     2.95909  2.95909  0.00000  0.08181
       8     H     0.47614  0.47614  0.00000  0.04773
       9     H     0.47109  0.47109  0.00000  0.05782
      10     O     4.17418  4.17418  0.00000 -0.34836
      11     H     0.47111  0.47111  0.00000  0.05778
      12     H     0.47564  0.47564  0.00000  0.04873
      13     C     3.02829  3.02829  0.00000 -0.05657
      14     H     0.45375  0.45375  0.00000  0.09250
      15     H     0.46032  0.46032  0.00000  0.07935
      16     H     0.47501  0.47501  0.00000  0.04999

   Total alpha = 25.00000, Total beta = 25.00000, Total charge =  0.00000
