  ==> Input File <==

--------------------------------------------------------------------------
set {
	reference rhf
	basis cc-pvtz
}

set_num_threads( 4 )
memory 2 gb

molecule MOL {
0 1

H	 -2.115866	 -0.575695	 -1.807672
C	 -2.720297	 0.329428	 -1.658338
C	 -2.653809	 0.914422	 -0.273689
O	 -3.364843	 0.763782	 -2.548958
C	 -1.216901	 1.136108	 0.207794
H	 -3.225456	 1.833319	 -0.260183
H	 -3.146496	 0.204470	 0.387017
C	 -0.247837	 0.040196	 -0.230469
H	 -0.872882	 2.093195	 -0.169002
H	 -1.209325	 1.218376	 1.291938
C	 1.181757	 0.280428	 0.247371
H	 -0.259600	 -0.030819	 -1.314870
H	 -0.591284	 -0.923375	 0.136958
C	 2.151032	 -0.811012	 -0.202643
H	 1.515939	 1.247397	 -0.115449
H	 1.191514	 0.341223	 1.333422
C	 3.580021	 -0.656538	 0.320835
H	 2.170545	 -0.847575	 -1.289412
H	 1.766632	 -1.772905	 0.124928
C	 4.327657	 0.562694	 -0.213579
H	 4.138806	 -1.549270	 0.057813
H	 3.561991	 -0.620783	 1.406976
H	 4.355973	 0.557257	 -1.298551
H	 3.867136	 1.491650	 0.100501
H	 5.351524	 0.571613	 0.142204

	symmetry c1
}
set optking {
	frozen_dihedral = ("
		6 3 5 8
	")
}

ee = optimize('scf')
oeprop('DIPOLE', 'QUADRUPOLE', 'MULLIKEN_CHARGES')
f=open( 'psi4out.xyz', 'w' )
f.write( "25  " )
f.write( str(ee) + "\n" )
f.write( MOL.save_string_xyz() )
f.close()
--------------------------------------------------------------------------

    Molecular point group: c1
  Charge       = 0
  Multiplicity = 1
  Basis Set: CC-PVTZ
  Basis Set:
  @DF-RHF Final Energy:  -387.25353732342694
    Total Energy =                       -387.2535373234271674
    Molecular point group: c1
  Basis Set: CC-PVTZ
  Basis Set:
  Basis Set: CC-PVTZ
  Basis Set:
  @DF-RHF Final Energy:  -387.25403946533339
    Total Energy =                       -387.2540394653337898
  Basis Set: CC-PVTZ
  Basis Set:
  Basis Set: CC-PVTZ
  Basis Set:
  @DF-RHF Final Energy:  -387.25589043988606
    Total Energy =                       -387.2558904398864570
  Basis Set: CC-PVTZ
  Basis Set:
  Basis Set: CC-PVTZ
  Basis Set:
  @DF-RHF Final Energy:  -387.25624053953936
    Total Energy =                       -387.2562405395395899
  Basis Set: CC-PVTZ
  Basis Set:
  @DF-RHF Final Energy:  -387.25637577663008
    Total Energy =                       -387.2563757766299659
  @DF-RHF Final Energy:  -387.25642060477037
    Total Energy =                       -387.2564206047705966
  @DF-RHF Final Energy:  -387.25645060683684
    Total Energy =                       -387.2564506068370065
  @DF-RHF Final Energy:  -387.25652410209244
    Total Energy =                       -387.2565241020920439
  Basis Set: CC-PVTZ
  Basis Set:
  @DF-RHF Final Energy:  -387.25667394001294
    Total Energy =                       -387.2566739400126608
  Basis Set: CC-PVTZ
  Basis Set:
  Basis Set: CC-PVTZ
  Basis Set:
  @DF-RHF Final Energy:  -387.25672538600963
    Total Energy =                       -387.2567253860094070
  Basis Set: CC-PVTZ
  Basis Set:
  Basis Set: CC-PVTZ
  Basis Set:
  @DF-RHF Final Energy:  -387.25672680863897
    Total Energy =                       -387.2567268086389731
  Basis Set: CC-PVTZ
  Basis Set:
  Charge       = 0
  Multiplicity = 1
  Basis Set: CC-PVTZ
  Basis Set:

    Orbital Energies (a.u.)
    -----------------------

    Doubly Occupied:

       1A    -20.550625     2A    -11.319396     3A    -11.233222
       4A    -11.232645     5A    -11.224980     6A    -11.218990
       7A    -11.217327     8A    -11.216573     9A    -11.209108
      10A     -1.405163    11A     -1.105124    12A     -1.069821
      13A     -1.014209    14A     -0.943674    15A     -0.877924
      16A     -0.831083    17A     -0.783792    18A     -0.772356
      19A     -0.684360    20A     -0.656533    21A     -0.632822
      22A     -0.619475    23A     -0.614295    24A     -0.585149
      25A     -0.574184    26A     -0.563836    27A     -0.534121
      28A     -0.524190    29A     -0.514620    30A     -0.499833
      31A     -0.489851    32A     -0.477568    33A     -0.466665
      34A     -0.460596    35A     -0.444267    36A     -0.409287

  @DF-RHF Final Energy:  -387.25672691490308

   => Energetics <=

    Nuclear Repulsion Energy =            440.7939260407814572
    One-Electron Energy =               -1398.1459719034703539
    Two-Electron Energy =                 570.0953189477852447
    DFT Exchange-Correlation Energy =       0.0000000000000000
    Empirical Dispersion Energy =           0.0000000000000000
    PCM Polarization Energy =               0.0000000000000000
    EFP Energy =                            0.0000000000000000
    Total Energy =                       -387.2567269149036520
    Molecular point group: c1
  Basis Set: CC-PVTZ
  Basis Set:

  -Total Gradient:
     Atom            X                  Y                   Z
    ------   -----------------  -----------------  -----------------
       1        0.000009994992    -0.000000672015    -0.000012470923
       2       -0.000040738398    -0.000012439590    -0.000021288777
       3       -0.000985621010    -0.000134488773     0.003915242500
       4        0.000016883419    -0.000003036740     0.000027752030
       5       -0.000457938812    -0.001984439123     0.002977405711
       6        0.000986805311     0.000622419355    -0.004135992679
       7       -0.000012360682     0.000018940681     0.000002330379
       8        0.000476791323     0.001482076397    -0.002762771384
       9       -0.000002319298     0.000003159260     0.000012555108
      10       -0.000001742040    -0.000002110500    -0.000000303288
      11        0.000002713342     0.000012346751    -0.000014768493
      12        0.000001176278     0.000003043201     0.000006339330
      13        0.000001555857    -0.000012358460     0.000006401313
      14       -0.000001458480     0.000006524926    -0.000003599068
      15       -0.000006102050    -0.000004597873    -0.000001578816
      16        0.000004646906     0.000000515458    -0.000004222939
      17       -0.000005427280     0.000004494460     0.000014596176
      18        0.000000391437     0.000007926418    -0.000000450522
      19       -0.000001245066    -0.000002820745    -0.000005368309
      20        0.000004081504     0.000000066456    -0.000002514631
      21       -0.000002992106    -0.000001302554     0.000002877222
      22        0.000002358756     0.000002832030     0.000002965656
      23        0.000000206920     0.000001491496    -0.000001820511
      24        0.000010880518    -0.000005443025     0.000000008817
      25       -0.000000541337    -0.000002127488    -0.000001323899

  **** Optimization is complete! (in 12 steps) ****
    Final optimized geometry and variables:
    Molecular point group: c1

    Geometry (in Angstrom), charge = 0, multiplicity = 1:

    H           -2.776938713767    -1.048541055154    -1.250796926709
    C           -2.986972777755     0.019651702878    -1.129038106491
    C           -2.814293873734     0.577249182943     0.261243084293
    O           -3.328992257887     0.662018160623    -2.062087331666
    C           -1.339626522762     0.805879410541     0.645445294737
    H           -3.344859229632     1.519678574118     0.275948769129
    H           -3.280367070018    -0.111318386815     0.959626052614
    C           -0.364970711527    -0.293574262517     0.223735626067
    H           -1.015911194802     1.739235880459     0.196729594711
    H           -1.287742483380     0.948219720366     1.719181330195
    C            1.054193641975    -0.040560051730     0.726533542331
    H           -0.344895747944    -0.370876005918    -0.859319538555
    H           -0.708787501502    -1.256800794393     0.594837680943
    C            2.042933738499    -1.118622578148     0.286930084312
    H            1.382668171300     0.931807880833     0.373740932328
    H            1.044290369829     0.014680640758     1.812620543955
    C            3.459662028275    -0.953716640750     0.839767688308
    H            2.084559798577    -1.146071348012    -0.799480165998
    H            1.662399950555    -2.087233086661     0.599724888911
    C            4.204606716266     0.277395771114     0.329448860834
    H            4.032714436760    -1.838616077058     0.580915830208
    H            3.419718847607    -0.926736134516     1.925568267091
    H            4.253203845379     0.281394181201    -0.754746661193
    H            3.728964431094     1.199001379177     0.642425461946
    H            5.221440365932     0.293365504896     0.704545732227

  Mulliken Charges: (a.u.)
   Center  Symbol    Alpha    Beta     Spin     Total
       1     H     0.45968  0.45968  0.00000  0.08064
       2     C     2.90740  2.90740  0.00000  0.18519
       3     C     3.08975  3.08975  0.00000 -0.17949
       4     O     4.16724  4.16724  0.00000 -0.33448
       5     C     3.09915  3.09915  0.00000 -0.19831
       6     H     0.43931  0.43931  0.00000  0.12137
       7     H     0.44859  0.44859  0.00000  0.10282
       8     C     3.10322  3.10322  0.00000 -0.20643
       9     H     0.44584  0.44584  0.00000  0.10831
      10     H     0.44776  0.44776  0.00000  0.10448
      11     C     3.09269  3.09269  0.00000 -0.18537
      12     H     0.44692  0.44692  0.00000  0.10616
      13     H     0.45153  0.45153  0.00000  0.09693
      14     C     3.09524  3.09524  0.00000 -0.19048
      15     H     0.45028  0.45028  0.00000  0.09945
      16     H     0.45310  0.45310  0.00000  0.09379
      17     C     3.09098  3.09098  0.00000 -0.18195
      18     H     0.45257  0.45257  0.00000  0.09486
      19     H     0.44979  0.44979  0.00000  0.10043
      20     C     3.15249  3.15249  0.00000 -0.30498
      21     H     0.44784  0.44784  0.00000  0.10432
      22     H     0.45472  0.45472  0.00000  0.09057
      23     H     0.45409  0.45409  0.00000  0.09181
      24     H     0.45385  0.45385  0.00000  0.09230
      25     H     0.44597  0.44597  0.00000  0.10806

   Total alpha = 36.00000, Total beta = 36.00000, Total charge = -0.00000
