  ==> Input File <==

--------------------------------------------------------------------------
set {
	reference rhf
	basis 6-31G*
}

set_num_threads( 1 )
memory 2 gb

molecule MOL {
0 1

O	 3.700233	 -0.020112	 0.808823
C	 2.843464	 0.164689	 -0.000222
C	 1.546494	 -0.624492	 -0.000609
C	 2.997200	 1.207887	 -1.087999
C	 0.291004	 0.242674	 0.000989
H	 1.557904	 -1.283758	 -0.867573
H	 1.558622	 -1.285963	 0.864672
C	 -0.994322	 -0.586602	 0.000262
H	 0.309117	 0.896430	 -0.865270
H	 0.309661	 0.894078	 0.869017
C	 -2.259874	 0.272531	 0.000494
H	 -1.004862	 -1.240012	 -0.870939
H	 -1.005220	 -1.241071	 0.870675
C	 -3.549786	 -0.549746	 -0.000374
H	 -2.250389	 0.926680	 -0.869574
H	 -2.250838	 0.925513	 0.871430
C	 -4.809590	 0.315458	 -0.000369
H	 -3.560515	 -1.202009	 -0.871156
H	 -3.561123	 -1.202955	 0.869711
H	 -4.844746	 0.956611	 -0.876632
H	 -5.706986	 -0.295590	 -0.001609
H	 -4.845960	 0.954827	 0.877144
H	 2.199508	 1.942226	 -1.024341
H	 3.952770	 1.703188	 -0.986032
H	 2.931598	 0.745152	 -2.068411

	symmetry c1
}
set optking {
	frozen_dihedral = ("
		9 5 8 12,
		15 11 8 12,
		15 11 14 18,
		9 5 3 6
	")
}

ee = energy('scf')
oeprop('DIPOLE', 'QUADRUPOLE', 'MULLIKEN_CHARGES')
f=open( 'psi4out.xyz', 'w' )
f.write( "25  " )
f.write( str(ee) + "\n" )
f.write( MOL.save_string_xyz() )
f.close()
--------------------------------------------------------------------------

    Molecular point group: c1

    Geometry (in Angstrom), charge = 0, multiplicity = 1:

       Center              X                  Y                   Z               Mass
    ------------   -----------------  -----------------  -----------------  -----------------
           O          3.734406582146    -0.076290596783     0.841820836426    15.994914619560
           C          2.877637582146     0.108510403217     0.032775836426    12.000000000000
           C          1.580667582146    -0.680670596783     0.032388836426    12.000000000000
           C          3.031373582146     1.151708403217    -1.055001163574    12.000000000000
           C          0.325177582146     0.186495403217     0.033986836426    12.000000000000
           H          1.592077582146    -1.339936596783    -0.834575163574     1.007825032070
           H          1.592795582146    -1.342141596783     0.897669836426     1.007825032070
           C         -0.960148417854    -0.642780596783     0.033259836426    12.000000000000
           H          0.343290582146     0.840251403217    -0.832272163574     1.007825032070
           H          0.343834582146     0.837899403217     0.902014836426     1.007825032070
           C         -2.225700417854     0.216352403217     0.033491836426    12.000000000000
           H         -0.970688417854    -1.296190596783    -0.837941163574     1.007825032070
           H         -0.971046417854    -1.297249596783     0.903672836426     1.007825032070
           C         -3.515612417854    -0.605924596783     0.032623836426    12.000000000000
           H         -2.216215417854     0.870501403217    -0.836576163574     1.007825032070
           H         -2.216664417854     0.869334403217     0.904427836426     1.007825032070
           C         -4.775416417854     0.259279403217     0.032628836426    12.000000000000
           H         -3.526341417854    -1.258187596783    -0.838158163574     1.007825032070
           H         -3.526949417854    -1.259133596783     0.902708836426     1.007825032070
           H         -4.810572417854     0.900432403217    -0.843634163574     1.007825032070
           H         -5.672812417854    -0.351768596783     0.031388836426     1.007825032070
           H         -4.811786417854     0.898648403217     0.910141836426     1.007825032070
           H          2.233681582146     1.886047403217    -0.991343163574     1.007825032070
           H          3.986943582146     1.647009403217    -0.953034163574     1.007825032070
           H          2.965771582146     0.688973403217    -2.035413163574     1.007825032070

  Charge       = 0
  Multiplicity = 1
  Basis Set: 6-31G*
  Basis Set:

    Orbital Energies (a.u.)
    -----------------------

    Doubly Occupied:

       1A    -20.548595     2A    -11.324606     3A    -11.232026
       4A    -11.229597     5A    -11.226519     6A    -11.224848
       7A    -11.220650     8A    -11.220034     9A    -11.212589
      10A     -1.393373    11A     -1.102988    12A     -1.062832
      13A     -1.011308    14A     -0.970490    15A     -0.897335
      16A     -0.822786    17A     -0.797906    18A     -0.732473
      19A     -0.668039    20A     -0.648987    21A     -0.637640
      22A     -0.617085    23A     -0.604408    24A     -0.589146
      25A     -0.564873    26A     -0.559417    27A     -0.545723
      28A     -0.535985    29A     -0.512199    30A     -0.501580
      31A     -0.486731    32A     -0.479733    33A     -0.470106
      34A     -0.468849    35A     -0.458114    36A     -0.395926

  @DF-RHF Final Energy:  -387.13284887303632

   => Energetics <=

    Nuclear Repulsion Energy =            439.6103695262502242
    One-Electron Energy =               -1395.5354507626732357
    Two-Electron Energy =                 568.7922323633849828
    DFT Exchange-Correlation Energy =       0.0000000000000000
    Empirical Dispersion Energy =           0.0000000000000000
    PCM Polarization Energy =               0.0000000000000000
    EFP Energy =                            0.0000000000000000
    Total Energy =                       -387.1328488730380286

  Mulliken Charges: (a.u.)
   Center  Symbol    Alpha    Beta     Spin     Total
       1     O     4.26092  4.26092  0.00000 -0.52185
       2     C     2.73067  2.73067  0.00000  0.53867
       3     C     3.20653  3.20653  0.00000 -0.41305
       4     C     3.29265  3.29265  0.00000 -0.58529
       5     C     3.16532  3.16532  0.00000 -0.33063
       6     H     0.41118  0.41118  0.00000  0.17765
       7     H     0.40013  0.40013  0.00000  0.19975
       8     C     3.15206  3.15206  0.00000 -0.30412
       9     H     0.41877  0.41877  0.00000  0.16246
      10     H     0.41374  0.41374  0.00000  0.17252
      11     C     3.15146  3.15146  0.00000 -0.30291
      12     H     0.42194  0.42194  0.00000  0.15613
      13     H     0.41923  0.41923  0.00000  0.16155
      14     C     3.15205  3.15205  0.00000 -0.30411
      15     H     0.42377  0.42377  0.00000  0.15246
      16     H     0.42236  0.42236  0.00000  0.15529
      17     C     3.23958  3.23958  0.00000 -0.47916
      18     H     0.42271  0.42271  0.00000  0.15458
      19     H     0.42191  0.42191  0.00000  0.15617
      20     H     0.42164  0.42164  0.00000  0.15671
      21     H     0.41835  0.41835  0.00000  0.16330
      22     H     0.42111  0.42111  0.00000  0.15778
      23     H     0.40629  0.40629  0.00000  0.18742
      24     H     0.39639  0.39639  0.00000  0.20723
      25     H     0.40926  0.40926  0.00000  0.18147

   Total alpha = 36.00000, Total beta = 36.00000, Total charge = -0.00000
