  ==> Input File <==

--------------------------------------------------------------------------
set {
	reference rhf
	basis 6-31G*
}

set_num_threads( 4 )
memory 2 gb

molecule MOL {
0 1

H	 2.332609	 0.878551	 -1.051851
C	 2.357710	 0.000000	 -0.417167
C	 1.175432	 0.000000	 0.532082
H	 3.291263	 0.000000	 0.136880
H	 2.332609	 -0.878551	 -1.051851
O	 0.000000	 0.000000	 -0.221444
H	 1.206604	 0.877321	 1.177902
H	 1.206604	 -0.877321	 1.177902
C	 -1.175432	 0.000000	 0.532082
C	 -1.958265	 -1.256842	 0.205930
H	 -1.767100	 0.886264	 0.303579
H	 -0.938977	 0.035239	 1.595376
H	 -2.203067	 -1.286152	 -0.849777
H	 -2.881425	 -1.289545	 0.776190
H	 -1.373783	 -2.138369	 0.443830

	symmetry c1
}
set optking {
	frozen_dihedral = ("
		11 9 6 3
	")
}

ee = optimize('scf')
oeprop('DIPOLE', 'QUADRUPOLE', 'MULLIKEN_CHARGES')
f=open( 'psi4out.xyz', 'w' )
f.write( "15  " )
f.write( str(ee) + "\n" )
f.write( MOL.save_string_xyz() )
f.close()
--------------------------------------------------------------------------

    Molecular point group: c1
  Charge       = 0
  Multiplicity = 1
  Basis Set: 6-31G*
  Basis Set:
  @DF-RHF Final Energy:  -232.14038873103686
    Total Energy =                       -232.1403887310367509
    Molecular point group: c1
  Basis Set: 6-31G*
  Basis Set:
  Basis Set: 6-31G*
  Basis Set:
  @DF-RHF Final Energy:  -232.14079744336158
    Total Energy =                       -232.1407974433615209
  Basis Set: 6-31G*
  Basis Set:
  Basis Set: 6-31G*
  Basis Set:
  @DF-RHF Final Energy:  -232.14090433626734
    Total Energy =                       -232.1409043362673401
  Basis Set: 6-31G*
  Basis Set:
  Charge       = 0
  Multiplicity = 1
  Basis Set: 6-31G*
  Basis Set:

    Orbital Energies (a.u.)
    -----------------------

    Doubly Occupied:

       1A    -20.547810     2A    -11.269031     3A    -11.267738
       4A    -11.208682     5A    -11.208468     6A     -1.372713
       7A     -1.042337     8A     -0.983313     9A     -0.852355
      10A     -0.821989    11A     -0.670317    12A     -0.659654
      13A     -0.629746    14A     -0.576065    15A     -0.551110
      16A     -0.537788    17A     -0.522441    18A     -0.500286
      19A     -0.485935    20A     -0.462024    21A     -0.404258

  @DF-RHF Final Energy:  -232.14090572200254

   => Energetics <=

    Nuclear Repulsion Energy =            191.4721428154792591
    One-Electron Energy =                -694.0779772317307561
    Two-Electron Energy =                 270.4649286942490676
    DFT Exchange-Correlation Energy =       0.0000000000000000
    Empirical Dispersion Energy =           0.0000000000000000
    PCM Polarization Energy =               0.0000000000000000
    EFP Energy =                            0.0000000000000000
    Total Energy =                       -232.1409057220024010
    Molecular point group: c1
  Basis Set: 6-31G*
  Basis Set:

  -Total Gradient:
     Atom            X                  Y                   Z
    ------   -----------------  -----------------  -----------------
       1       -0.000011608158    -0.000013388920     0.000019978358
       2        0.000016149506    -0.000023489311     0.000011401164
       3        0.000050658325    -0.000008655592    -0.000041681022
       4        0.000038667600     0.000000290033    -0.000003840834
       5        0.000001258002     0.000005272089     0.000000072907
       6       -0.000060541099     0.000050498899     0.000002645774
       7       -0.000005586295    -0.000009299543     0.000013430052
       8       -0.000024767131     0.000012398552    -0.000036601018
       9        0.000128669333    -0.000009682090     0.000036622591
      10       -0.000040546960     0.000044289095     0.000012847433
      11       -0.000074552874    -0.000088988723    -0.000047184656
      12       -0.000047794225    -0.000003178712     0.000035109571
      13        0.000008182588     0.000003033652    -0.000012832239
      14        0.000001637828     0.000004171160    -0.000000873230
      15        0.000020173558     0.000036729410     0.000010905152

  **** Optimization is complete! (in 4 steps) ****
    Final optimized geometry and variables:
    Molecular point group: c1

    Geometry (in Angstrom), charge = 0, multiplicity = 1:

    H            2.245787673263     1.132979982156    -1.198719837354
    C            2.280511265060     0.258356022485    -0.559101144905
    C            1.114415391987     0.267075726011     0.409560506781
    H            3.223496100570     0.260154699069    -0.020855591691
    H            2.242593658541    -0.623969323749    -1.187937091737
    O           -0.072500367722     0.266678779030    -0.328756720135
    H            1.161394983575     1.147671080149     1.048798778380
    H            1.156251951045    -0.606912987501     1.058522068557
    C           -1.264664930335     0.236246956053     0.410355205041
    C           -2.063067426253    -1.010650331871     0.069101754095
    H           -1.837781379745     1.126669114520     0.170214465305
    H           -1.054345659127     0.266508700744     1.476265520665
    H           -2.270487869624    -1.044180405108    -0.994602681113
    H           -3.008109852980    -1.021702586334     0.604653210327
    H           -1.508237181646    -1.905141507547     0.333011765828

  Mulliken Charges: (a.u.)
   Center  Symbol    Alpha    Beta     Spin     Total
       1     H     0.41312  0.41312  0.00000  0.17376
       2     C     3.24446  3.24446  0.00000 -0.48893
       3     C     2.98824  2.98824  0.00000  0.02353
       4     H     0.42280  0.42280  0.00000  0.15440
       5     H     0.41360  0.41360  0.00000  0.17279
       6     O     4.31233  4.31233  0.00000 -0.62466
       7     H     0.43152  0.43152  0.00000  0.13696
       8     H     0.43270  0.43270  0.00000  0.13459
       9     C     2.99009  2.99009  0.00000  0.01982
      10     C     3.24242  3.24242  0.00000 -0.48484
      11     H     0.42207  0.42207  0.00000  0.15585
      12     H     0.43058  0.43058  0.00000  0.13885
      13     H     0.41272  0.41272  0.00000  0.17456
      14     H     0.42435  0.42435  0.00000  0.15130
      15     H     0.41899  0.41899  0.00000  0.16203

   Total alpha = 21.00000, Total beta = 21.00000, Total charge =  0.00000
