  ==> Input File <==

--------------------------------------------------------------------------
set {
	reference rhf
	basis cc-pvtz
}

set_num_threads( 4 )
memory 2 gb

molecule MOL {
0 1

H	 2.796236	 -0.366994	 -1.009725
N	 2.433987	 -0.362316	 -0.080024
C	 1.263552	 0.494993	 0.021953
H	 3.164979	 -0.040194	 0.519329
C	 -0.016533	 -0.325589	 -0.026925
H	 1.280915	 1.180773	 -0.818522
H	 1.263064	 1.106893	 0.925038
C	 -1.280353	 0.525521	 0.047747
H	 -0.016686	 -0.912532	 -0.939714
H	 -0.014099	 -1.037598	 0.796369
C	 -2.560681	 -0.301323	 -0.007747
H	 -1.279957	 1.241025	 -0.770189
H	 -1.270445	 1.110526	 0.963468
H	 -2.617064	 -0.872870	 -0.928010
H	 -3.439525	 0.331102	 0.043462
H	 -2.609427	 -1.002736	 0.818585

	symmetry c1
}
set optking {
	frozen_dihedral = ("
		1 2 3 6
	")
}

ee = optimize('scf')
oeprop('DIPOLE', 'QUADRUPOLE', 'MULLIKEN_CHARGES')
f=open( 'psi4out.xyz', 'w' )
f.write( "16  " )
f.write( str(ee) + "\n" )
f.write( MOL.save_string_xyz() )
f.close()
--------------------------------------------------------------------------

    Molecular point group: c1
  Charge       = 0
  Multiplicity = 1
  Basis Set: CC-PVTZ
  Basis Set:
  @DF-RHF Final Energy:  -212.39687285610410
    Total Energy =                       -212.3968728561042667
    Molecular point group: c1
  Basis Set: CC-PVTZ
  Basis Set:
  Basis Set: CC-PVTZ
  Basis Set:
  @DF-RHF Final Energy:  -212.39787409185917
    Total Energy =                       -212.3978740918593076
  Basis Set: CC-PVTZ
  Basis Set:
  Basis Set: CC-PVTZ
  Basis Set:
  @DF-RHF Final Energy:  -212.39806722380604
    Total Energy =                       -212.3980672238060947
  Basis Set: CC-PVTZ
  Basis Set:
  Basis Set: CC-PVTZ
  Basis Set:
  @DF-RHF Final Energy:  -212.39807036208515
    Total Energy =                       -212.3980703620852637
  Basis Set: CC-PVTZ
  Basis Set:
  Charge       = 0
  Multiplicity = 1
  Basis Set: CC-PVTZ
  Basis Set:

    Orbital Energies (a.u.)
    -----------------------

    Doubly Occupied:

       1A    -15.526415     2A    -11.239003     3A    -11.210552
       4A    -11.204073     5A    -11.202524     6A     -1.176257
       7A     -1.058766     8A     -0.959065     9A     -0.842977
      10A     -0.787789    11A     -0.675470    12A     -0.624982
      13A     -0.610959    14A     -0.577366    15A     -0.553691
      16A     -0.532044    17A     -0.490364    18A     -0.474373
      19A     -0.465921    20A     -0.459609    21A     -0.382190

  @DF-RHF Final Energy:  -212.39807114825851

   => Energetics <=

    Nuclear Repulsion Energy =            186.1620366453853421
    One-Electron Energy =                -655.0114352247333045
    Two-Electron Energy =                 256.4513274310896236
    DFT Exchange-Correlation Energy =       0.0000000000000000
    Empirical Dispersion Energy =           0.0000000000000000
    PCM Polarization Energy =               0.0000000000000000
    EFP Energy =                            0.0000000000000000
    Total Energy =                       -212.3980711482583388
    Molecular point group: c1
  Basis Set: CC-PVTZ
  Basis Set:

  -Total Gradient:
     Atom            X                  Y                   Z
    ------   -----------------  -----------------  -----------------
       1        0.001308383890     0.001776439603     0.000577445591
       2       -0.001944921974    -0.002560322594    -0.001064256645
       3        0.001687760283     0.002126634774     0.001622981487
       4        0.000007015603    -0.000012765741     0.000011294137
       5        0.000029918013     0.000027242619     0.000023796667
       6       -0.001055365788    -0.001365634138    -0.001196602475
       7       -0.000029591769    -0.000001085858     0.000006454312
       8       -0.000001557185     0.000001012172     0.000006288871
       9        0.000015548638     0.000015664482     0.000007414729
      10       -0.000003444159    -0.000006839702     0.000007111916
      11       -0.000009588118     0.000005373966    -0.000001517617
      12        0.000005277015    -0.000001731830     0.000005572267
      13       -0.000004562959    -0.000002923211    -0.000000785594
      14        0.000001422216    -0.000001200493    -0.000000158482
      15       -0.000006773824    -0.000003688307    -0.000004513669
      16        0.000000480117     0.000003824260    -0.000000525494

  **** Optimization is complete! (in 5 steps) ****
    Final optimized geometry and variables:
    Molecular point group: c1

    Geometry (in Angstrom), charge = 0, multiplicity = 1:

    H            2.833060204181    -0.365429735443    -0.972980947166
    N            2.442013291307    -0.367290097733    -0.055912951436
    C            1.260140457132     0.487622544843     0.022275688280
    H            3.158874784694    -0.047575244315     0.558184394388
    C           -0.023465762884    -0.332292437765    -0.016414432435
    H            1.234616063440     1.211372982251    -0.789831237070
    H            1.293250113761     1.054568739426     0.946223356236
    C           -1.285892640609     0.520806618804     0.055649102348
    H           -0.033145034138    -0.923758881757    -0.928485230655
    H           -0.005547944905    -1.041601951999     0.805099258862
    C           -2.567927007986    -0.304486041668     0.017291268723
    H           -1.291977409565     1.230362708359    -0.767878575626
    H           -1.269184890560     1.114094955154     0.966519161325
    H           -2.632338647075    -0.883383336373    -0.897989862659
    H           -3.446115914727     0.328907506712     0.070568694467
    H           -2.609782742646    -0.999481501139     0.849167648006

  Mulliken Charges: (a.u.)
   Center  Symbol    Alpha    Beta     Spin     Total
       1     H     0.42914  0.42914  0.00000  0.14172
       2     N     3.69305  3.69305  0.00000 -0.38611
       3     C     3.04335  3.04335  0.00000 -0.08671
       4     H     0.42656  0.42656  0.00000  0.14687
       5     C     3.06401  3.06401  0.00000 -0.12801
       6     H     0.46179  0.46179  0.00000  0.07642
       7     H     0.45651  0.45651  0.00000  0.08697
       8     C     3.09103  3.09103  0.00000 -0.18207
       9     H     0.45898  0.45898  0.00000  0.08205
      10     H     0.45424  0.45424  0.00000  0.09152
      11     C     3.14904  3.14904  0.00000 -0.29809
      12     H     0.45695  0.45695  0.00000  0.08610
      13     H     0.45655  0.45655  0.00000  0.08690
      14     H     0.45503  0.45503  0.00000  0.08994
      15     H     0.44930  0.44930  0.00000  0.10141
      16     H     0.45446  0.45446  0.00000  0.09108

   Total alpha = 21.00000, Total beta = 21.00000, Total charge = -0.00000
