  ==> Input File <==

--------------------------------------------------------------------------
set {
	reference rhf
	basis cc-pvtz
}

set_num_threads( 4 )
memory 2 gb

molecule MOL {
0 1

H	 3.290544	 -0.447647	 -0.039969
C	 2.233400	 -0.262387	 -0.030485
C	 1.565297	 -0.145304	 1.179168
C	 1.546935	 -0.142086	 -1.222043
H	 2.105693	 -0.240007	 2.101012
C	 0.209182	 0.092350	 1.195775
H	 2.066336	 -0.233109	 -2.156073
C	 0.184998	 0.096588	 -1.203750
H	 -0.324751	 0.185920	 2.120338
C	 -0.486398	 0.214248	 0.000000
H	 -0.355500	 0.191309	 -2.127365
C	 -1.946525	 0.470130	 0.000000
O	 -2.779618	 -0.371226	 0.000000
H	 -2.227127	 1.528393	 0.000000

	symmetry c1
}
set optking {
	frozen_dihedral = ("
		8 10 12 14
	")
}

ee = optimize('scf')
oeprop('DIPOLE', 'QUADRUPOLE', 'MULLIKEN_CHARGES')
f=open( 'psi4out.xyz', 'w' )
f.write( "14  " )
f.write( str(ee) + "\n" )
f.write( MOL.save_string_xyz() )
f.close()
--------------------------------------------------------------------------

    Molecular point group: c1
  Charge       = 0
  Multiplicity = 1
  Basis Set: CC-PVTZ
  Basis Set:
  @DF-RHF Final Energy:  -343.53662870196808
    Total Energy =                       -343.5366287019678566
    Molecular point group: c1
  Basis Set: CC-PVTZ
  Basis Set:
  Basis Set: CC-PVTZ
  Basis Set:
  @DF-RHF Final Energy:  -343.53701495312458
    Total Energy =                       -343.5370149531241282
  Basis Set: CC-PVTZ
  Basis Set:
  Basis Set: CC-PVTZ
  Basis Set:
  @DF-RHF Final Energy:  -343.53703043972774
    Total Energy =                       -343.5370304397279142
  Basis Set: CC-PVTZ
  Basis Set:
  Basis Set: CC-PVTZ
  Basis Set:
  @DF-RHF Final Energy:  -343.53699807457474
    Total Energy =                       -343.5369980745747398
  Basis Set: CC-PVTZ
  Basis Set:
  Charge       = 0
  Multiplicity = 1
  Basis Set: CC-PVTZ
  Basis Set:

    Orbital Energies (a.u.)
    -----------------------

    Doubly Occupied:

       1A    -20.564390     2A    -11.333192     3A    -11.251461
       4A    -11.245333     5A    -11.245191     6A    -11.242662
       7A    -11.242254     8A    -11.240314     9A     -1.418567
      10A     -1.174636    11A     -1.048997    12A     -1.033162
      13A     -0.890159    14A     -0.844820    15A     -0.798497
      16A     -0.725541    17A     -0.681286    18A     -0.656819
      19A     -0.647021    20A     -0.620619    21A     -0.603907
      22A     -0.539594    23A     -0.532410    24A     -0.518745
      25A     -0.505777    26A     -0.426171    27A     -0.352113
      28A     -0.351203

  @DF-RHF Final Energy:  -343.53703440959526

   => Energetics <=

    Nuclear Repulsion Energy =            323.0502165819770539
    One-Electron Energy =               -1105.7048251463536417
    Two-Electron Energy =                 439.1175741547813232
    DFT Exchange-Correlation Energy =       0.0000000000000000
    Empirical Dispersion Energy =           0.0000000000000000
    PCM Polarization Energy =               0.0000000000000000
    EFP Energy =                            0.0000000000000000
    Total Energy =                       -343.5370344095952078
    Molecular point group: c1
  Basis Set: CC-PVTZ
  Basis Set:

  -Total Gradient:
     Atom            X                  Y                   Z
    ------   -----------------  -----------------  -----------------
       1       -0.000011144895    -0.000004282761     0.000013869437
       2        0.000022686346    -0.000051091794    -0.000254941333
       3       -0.000167896753     0.000093970547     0.000126901687
       4        0.000224026090    -0.000009559317     0.000138183146
       5        0.000004762903    -0.000015793456     0.000006632842
       6        0.000070837622    -0.000035432188     0.000067553962
       7       -0.000017017762    -0.000001236301    -0.000029781366
       8       -0.000232979132     0.000163646251     0.000109522135
       9        0.000022352435    -0.000004195375    -0.000003463464
      10        0.000113101389    -0.000156073062    -0.000217936681
      11        0.000028048055    -0.000013750325     0.000001334485
      12       -0.000141786765     0.000067363446     0.000163672821
      13        0.000030943379     0.000003333359     0.000008632812
      14        0.000054067084    -0.000036899025    -0.000130180483

  **** Optimization is complete! (in 5 steps) ****
    Final optimized geometry and variables:
    Molecular point group: c1

    Geometry (in Angstrom), charge = 0, multiplicity = 1:

    H            3.300442167993    -0.439492036160    -0.023848075535
    C            2.243707544853    -0.253710272035    -0.015955859342
    C            1.570716244836    -0.135390644936     1.185610270749
    C            1.552963552002    -0.133590406380    -1.206477362465
    H            2.103211607876    -0.231257261039     2.112239182654
    C            0.209933204902     0.102920380234     1.197604940375
    H            2.071042833125    -0.227636448310    -2.141441118037
    C            0.191511218592     0.104478398231    -1.197538155724
    H           -0.310543545199     0.189310982379     2.132796362252
    C           -0.482832158058     0.218189752436     0.005039662040
    H           -0.343052494929     0.191535843906    -2.124648915835
    C           -1.958935119268     0.487172821938     0.016445894809
    O           -2.784146174227    -0.357260159299     0.012553563451
    H           -2.249467255345     1.543019888856     0.027492934525

  Mulliken Charges: (a.u.)
   Center  Symbol    Alpha    Beta     Spin     Total
       1     H     0.42090  0.42090  0.00000  0.15820
       2     C     3.08474  3.08474  0.00000 -0.16949
       3     C     3.06320  3.06320  0.00000 -0.12640
       4     C     3.06317  3.06317  0.00000 -0.12634
       5     H     0.42101  0.42101  0.00000  0.15799
       6     C     3.09887  3.09887  0.00000 -0.19774
       7     H     0.42101  0.42101  0.00000  0.15797
       8     C     3.09891  3.09891  0.00000 -0.19782
       9     H     0.42289  0.42289  0.00000  0.15423
      10     C     2.93626  2.93626  0.00000  0.12748
      11     H     0.42274  0.42274  0.00000  0.15451
      12     C     2.93323  2.93323  0.00000  0.13354
      13     O     4.15480  4.15480  0.00000 -0.30961
      14     H     0.45826  0.45826  0.00000  0.08348

   Total alpha = 28.00000, Total beta = 28.00000, Total charge = -0.00000
