                              Psi4 1.0.54 Driver

  ==> Input File <==

--------------------------------------------------------------------------
set {
	reference rhf
	basis cc-pvtz
}

set_num_threads( 4 )
memory 2 gb

molecule MOL {
0 1

H	 -3.162190	 0.493205	 -0.000107
C	 -2.363908	 -0.234727	 0.000005
O	 -1.158738	 0.454634	 -0.000087
H	 -2.464314	 -0.863616	 -0.882153
H	 -2.464327	 -0.863359	 0.882345
C	 -0.028611	 -0.359694	 0.000037
C	 1.212847	 0.509314	 -0.000053
H	 -0.034155	 -1.007047	 -0.877198
H	 -0.034195	 -1.006836	 0.877430
C	 2.336420	 -0.080469	 -0.845092
H	 0.945503	 1.493546	 -0.368483
H	 1.544235	 0.638300	 1.024396
H	 2.033731	 -0.195526	 -1.880576
H	 3.209797	 0.559786	 -0.827576
H	 2.636665	 -1.056339	 -0.478217

	symmetry c1
}
set optking {
	frozen_dihedral = ("
		11 7 6 8
	")
}

ee,wfn = optimize('scf', return_wfn=True)
oeprop( wfn, 'DIPOLE', 'QUADRUPOLE', 'MULLIKEN_CHARGES')
f=open( 'psi4out.xyz', 'w' )
f.write( "15  " )
f.write( str(ee) + "\n" )
f.write( MOL.save_string_xyz() )
f.close()
--------------------------------------------------------------------------

    Molecular point group: c1
  Charge       = 0
  Multiplicity = 1
  Basis Set: CC-PVTZ
  Basis Set:
  @DF-RHF Final Energy:  -232.22404570904058
    Total Energy =                       -232.2240457090404675
    Molecular point group: c1
  Basis Set: CC-PVTZ
  Basis Set:
  Basis Set: CC-PVTZ
  Basis Set:
  @DF-RHF Final Energy:  -232.22437929325014
    Total Energy =                       -232.2243792932501378
  Basis Set: CC-PVTZ
  Basis Set:
  Basis Set: CC-PVTZ
  Basis Set:
  @DF-RHF Final Energy:  -232.22447013148494
    Total Energy =                       -232.2244701314849635
  Basis Set: CC-PVTZ
  Basis Set:
  Basis Set: CC-PVTZ
  Basis Set:
  @DF-RHF Final Energy:  -232.22447302241966
    Total Energy =                       -232.2244730224194882
  Basis Set: CC-PVTZ
  Basis Set:
  Charge       = 0
  Multiplicity = 1
  Basis Set: CC-PVTZ
  Basis Set:

    Orbital Energies (a.u.)
    -----------------------

    Doubly Occupied:

       1A    -20.548584     2A    -11.264519     3A    -11.261949
       4A    -11.212458     5A    -11.210320     6A     -1.382516
       7A     -1.056131     8A     -0.956106     9A     -0.878450
      10A     -0.810131    11A     -0.673811    12A     -0.658328
      13A     -0.633676    14A     -0.601835    15A     -0.568086
      16A     -0.543854    17A     -0.500644    18A     -0.491260
      19A     -0.476823    20A     -0.462860    21A     -0.414817

  @DF-RHF Final Energy:  -232.22447341830630

   => Energetics <=

    Nuclear Repulsion Energy =            189.9014065630161383
    One-Electron Energy =                -691.0374427565416227
    Two-Electron Energy =                 268.9115627752191813
    DFT Exchange-Correlation Energy =       0.0000000000000000
    Empirical Dispersion Energy =           0.0000000000000000
    PCM Polarization Energy =               0.0000000000000000
    EFP Energy =                            0.0000000000000000
    Total Energy =                       -232.2244734183062747
    Molecular point group: c1
  Basis Set: CC-PVTZ
  Basis Set:

  -Total Gradient:
     Atom            X                  Y                   Z
    ------   -----------------  -----------------  -----------------
       1       -0.000011218186    -0.000004593614    -0.000002929019
       2       -0.000001152651    -0.000003079466     0.000004856530
       3        0.000012377874    -0.000004872583     0.000000902323
       4       -0.000009579699     0.000000925874     0.000000499738
       5       -0.000009001629     0.000000591543    -0.000002311280
       6       -0.002785744674     0.004198770206    -0.001955096533
       7        0.001701471398    -0.002382179757    -0.004462358845
       8        0.002114970003    -0.003126809258     0.002300627824
       9       -0.000028902445     0.000014293320     0.000005132687
      10        0.000001257024     0.000021825529    -0.000012979082
      11       -0.000957414851     0.001294217159     0.004095199182
      12       -0.000012614046    -0.000011353697     0.000009722237
      13        0.000002747084     0.000000404662     0.000010955004
      14       -0.000001694487    -0.000001798636     0.000002898748
      15       -0.000015500716     0.000003658720     0.000004880486

  **** Optimization is complete! (in 5 steps) ****
    Final optimized geometry and variables:
    Molecular point group: c1

    Geometry (in Angstrom), charge = 0, multiplicity = 1:

    H           -3.143414995517     0.440073858424     0.208554778754
    C           -2.342031480158    -0.284517207812     0.202011065044
    O           -1.140362757034     0.409387037938     0.155279663664
    H           -2.463055450091    -0.931750249418    -0.664219979809
    H           -2.415588085637    -0.895612355181     1.099144787434
    C           -0.008843524614    -0.401251718921     0.130945304402
    C            1.247554217851     0.464328675806     0.153066546708
    H           -0.012308301886    -1.047359986897    -0.747061062394
    H           -0.016657679214    -1.070044606384     0.991761951065
    C            2.405379572618    -0.131465696479    -0.637305241948
    H            0.982009451214     1.447432042709    -0.216038328553
    H            1.553598461553     0.616968629053     1.183058035045
    H            2.156676635741    -0.220996836039    -1.689101617290
    H            3.290920604635     0.487299250629    -0.555703313569
    H            2.662812956813    -1.121288466608    -0.273503460601

  Mulliken Charges: (a.u.)
   Center  Symbol    Alpha    Beta     Spin     Total
       1     H     0.44685  0.44685  0.00000  0.10631
       2     C     3.03047  3.03047  0.00000 -0.06095
       3     O     4.17113  4.17113  0.00000 -0.34225
       4     H     0.47272  0.47272  0.00000  0.05455
       5     H     0.47164  0.47164  0.00000  0.05672
       6     C     2.95907  2.95907  0.00000  0.08185
       7     C     3.08457  3.08457  0.00000 -0.16915
       8     H     0.47621  0.47621  0.00000  0.04759
       9     H     0.47545  0.47545  0.00000  0.04910
      10     C     3.15338  3.15338  0.00000 -0.30676
      11     H     0.44637  0.44637  0.00000  0.10725
      12     H     0.45433  0.45433  0.00000  0.09134
      13     H     0.45395  0.45395  0.00000  0.09211
      14     H     0.44769  0.44769  0.00000  0.10462
      15     H     0.45617  0.45617  0.00000  0.08767

   Total alpha = 21.00000, Total beta = 21.00000, Total charge =  0.00000

*** Psi4 exiting successfully. Buy a developer a beer!
