                              Psi4 1.0.54 Driver

  ==> Input File <==

--------------------------------------------------------------------------
set {
	reference rhf
	basis cc-pvtz
}

set_num_threads( 4 )
memory 2 gb

molecule MOL {
0 1

H	 -4.024094	 -0.454727	 0.000004
C	 -2.962215	 -0.297920	 0.000004
C	 -2.454736	 0.988978	 0.000025
C	 -2.105837	 -1.382632	 -0.000016
H	 -3.120052	 1.830438	 0.000041
C	 -1.090106	 1.189676	 0.000026
H	 -2.500390	 -2.380229	 -0.000033
C	 -0.739175	 -1.183302	 -0.000016
H	 -0.680214	 2.179144	 0.000042
C	 -0.227341	 0.104540	 0.000006
H	 -0.073209	 -2.021168	 -0.000032
C	 1.238974	 0.374429	 0.000004
O	 1.638678	 1.065154	 -1.051244
O	 1.976656	 0.009423	 0.853101
C	 3.016918	 1.369418	 -1.137498
H	 3.328354	 1.962679	 -0.291079
H	 3.139661	 1.928344	 -2.050803
H	 3.604106	 0.464166	 -1.171049

	symmetry c1
}
set optking {
	frozen_dihedral = ("
		13 12 10 6
	")
}

ee,wfn = optimize('scf', return_wfn=True)
oeprop( wfn, 'DIPOLE', 'QUADRUPOLE', 'MULLIKEN_CHARGES')
f=open( 'psi4out.xyz', 'w' )
f.write( "18  " )
f.write( str(ee) + "\n" )
f.write( MOL.save_string_xyz() )
f.close()
--------------------------------------------------------------------------

    Molecular point group: c1
  Charge       = 0
  Multiplicity = 1
  Basis Set: CC-PVTZ
  Basis Set:
  @DF-RHF Final Energy:  -457.50160569553532
    Total Energy =                       -457.5016056955356589
    Molecular point group: c1
  Basis Set: CC-PVTZ
  Basis Set:
  Basis Set: CC-PVTZ
  Basis Set:
  @DF-RHF Final Energy:  -457.50218304008575
    Total Energy =                       -457.5021830400858107
  Basis Set: CC-PVTZ
  Basis Set:
  Basis Set: CC-PVTZ
  Basis Set:
  @DF-RHF Final Energy:  -457.50105344127985
    Total Energy =                       -457.5010534412796233
  Basis Set: CC-PVTZ
  Basis Set:
  Basis Set: CC-PVTZ
  Basis Set:
  @DF-RHF Final Energy:  -457.50269263093895
    Total Energy =                       -457.5026926309386681
  Basis Set: CC-PVTZ
  Basis Set:
  Basis Set: CC-PVTZ
  Basis Set:
  @DF-RHF Final Energy:  -457.50272146537367
    Total Energy =                       -457.5027214653732699
  Basis Set: CC-PVTZ
  Basis Set:
  Charge       = 0
  Multiplicity = 1
  Basis Set: CC-PVTZ
  Basis Set:

    Orbital Energies (a.u.)
    -----------------------

    Doubly Occupied:

       1A    -20.603253     2A    -20.539258     3A    -11.373707
       4A    -11.282088     5A    -11.248717     6A    -11.242613
       7A    -11.241043     8A    -11.239623     9A    -11.237406
      10A    -11.236778    11A     -1.478991    12A     -1.371715
      13A     -1.171581    14A     -1.052327    15A     -1.029566
      16A     -0.982095    17A     -0.862835    18A     -0.841384
      19A     -0.783252    20A     -0.742698    21A     -0.688383
      22A     -0.683687    23A     -0.681110    24A     -0.634704
      25A     -0.632493    26A     -0.600309    27A     -0.593354
      28A     -0.555227    29A     -0.537779    30A     -0.521134
      31A     -0.511529    32A     -0.504824    33A     -0.464510
      34A     -0.450247    35A     -0.348134    36A     -0.347061

  @DF-RHF Final Energy:  -457.50272383472770

   => Energetics <=

    Nuclear Repulsion Energy =            493.0141774286740883
    One-Electron Energy =               -1600.4029725417967711
    Two-Electron Energy =                 649.8860712783944109
    DFT Exchange-Correlation Energy =       0.0000000000000000
    Empirical Dispersion Energy =           0.0000000000000000
    PCM Polarization Energy =               0.0000000000000000
    EFP Energy =                            0.0000000000000000
    Total Energy =                       -457.5027238347283856
    Molecular point group: c1
  Basis Set: CC-PVTZ
  Basis Set:

  -Total Gradient:
     Atom            X                  Y                   Z
    ------   -----------------  -----------------  -----------------
       1        0.000017138723     0.000004543539     0.000014709509
       2       -0.000003943935    -0.000125030007    -0.000043397447
       3        0.000132038417     0.000066084604     0.000027669946
       4       -0.000128715268     0.000071628533    -0.000015255853
       5       -0.000002529378    -0.000012460594    -0.000005709194
       6       -0.000346217158    -0.000497066367     0.005046995598
       7        0.000011946655     0.000011222981     0.000003244650
       8        0.000128377920     0.000162467337     0.000046980108
       9        0.000008256548    -0.000006802394     0.000000190004
      10        0.000429889564    -0.000784317421    -0.008397079716
      11        0.000000208055    -0.000004021279    -0.000010512041
      12       -0.000790440531     0.005137407574     0.006124693715
      13        0.000346875961    -0.004076715756    -0.002758513630
      14        0.000023964137     0.000027753628    -0.000000245298
      15        0.000203739274     0.000011348286    -0.000022222528
      16       -0.000023469330    -0.000016393098    -0.000031953154
      17        0.000010589247    -0.000005317985     0.000017707236
      18       -0.000017708902     0.000035668418     0.000002698098

  **** Optimization is complete! (in 6 steps) ****
    Final optimized geometry and variables:
    Molecular point group: c1

    Geometry (in Angstrom), charge = 0, multiplicity = 1:

    H           -4.014633643824    -0.518724640791     0.139278341945
    C           -2.947836806669    -0.402983788512     0.125647011202
    C           -2.389105499154     0.859324508404     0.193480368484
    C           -2.132772131725    -1.516776492586     0.048797043893
    H           -3.019664483396     1.724255330636     0.267000984615
    C           -1.016442862174     1.009720534821     0.166249354899
    H           -2.564553053503    -2.497931915934     0.004280445696
    C           -0.759640310027    -1.369831834024     0.046491159312
    H           -0.581523540469     1.989585463292     0.206692356826
    C           -0.201225022696    -0.104701889572     0.079242983177
    H           -0.121797591551    -2.231588324707     0.021141565662
    C            1.286071828690     0.030054189304     0.150361145804
    O            1.768761948150     0.790477570392    -0.813325394259
    O            1.961089567479    -0.518331778649     0.952744692848
    C            3.168885998722     0.995707100578    -0.835134838903
    H            3.499913630893     1.460444565290     0.081597188626
    H            3.359701548592     1.644991974684    -1.673722588963
    H            3.686767305128     0.057130476418    -0.962881248255

  Mulliken Charges: (a.u.)
   Center  Symbol    Alpha    Beta     Spin     Total
       1     H     0.42126  0.42126  0.00000  0.15747
       2     C     3.08002  3.08002  0.00000 -0.16004
       3     C     3.06761  3.06761  0.00000 -0.13522
       4     C     3.06604  3.06604  0.00000 -0.13208
       5     H     0.42175  0.42175  0.00000  0.15650
       6     C     3.09283  3.09283  0.00000 -0.18567
       7     H     0.42136  0.42136  0.00000  0.15728
       8     C     3.09037  3.09037  0.00000 -0.18074
       9     H     0.42164  0.42164  0.00000  0.15672
      10     C     2.93555  2.93555  0.00000  0.12890
      11     H     0.41756  0.41756  0.00000  0.16487
      12     C     2.83531  2.83531  0.00000  0.32938
      13     O     4.14404  4.14404  0.00000 -0.28809
      14     O     4.19802  4.19802  0.00000 -0.39604
      15     C     3.03711  3.03711  0.00000 -0.07421
      16     H     0.45404  0.45404  0.00000  0.09193
      17     H     0.44323  0.44323  0.00000  0.11355
      18     H     0.45226  0.45226  0.00000  0.09548

   Total alpha = 36.00000, Total beta = 36.00000, Total charge =  0.00000

*** Psi4 exiting successfully. Buy a developer a beer!
