  ==> Input File <==

--------------------------------------------------------------------------
set {
	reference rhf
	basis 6-31G*
}

set_num_threads( 1 )
memory 2 gb

molecule MOL {
0 1

O	 0.074228	 1.262779	 -0.000085
C	 0.028650	 0.075053	 -0.000277
C	 -1.233602	 -0.752807	 0.000328
O	 1.109162	 -0.694619	 -0.000298
C	 -2.501530	 0.091881	 0.000126
H	 -1.193807	 -1.406641	 -0.865785
H	 -1.193516	 -1.405779	 0.867015
H	 -2.545121	 0.729328	 -0.874513
H	 -3.377167	 -0.548497	 0.000561
H	 -2.544818	 0.730135	 0.874258
C	 1.071460	 -1.855124	 -0.811097
H	 0.271121	 -2.510502	 -0.499088
H	 2.025808	 -2.339944	 -0.676810
H	 0.928998	 -1.589230	 -1.848631

	symmetry c1
}
set optking {
	frozen_dihedral = ("
		4 2 3 6
	")
}

ee = energy('scf')
oeprop('DIPOLE', 'QUADRUPOLE', 'MULLIKEN_CHARGES')
f=open( 'psi4out.xyz', 'w' )
f.write( "14  " )
f.write( str(ee) + "\n" )
f.write( MOL.save_string_xyz() )
f.close()
--------------------------------------------------------------------------

    Molecular point group: c1

    Geometry (in Angstrom), charge = 0, multiplicity = 1:

       Center              X                  Y                   Z               Mass
    ------------   -----------------  -----------------  -----------------  -----------------
           O          0.305683706309     1.587706921732     0.145099115222    15.994914619560
           C          0.260105706309     0.399980921732     0.144907115222    12.000000000000
           C         -1.002146293691    -0.427879078268     0.145512115222    12.000000000000
           O          1.340617706309    -0.369691078268     0.144886115222    15.994914619560
           C         -2.270074293691     0.416808921732     0.145310115222    12.000000000000
           H         -0.962351293691    -1.081713078268    -0.720600884778     1.007825032070
           H         -0.962060293691    -1.080851078268     1.012199115222     1.007825032070
           H         -2.313665293691     1.054255921732    -0.729328884778     1.007825032070
           H         -3.145711293691    -0.223569078268     0.145745115222     1.007825032070
           H         -2.313362293691     1.055062921732     1.019442115222     1.007825032070
           C          1.302915706309    -1.530196078268    -0.665912884778    12.000000000000
           H          0.502576706309    -2.185574078268    -0.353903884778     1.007825032070
           H          2.257263706309    -2.015016078268    -0.531625884778     1.007825032070
           H          1.160453706309    -1.264302078268    -1.703446884778     1.007825032070

  Charge       = 0
  Multiplicity = 1
  Basis Set: 6-31G*
  Basis Set:

    Orbital Energies (a.u.)
    -----------------------

    Doubly Occupied:

       1A    -20.600393     2A    -20.550218     3A    -11.375254
       4A    -11.298124     5A    -11.243705     6A    -11.220027
       7A     -1.467339     8A     -1.370619     9A     -1.064183
      10A     -0.988133    11A     -0.904446    12A     -0.767744
      13A     -0.706257    14A     -0.687128    15A     -0.678624
      16A     -0.630461    17A     -0.609146    18A     -0.564482
      19A     -0.550451    20A     -0.524277    21A     -0.515694
      22A     -0.494332    23A     -0.456740    24A     -0.433532

  @DF-RHF Final Energy:  -305.84615944849907

   => Energetics <=

    Nuclear Repulsion Energy =            249.6698645948020214
    One-Electron Energy =                -911.6293650287988157
    Two-Electron Energy =                 356.1133409854978709
    DFT Exchange-Correlation Energy =       0.0000000000000000
    Empirical Dispersion Energy =           0.0000000000000000
    PCM Polarization Energy =               0.0000000000000000
    EFP Energy =                            0.0000000000000000
    Total Energy =                       -305.8461594484989519

  Mulliken Charges: (a.u.)
   Center  Symbol    Alpha    Beta     Spin     Total
       1     O     4.26524  4.26524  0.00000 -0.53047
       2     C     2.60090  2.60090  0.00000  0.79821
       3     C     3.23462  3.23462  0.00000 -0.46924
       4     O     4.30046  4.30046  0.00000 -0.60093
       5     C     3.23574  3.23574  0.00000 -0.47149
       6     H     0.40318  0.40318  0.00000  0.19365
       7     H     0.39834  0.39834  0.00000  0.20333
       8     H     0.40940  0.40940  0.00000  0.18121
       9     H     0.41913  0.41913  0.00000  0.16174
      10     H     0.40768  0.40768  0.00000  0.18465
      11     C     3.10384  3.10384  0.00000 -0.20767
      12     H     0.41286  0.41286  0.00000  0.17428
      13     H     0.39751  0.39751  0.00000  0.20497
      14     H     0.41111  0.41111  0.00000  0.17777

   Total alpha = 24.00000, Total beta = 24.00000, Total charge = -0.00000
