  ==> Input File <==

--------------------------------------------------------------------------
set {
	reference rhf
	basis 6-31G*
}

set_num_threads( 4 )
memory 2 gb

molecule MOL {
0 1

H	 -1.007684	 0.717927	 -0.728984
N	 -0.712432	 0.000013	 -0.096310
C	 0.734192	 -0.000004	 0.040609
H	 -1.031775	 -0.870337	 -0.474951
H	 1.139899	 -0.873598	 -0.456463
H	 1.139939	 0.873831	 -0.456100
H	 1.096456	 -0.000300	 1.069655

	symmetry c1
}
set optking {
	frozen_dihedral = ("
		1 2 3 7
	")
}

ee = optimize('scf')
oeprop('DIPOLE', 'QUADRUPOLE', 'MULLIKEN_CHARGES')
f=open( 'psi4out.xyz', 'w' )
f.write( "7  " )
f.write( str(ee) + "\n" )
f.write( MOL.save_string_xyz() )
f.close()
--------------------------------------------------------------------------

    Molecular point group: c1
  Charge       = 0
  Multiplicity = 1
  Basis Set: 6-31G*
  Basis Set:
  @DF-RHF Final Energy:   -95.20491902951231
    Total Energy =                        -95.2049190295122685
    Molecular point group: c1
  Basis Set: 6-31G*
  Basis Set:
  Basis Set: 6-31G*
  Basis Set:
  @DF-RHF Final Energy:   -95.20612252187087
    Total Energy =                        -95.2061225218708529
  Basis Set: 6-31G*
  Basis Set:
  Basis Set: 6-31G*
  Basis Set:
  @DF-RHF Final Energy:   -95.20629236508091
    Total Energy =                        -95.2062923650809978
  Basis Set: 6-31G*
  Basis Set:
  Basis Set: 6-31G*
  Basis Set:
  @DF-RHF Final Energy:   -95.20629639550474
    Total Energy =                        -95.2062963955047366
  Basis Set: 6-31G*
  Basis Set:
  Charge       = 0
  Multiplicity = 1
  Basis Set: 6-31G*
  Basis Set:

    Orbital Energies (a.u.)
    -----------------------

    Doubly Occupied:

       1A    -15.531309     2A    -11.237255     3A     -1.166613
       4A     -0.897225     5A     -0.664836     6A     -0.599093
       7A     -0.560020     8A     -0.518238     9A     -0.377866

  @DF-RHF Final Energy:   -95.20629706278294

   => Energetics <=

    Nuclear Repulsion Energy =             42.2599859073925543
    One-Electron Energy =                -211.8276554792079196
    Two-Electron Energy =                  74.3613725090324067
    DFT Exchange-Correlation Energy =       0.0000000000000000
    Empirical Dispersion Energy =           0.0000000000000000
    PCM Polarization Energy =               0.0000000000000000
    EFP Energy =                            0.0000000000000000
    Total Energy =                        -95.2062970627829657
    Molecular point group: c1
  Basis Set: 6-31G*
  Basis Set:

  -Total Gradient:
     Atom            X                  Y                   Z
    ------   -----------------  -----------------  -----------------
       1       -0.000118777965     0.001238162534     0.001476461897
       2        0.000091446074    -0.001063965491    -0.001855131807
       3        0.000046302411    -0.001985948917     0.000405784412
       4        0.000025171577     0.000012423859     0.000001562879
       5       -0.000007644810     0.000020973940    -0.000001645112
       6       -0.000027403561     0.000004332901    -0.000008843429
       7       -0.000009093726     0.001774021174    -0.000018188840

  **** Optimization is complete! (in 5 steps) ****
    Final optimized geometry and variables:
    Molecular point group: c1

    Geometry (in Angstrom), charge = 0, multiplicity = 1:

    H           -1.034336540650     0.722590144264    -0.655942901587
    N           -0.719798031721     0.010932102031    -0.030266117075
    C            0.733345916990    -0.002694011578     0.088599407101
    H           -1.079287820994    -0.863539884067    -0.351820166071
    H            1.190050915684    -0.861872042812    -0.395419601330
    H            1.161164884375     0.886181050589    -0.363091623771
    H            1.031710337288    -0.003176588432     1.131864362837

  Mulliken Charges: (a.u.)
   Center  Symbol    Alpha    Beta     Spin     Total
       1     H     0.33066  0.33066  0.00000  0.33868
       2     N     3.92647  3.92647  0.00000 -0.85295
       3     C     3.14464  3.14464  0.00000 -0.28928
       4     H     0.33075  0.33075  0.00000  0.33850
       5     H     0.42717  0.42717  0.00000  0.14566
       6     H     0.42341  0.42341  0.00000  0.15317
       7     H     0.41689  0.41689  0.00000  0.16623

   Total alpha =  9.00000, Total beta =  9.00000, Total charge =  0.00000
