  ==> Input File <==

--------------------------------------------------------------------------
set {
	reference rhf
	basis 6-31G*
}

set_num_threads( 4 )
memory 2 gb

molecule MOL {
0 1

H	 3.295911	 -0.452750	 -0.000000
C	 2.236860	 -0.266116	 -0.000000
C	 1.766615	 1.041450	 0.000000
C	 1.350368	 -1.330123	 -0.000000
H	 2.461025	 1.862011	 0.000000
C	 0.407167	 1.284690	 0.000000
H	 1.717830	 -2.340180	 -0.000000
C	 -0.013220	 -1.084777	 -0.000000
H	 0.023449	 2.287642	 0.000000
C	 -0.488460	 0.219100	 0.000000
H	 -0.707315	 -1.907686	 -0.000000
C	 -1.949954	 0.470334	 0.000000
O	 -2.781584	 -0.381627	 0.000000
H	 -2.238022	 1.526388	 0.000000

	symmetry c1
}
set optking {
	frozen_dihedral = ("
		8 10 12 14
	")
}

ee = optimize('scf')
oeprop('DIPOLE', 'QUADRUPOLE', 'MULLIKEN_CHARGES')
f=open( 'psi4out.xyz', 'w' )
f.write( "14  " )
f.write( str(ee) + "\n" )
f.write( MOL.save_string_xyz() )
f.close()
--------------------------------------------------------------------------

    Molecular point group: c1
  Charge       = 0
  Multiplicity = 1
  Basis Set: 6-31G*
  Basis Set:
  @DF-RHF Final Energy:  -343.43276958823316
    Total Energy =                       -343.4327695882331000
    Molecular point group: c1
  Basis Set: 6-31G*
  Basis Set:
  Basis Set: 6-31G*
  Basis Set:
  @DF-RHF Final Energy:  -343.43293238259417
    Total Energy =                       -343.4329323825942311
  Basis Set: 6-31G*
  Basis Set:
  Basis Set: 6-31G*
  Basis Set:
  @DF-RHF Final Energy:  -343.43295041201458
    Total Energy =                       -343.4329504120143497
  Basis Set: 6-31G*
  Basis Set:
  Charge       = 0
  Multiplicity = 1
  Basis Set: 6-31G*
  Basis Set:

    Orbital Energies (a.u.)
    -----------------------

    Doubly Occupied:

       1A    -20.561791     2A    -11.331128     3A    -11.254378
       4A    -11.251573     5A    -11.247559     6A    -11.245708
       7A    -11.245189     8A    -11.243265     9A     -1.402506
      10A     -1.171235    11A     -1.047341    12A     -1.031612
      13A     -0.889396    14A     -0.844043    15A     -0.790653
      16A     -0.720807    17A     -0.677769    18A     -0.651467
      19A     -0.619084    20A     -0.614560    21A     -0.602325
      22A     -0.555452    23A     -0.526155    24A     -0.506572
      25A     -0.501133    26A     -0.421509    27A     -0.350178
      28A     -0.346765

  @DF-RHF Final Energy:  -343.43295348522565

   => Energetics <=

    Nuclear Repulsion Energy =            323.2248587028309430
    One-Electron Energy =               -1106.0133178247897376
    Two-Electron Energy =                 439.3555056367330280
    DFT Exchange-Correlation Energy =       0.0000000000000000
    Empirical Dispersion Energy =           0.0000000000000000
    PCM Polarization Energy =               0.0000000000000000
    EFP Energy =                            0.0000000000000000
    Total Energy =                       -343.4329534852257666
    Molecular point group: c1
  Basis Set: 6-31G*
  Basis Set:

  -Total Gradient:
     Atom            X                  Y                   Z
    ------   -----------------  -----------------  -----------------
       1       -0.000002494138    -0.000002188892     0.000000000000
       2       -0.000046296815    -0.000237688553    -0.000000000000
       3       -0.000087409550     0.000186383394    -0.000000000001
       4        0.000158285387     0.000164408162    -0.000000000000
       5        0.000009764439    -0.000024487350    -0.000000000000
       6        0.000017941006     0.000043297386     0.000000000001
       7       -0.000012362992    -0.000021550264    -0.000000000000
       8        0.000018005573     0.000084249030     0.000000000000
       9        0.000041051200    -0.000010616980     0.000000000000
      10       -0.000024720761    -0.000179705033     0.000000000009
      11       -0.000055864675    -0.000010032657    -0.000000000000
      12        0.000031262570     0.000063068890    -0.000000000027
      13       -0.000072010176    -0.000018928554     0.000000000010
      14        0.000024848937    -0.000036208578     0.000000000008

  **** Optimization is complete! (in 4 steps) ****
    Final optimized geometry and variables:
    Molecular point group: c1

    Geometry (in Angstrom), charge = 0, multiplicity = 1:

    H            3.300172842522    -0.434805829848     0.000000000007
    C            2.240857326555    -0.249529458067    -0.000000000001
    C            1.769856829096     1.052786316457    -0.000000000000
    C            1.353202205539    -1.318726191655    -0.000000000013
    H            2.459342682750     1.877290833989     0.000000000006
    C            0.404036425126     1.286417611564    -0.000000000011
    H            1.726527944587    -2.326780597028    -0.000000000019
    C           -0.007704893814    -1.084626057308    -0.000000000024
    H            0.032233902222     2.296761179154    -0.000000000015
    C           -0.486840965842     0.222372721354    -0.000000000020
    H           -0.710440521173    -1.896599692364    -0.000000000041
    C           -1.946510545429     0.484182944725    -0.000000000052
    O           -2.784613905782    -0.361420223574     0.000000000097
    H           -2.226778681341     1.542205635448    -0.000000000046

  Mulliken Charges: (a.u.)
   Center  Symbol    Alpha    Beta     Spin     Total
       1     H     0.39407  0.39407  0.00000  0.21186
       2     C     3.09105  3.09105  0.00000 -0.18210
       3     C     3.10458  3.10458  0.00000 -0.20916
       4     C     3.10436  3.10436  0.00000 -0.20873
       5     H     0.39464  0.39464  0.00000  0.21072
       6     C     3.10203  3.10203  0.00000 -0.20406
       7     H     0.39392  0.39392  0.00000  0.21217
       8     C     3.08760  3.08760  0.00000 -0.17521
       9     H     0.39239  0.39239  0.00000  0.21523
      10     C     3.05396  3.05396  0.00000 -0.10793
      11     H     0.37713  0.37713  0.00000  0.24574
      12     C     2.83195  2.83195  0.00000  0.33610
      13     O     4.24909  4.24909  0.00000 -0.49817
      14     H     0.42322  0.42322  0.00000  0.15356

   Total alpha = 28.00000, Total beta = 28.00000, Total charge = -0.00000
