                              Psi4 1.0.54 Driver

  ==> Input File <==

--------------------------------------------------------------------------
set {
	reference rhf
	basis cc-pvtz
}

set_num_threads( 4 )
memory 2 gb

molecule MOL {
0 1

H	 -2.644180	 -0.653737	 1.272255
C	 -2.092774	 -0.380414	 0.391915
O	 -0.808934	 -0.154049	 0.752536
F	 -2.163230	 -1.351640	 -0.507133
F	 -2.627232	 0.691260	 -0.169301
C	 0.085006	 0.250800	 -0.215074
C	 1.002213	 1.294600	 0.417768
Cl	 -0.754949	 0.946262	 -1.613768
H	 0.696785	 -0.556991	 -0.576803
F	 1.888966	 1.711615	 -0.449867
F	 1.645374	 0.745819	 1.421013
F	 0.341656	 2.324981	 0.869687

	symmetry c1
}
set optking {
	frozen_dihedral = ("
		9 6 3 2
	")
}

ee,wfn = optimize('scf', return_wfn=True)
oeprop( wfn, 'DIPOLE', 'QUADRUPOLE', 'MULLIKEN_CHARGES')
f=open( 'psi4out.xyz', 'w' )
f.write( "12  " )
f.write( str(ee) + "\n" )
f.write( MOL.save_string_xyz() )
f.close()
--------------------------------------------------------------------------

    Molecular point group: c1
  Charge       = 0
  Multiplicity = 1
  Basis Set: CC-PVTZ
  Basis Set:
  @DF-RHF Final Energy: -1146.59043372878727
    Total Energy =                      -1146.5904337287863655
    Molecular point group: c1
  Basis Set: CC-PVTZ
  Basis Set:
  Basis Set: CC-PVTZ
  Basis Set:
  @DF-RHF Final Energy: -1146.60544573861353
    Total Energy =                      -1146.6054457386130707
  Basis Set: CC-PVTZ
  Basis Set:
  Basis Set: CC-PVTZ
  Basis Set:
  @DF-RHF Final Energy: -1146.60943174830709
    Total Energy =                      -1146.6094317483066334
  Basis Set: CC-PVTZ
  Basis Set:
  Basis Set: CC-PVTZ
  Basis Set:
  @DF-RHF Final Energy: -1146.61108933162109
    Total Energy =                      -1146.6110893316208603
  Basis Set: CC-PVTZ
  Basis Set:
  @DF-RHF Final Energy: -1146.61137327349320
    Total Energy =                      -1146.6113732734938822
  @DF-RHF Final Energy: -1146.61140385276485
    Total Energy =                      -1146.6114038527646244
  Basis Set: CC-PVTZ
  Basis Set:
  @DF-RHF Final Energy: -1146.61139839887164
    Total Energy =                      -1146.6113983988716427
  Basis Set: CC-PVTZ
  Basis Set:
  Basis Set: CC-PVTZ
  Basis Set:
  @DF-RHF Final Energy: -1146.61143245190669
    Total Energy =                      -1146.6114324519066940
  Basis Set: CC-PVTZ
  Basis Set:
  Basis Set: CC-PVTZ
  Basis Set:
  @DF-RHF Final Energy: -1146.61143588278810
    Total Energy =                      -1146.6114358827881006
  Basis Set: CC-PVTZ
  Basis Set:
  Charge       = 0
  Multiplicity = 1
  Basis Set: CC-PVTZ
  Basis Set:

    Orbital Energies (a.u.)
    -----------------------

    Doubly Occupied:

       1A   -104.861408     2A    -26.353813     3A    -26.352233
       4A    -26.352126     5A    -26.336990     6A    -26.333306
       7A    -20.635169     8A    -11.518261     9A    -11.480066
      10A    -11.402493    11A    -10.586934    12A     -8.053766
      13A     -8.051720    14A     -8.051623    15A     -1.766582
      16A     -1.716494    17A     -1.661712    18A     -1.659758
      19A     -1.638526    20A     -1.477993    21A     -1.181615
      22A     -1.059482    23A     -0.987498    24A     -0.919860
      25A     -0.858251    26A     -0.854341    27A     -0.847824
      28A     -0.825908    29A     -0.812262    30A     -0.783951
      31A     -0.736594    32A     -0.729704    33A     -0.711320
      34A     -0.696792    35A     -0.685026    36A     -0.679601
      37A     -0.663556    38A     -0.662193    39A     -0.653826
      40A     -0.636890    41A     -0.595116    42A     -0.554250
      43A     -0.538308    44A     -0.480067    45A     -0.468728

  @DF-RHF Final Energy: -1146.61143712125522

   => Energetics <=

    Nuclear Repulsion Energy =            743.8149364936513166
    One-Electron Energy =               -3071.0248767046523426
    Two-Electron Energy =                1180.5985030897445540
    DFT Exchange-Correlation Energy =       0.0000000000000000
    Empirical Dispersion Energy =           0.0000000000000000
    PCM Polarization Energy =               0.0000000000000000
    EFP Energy =                            0.0000000000000000
    Total Energy =                      -1146.6114371212565857
    Molecular point group: c1
  Basis Set: CC-PVTZ
  Basis Set:

  -Total Gradient:
     Atom            X                  Y                   Z
    ------   -----------------  -----------------  -----------------
       1        0.000009885568    -0.000007572559    -0.000050721767
       2       -0.000757970937     0.003052103048     0.000563559003
       3        0.001758905780    -0.004618710968    -0.000398541554
       4        0.000021486276     0.000041304653     0.000075756922
       5        0.000028356726    -0.000026360290     0.000000911953
       6       -0.003526659049     0.000752378042    -0.002414555900
       7       -0.000018903892     0.000002227712    -0.000107817526
       8       -0.000015234977     0.000002067680    -0.000051136836
       9        0.002431616946     0.000734946259     0.002263954232
      10       -0.000014293781    -0.000008709920     0.000096111931
      11        0.000020751118     0.000067067928    -0.000019977856
      12        0.000062060196     0.000009258430     0.000042457375

  **** Optimization is complete! (in 10 steps) ****
    Final optimized geometry and variables:
    Molecular point group: c1

    Geometry (in Angstrom), charge = 0, multiplicity = 1:

    H           -2.042937655964    -1.484217025375     1.595322655264
    C           -1.723942885799    -1.053788088918     0.663290164411
    O           -0.404862236185    -0.781513430816     0.784808144440
    F           -1.948856727578    -1.908880349287    -0.321970886337
    F           -2.431072598766     0.031766981293     0.417567955397
    C            0.444334840412    -0.398168181667    -0.240341306554
    C            1.432137351568     0.586756800234     0.387935251767
    CL          -0.299054710374     0.337964740942    -1.665279275701
    H            1.015061709913    -1.247954758280    -0.575383994374
    F            2.355661087731     0.920010149153    -0.478517686037
    F            2.027331324884     0.012675552868     1.406674817728
    F            0.846424328815     1.671749112888     0.814370664929

  Mulliken Charges: (a.u.)
   Center  Symbol    Alpha    Beta     Spin     Total
       1     H     0.45139  0.45139  0.00000  0.09723
       2     C     2.73913  2.73913  0.00000  0.52174
       3     O     4.16443  4.16443  0.00000 -0.32886
       4     F     4.61791  4.61791  0.00000 -0.23582
       5     F     4.61159  4.61159  0.00000 -0.22318
       6     C     2.94304  2.94304  0.00000  0.11392
       7     C     2.67260  2.67260  0.00000  0.65479
       8    CL     8.56602  8.56602  0.00000 -0.13204
       9     H     0.42516  0.42516  0.00000  0.14967
      10     F     4.60299  4.60299  0.00000 -0.20599
      11     F     4.60498  4.60498  0.00000 -0.20995
      12     F     4.60076  4.60076  0.00000 -0.20151

   Total alpha = 45.00000, Total beta = 45.00000, Total charge = -0.00000

*** Psi4 exiting successfully. Buy a developer a beer!
