  ==> Input File <==

--------------------------------------------------------------------------
set {
	reference rhf
	basis 6-31G*
}

set_num_threads( 1 )
memory 2 gb

molecule MOL {
0 1

H	 2.176868	 -0.646004	 -0.217325
O	 1.337496	 -0.537251	 0.205931
C	 0.702312	 0.627605	 -0.264544
C	 -0.714990	 0.596302	 0.266387
H	 0.682322	 0.642550	 -1.350929
H	 1.215941	 1.520383	 0.085680
O	 -1.405996	 -0.526611	 -0.195820
H	 -1.257453	 1.468809	 -0.075599
H	 -0.688972	 0.618407	 1.353696
H	 -0.815018	 -1.022137	 -0.748280

	symmetry c1
}
set optking {
	frozen_dihedral = ("
		5 3 4 7
	")
}

ee = energy('scf')
oeprop('DIPOLE', 'QUADRUPOLE', 'MULLIKEN_CHARGES')
f=open( 'psi4out.xyz', 'w' )
f.write( "10  " )
f.write( str(ee) + "\n" )
f.write( MOL.save_string_xyz() )
f.close()
--------------------------------------------------------------------------

    Molecular point group: c1

    Geometry (in Angstrom), charge = 0, multiplicity = 1:

       Center              X                  Y                   Z               Mass
    ------------   -----------------  -----------------  -----------------  -----------------
           H          2.175640018793    -0.650400012187    -0.204810298568     1.007825032070
           O          1.336268018793    -0.541647012187     0.218445701432    15.994914619560
           C          0.701084018793     0.623208987813    -0.252029298568    12.000000000000
           C         -0.716217981207     0.591905987813     0.278901701432    12.000000000000
           H          0.681094018793     0.638153987813    -1.338414298568     1.007825032070
           H          1.214713018793     1.515986987813     0.098194701432     1.007825032070
           O         -1.407223981207    -0.531007012187    -0.183305298568    15.994914619560
           H         -1.258680981207     1.464412987813    -0.063084298568     1.007825032070
           H         -0.690199981207     0.614010987813     1.366210701432     1.007825032070
           H         -0.816245981207    -1.026533012187    -0.735765298568     1.007825032070

  Charge       = 0
  Multiplicity = 1
  Basis Set: 6-31G*
  Basis Set:

    Orbital Energies (a.u.)
    -----------------------

    Doubly Occupied:

       1A    -20.571064     2A    -20.546960     3A    -11.284010
       4A    -11.267897     5A     -1.384577     6A     -1.350902
       7A     -1.004085     8A     -0.849714     9A     -0.726204
      10A     -0.671122    11A     -0.661683    12A     -0.602396
      13A     -0.573248    14A     -0.547453    15A     -0.476606
      16A     -0.457742    17A     -0.433941

  @DF-RHF Final Energy:  -228.91881375565771

   => Energetics <=

    Nuclear Repulsion Energy =            134.7544393427100431
    One-Electron Energy =                -580.5273676850115407
    Two-Electron Energy =                 216.8541145866436182
    DFT Exchange-Correlation Energy =       0.0000000000000000
    Empirical Dispersion Energy =           0.0000000000000000
    PCM Polarization Energy =               0.0000000000000000
    EFP Energy =                            0.0000000000000000
    Total Energy =                       -228.9188137556578795

  Mulliken Charges: (a.u.)
   Center  Symbol    Alpha    Beta     Spin     Total
       1     H     0.27761  0.27761  0.00000  0.44478
       2     O     4.36883  4.36883  0.00000 -0.73766
       3     C     3.03683  3.03683  0.00000 -0.07365
       4     C     2.97710  2.97710  0.00000  0.04580
       5     H     0.42683  0.42683  0.00000  0.14635
       6     H     0.42162  0.42162  0.00000  0.15675
       7     O     4.37384  4.37384  0.00000 -0.74768
       8     H     0.42521  0.42521  0.00000  0.14957
       9     H     0.41746  0.41746  0.00000  0.16508
      10     H     0.27467  0.27467  0.00000  0.45066

   Total alpha = 17.00000, Total beta = 17.00000, Total charge = -0.00000
