  ==> Input File <==

--------------------------------------------------------------------------
set {
	reference rhf
	basis 6-31G*
}

set_num_threads( 4 )
memory 2 gb

molecule MOL {
0 1

H	 2.130342	 -1.388505	 0.405613
O	 1.535574	 -0.812977	 -0.053415
C	 0.997784	 0.125081	 0.844357
C	 0.031547	 1.023609	 0.088541
H	 1.788972	 0.734113	 1.277937
H	 0.491350	 -0.378654	 1.664648
C	 -1.134819	 0.293262	 -0.585751
H	 0.596362	 1.561216	 -0.667932
H	 -0.352060	 1.767880	 0.784331
C	 -1.917817	 -0.639439	 0.339494
H	 -0.758119	 -0.268455	 -1.433105
H	 -1.813832	 1.041889	 -0.986690
H	 -2.777680	 -1.057197	 -0.174994
H	 -1.310268	 -1.471279	 0.680599
H	 -2.283753	 -0.111424	 1.216626

	symmetry c1
}
set optking {
	frozen_dihedral = ("
		8 4 7 11
	")
}

ee = optimize('scf')
oeprop('DIPOLE', 'QUADRUPOLE', 'MULLIKEN_CHARGES')
f=open( 'psi4out.xyz', 'w' )
f.write( "15  " )
f.write( str(ee) + "\n" )
f.write( MOL.save_string_xyz() )
f.close()
--------------------------------------------------------------------------

    Molecular point group: c1
  Charge       = 0
  Multiplicity = 1
  Basis Set: 6-31G*
  Basis Set:
  @DF-RHF Final Energy:  -232.14342786655726
    Total Energy =                       -232.1434278665573743
    Molecular point group: c1
  Basis Set: 6-31G*
  Basis Set:
  Basis Set: 6-31G*
  Basis Set:
  @DF-RHF Final Energy:  -232.14338766342871
    Total Energy =                       -232.1433876634288822
  Basis Set: 6-31G*
  Basis Set:
  Basis Set: 6-31G*
  Basis Set:
  @DF-RHF Final Energy:  -232.14351842339684
    Total Energy =                       -232.1435184233965856
  Basis Set: 6-31G*
  Basis Set:
  Basis Set: 6-31G*
  Basis Set:
  @DF-RHF Final Energy:  -232.14352010010830
    Total Energy =                       -232.1435201001083328
  Basis Set: 6-31G*
  Basis Set:
  Charge       = 0
  Multiplicity = 1
  Basis Set: 6-31G*
  Basis Set:

    Orbital Energies (a.u.)
    -----------------------

    Doubly Occupied:

       1A    -20.553644     2A    -11.267150     3A    -11.212440
       4A    -11.208640     5A    -11.203687     6A     -1.360070
       7A     -1.063169     8A     -0.969359     9A     -0.869292
      10A     -0.772028    11A     -0.704432    12A     -0.648883
      13A     -0.607553    14A     -0.571481    15A     -0.562825
      16A     -0.530998    17A     -0.510961    18A     -0.473329
      19A     -0.464323    20A     -0.451411    21A     -0.431433

  @DF-RHF Final Energy:  -232.14352120981869

   => Energetics <=

    Nuclear Repulsion Energy =            192.6780390471839723
    One-Electron Energy =                -696.7689026765226572
    Two-Electron Energy =                 271.9473424195200550
    DFT Exchange-Correlation Energy =       0.0000000000000000
    Empirical Dispersion Energy =           0.0000000000000000
    PCM Polarization Energy =               0.0000000000000000
    EFP Energy =                            0.0000000000000000
    Total Energy =                       -232.1435212098186298
    Molecular point group: c1
  Basis Set: 6-31G*
  Basis Set:

  -Total Gradient:
     Atom            X                  Y                   Z
    ------   -----------------  -----------------  -----------------
       1       -0.000000748363    -0.000000078524    -0.000003150186
       2        0.000001620237    -0.000017894890    -0.000002482333
       3        0.000025691750     0.000009825934    -0.000006452918
       4       -0.001558340458     0.002371774161     0.000061268247
       5        0.000004110977    -0.000001192476     0.000013266004
       6       -0.000009068952     0.000011007920    -0.000007064178
       7        0.000660394437    -0.002352935111     0.001437462724
       8        0.001204067536    -0.001641793549    -0.000249118743
       9        0.000002117240     0.000011875170    -0.000008989516
      10        0.000007475133    -0.000000991559    -0.000010667647
      11       -0.000321714639     0.001610083675    -0.001225233813
      12       -0.000021023053    -0.000001776488     0.000001456732
      13        0.000004422909    -0.000002993534     0.000004572170
      14       -0.000000288138     0.000004708113    -0.000001382318
      15        0.000001283387     0.000000381161    -0.000003484225

  **** Optimization is complete! (in 5 steps) ****
    Final optimized geometry and variables:
    Molecular point group: c1

    Geometry (in Angstrom), charge = 0, multiplicity = 1:

    H            2.188053650404    -1.345027550452     0.257610089464
    O            1.581723806902    -0.775101090044    -0.193381560812
    C            1.064312489001     0.172823076528     0.706121666915
    C            0.085014861286     1.065551593158    -0.040242802925
    H            1.865073278263     0.784257992966     1.118428595274
    H            0.572639026811    -0.321597875619     1.540715570852
    C           -1.073179389463     0.324428978096    -0.719944057622
    H            0.647208621471     1.604375774770    -0.797664573111
    H           -0.302839205702     1.800913148937     0.661904508390
    C           -1.872827606603    -0.600443307633     0.197216910550
    H           -0.688362665747    -0.236527750820    -1.564403368236
    H           -1.744173043916     1.071979707250    -1.137477740211
    H           -2.735562863653    -1.003271611450    -0.324234974742
    H           -1.275502286757    -1.440430226348     0.534742102111
    H           -2.236882413621    -0.071914535378     1.075002524711

  Mulliken Charges: (a.u.)
   Center  Symbol    Alpha    Beta     Spin     Total
       1     H     0.28059  0.28059  0.00000  0.43882
       2     O     4.36988  4.36988  0.00000 -0.73976
       3     C     3.00022  3.00022  0.00000 -0.00044
       4     C     3.16107  3.16107  0.00000 -0.32215
       5     H     0.42906  0.42906  0.00000  0.14188
       6     H     0.43024  0.43024  0.00000  0.13951
       7     C     3.15044  3.15044  0.00000 -0.30089
       8     H     0.41474  0.41474  0.00000  0.17052
       9     H     0.42424  0.42424  0.00000  0.15153
      10     C     3.24458  3.24458  0.00000 -0.48916
      11     H     0.40955  0.40955  0.00000  0.18091
      12     H     0.42376  0.42376  0.00000  0.15249
      13     H     0.41929  0.41929  0.00000  0.16143
      14     H     0.41677  0.41677  0.00000  0.16645
      15     H     0.42557  0.42557  0.00000  0.14886

   Total alpha = 21.00000, Total beta = 21.00000, Total charge = -0.00000
