                              Psi4 1.0.54 Driver

  ==> Input File <==

--------------------------------------------------------------------------
set {
	reference rhf
	basis cc-pvtz
}

set_num_threads( 4 )
memory 2 gb

molecule MOL {
0 1

H	 -2.632585	 -0.065705	 2.293939
C	 -2.967087	 -0.337985	 1.283564
C	 -2.682174	 0.690670	 0.223100
O	 -3.514460	 -1.369430	 1.099684
C	 -1.216901	 1.136108	 0.207794
H	 -2.987874	 0.291222	 -0.735192
H	 -3.313939	 1.548001	 0.444824
C	 -0.247837	 0.040196	 -0.230469
H	 -1.124128	 1.986822	 -0.458552
H	 -0.939639	 1.495258	 1.195889
C	 1.181757	 0.280428	 0.247371
H	 -0.259600	 -0.030819	 -1.314870
H	 -0.591284	 -0.923375	 0.136958
C	 2.151032	 -0.811012	 -0.202643
H	 1.515939	 1.247397	 -0.115449
H	 1.191514	 0.341223	 1.333422
C	 3.580021	 -0.656538	 0.320835
H	 2.170545	 -0.847575	 -1.289412
H	 1.766632	 -1.772905	 0.124928
C	 4.327657	 0.562694	 -0.213579
H	 4.138806	 -1.549270	 0.057813
H	 3.561991	 -0.620783	 1.406976
H	 4.355973	 0.557257	 -1.298551
H	 3.867136	 1.491650	 0.100501
H	 5.351524	 0.571613	 0.142204

	symmetry c1
}
set optking {
	frozen_dihedral = ("
		3 5 8 12
	")
}

ee,wfn = optimize('scf', return_wfn=True)
oeprop( wfn, 'DIPOLE', 'QUADRUPOLE', 'MULLIKEN_CHARGES')
f=open( 'psi4out.xyz', 'w' )
f.write( "25  " )
f.write( str(ee) + "\n" )
f.write( MOL.save_string_xyz() )
f.close()
--------------------------------------------------------------------------

    Molecular point group: c1
  Charge       = 0
  Multiplicity = 1
  Basis Set: CC-PVTZ
  Basis Set:
  @DF-RHF Final Energy:  -387.25869769008682
    Total Energy =                       -387.2586976900867057
    Molecular point group: c1
  Basis Set: CC-PVTZ
  Basis Set:
  Basis Set: CC-PVTZ
  Basis Set:
  @DF-RHF Final Energy:  -387.25871304865115
    Total Energy =                       -387.2587130486510887
  Basis Set: CC-PVTZ
  Basis Set:
  Basis Set: CC-PVTZ
  Basis Set:
  @DF-RHF Final Energy:  -387.25883075344376
    Total Energy =                       -387.2588307534435899
  Basis Set: CC-PVTZ
  Basis Set:
  Basis Set: CC-PVTZ
  Basis Set:
  @DF-RHF Final Energy:  -387.25841225113760
    Total Energy =                       -387.2584122511375426
  Basis Set: CC-PVTZ
  Basis Set:
  Basis Set: CC-PVTZ
  Basis Set:
  @DF-RHF Final Energy:  -387.25889886873745
    Total Energy =                       -387.2588988687375604
  Basis Set: CC-PVTZ
  Basis Set:
  Basis Set: CC-PVTZ
  Basis Set:
  @DF-RHF Final Energy:  -387.25890067939639
    Total Energy =                       -387.2589006793962199
  Basis Set: CC-PVTZ
  Basis Set:
  Basis Set: CC-PVTZ
  Basis Set:
  @DF-RHF Final Energy:  -387.25890175965685
    Total Energy =                       -387.2589017596565100
  Basis Set: CC-PVTZ
  Basis Set:
  Charge       = 0
  Multiplicity = 1
  Basis Set: CC-PVTZ
  Basis Set:

    Orbital Energies (a.u.)
    -----------------------

    Doubly Occupied:

       1A    -20.552083     2A    -11.321354     3A    -11.233867
       4A    -11.232845     5A    -11.221240     6A    -11.217440
       7A    -11.215987     8A    -11.214678     9A    -11.208710
      10A     -1.407043    11A     -1.104702    12A     -1.070672
      13A     -1.014452    14A     -0.943228    15A     -0.875963
      16A     -0.819801    17A     -0.789977    18A     -0.781172
      19A     -0.668366    20A     -0.663250    21A     -0.637043
      22A     -0.625135    23A     -0.607865    24A     -0.590906
      25A     -0.575571    26A     -0.554652    27A     -0.534559
      28A     -0.527085    29A     -0.510219    30A     -0.498670
      31A     -0.489809    32A     -0.479023    33A     -0.464824
      34A     -0.458762    35A     -0.442099    36A     -0.412684

  @DF-RHF Final Energy:  -387.25890209755005

   => Energetics <=

    Nuclear Repulsion Energy =            440.8644240855559246
    One-Electron Energy =               -1398.3151832863161417
    Two-Electron Energy =                 570.1918571032103955
    DFT Exchange-Correlation Energy =       0.0000000000000000
    Empirical Dispersion Energy =           0.0000000000000000
    PCM Polarization Energy =               0.0000000000000000
    EFP Energy =                            0.0000000000000000
    Total Energy =                       -387.2589020975498215
    Molecular point group: c1
  Basis Set: CC-PVTZ
  Basis Set:

  -Total Gradient:
     Atom            X                  Y                   Z
    ------   -----------------  -----------------  -----------------
       1       -0.000001442400    -0.000012809896    -0.000011583701
       2       -0.000013038400    -0.000044930630     0.000005956660
       3        0.000243376676    -0.000767326756     0.002529592233
       4        0.000013144688     0.000055528604     0.000006791859
       5        0.000308295950     0.001621470017    -0.003590391727
       6        0.000001344410     0.000007000321     0.000001044654
       7       -0.000013237931    -0.000002828278    -0.000003029721
       8       -0.003239539253    -0.003258514913     0.001228882972
       9        0.000000029964    -0.000015365479     0.000004280493
      10        0.000001247268     0.000007020532    -0.000004562589
      11        0.000003570886    -0.000004000350    -0.000001469779
      12        0.002698403218     0.002393382555    -0.000145925201
      13        0.000004615273     0.000023807107    -0.000015227710
      14       -0.000003714089     0.000008191112    -0.000001635176
      15       -0.000002046273    -0.000005668290     0.000002560115
      16       -0.000004774576    -0.000005558349    -0.000011416898
      17       -0.000000038482     0.000006436589     0.000003600208
      18       -0.000005456110    -0.000000653786    -0.000004520578
      19       -0.000000866611    -0.000001548318     0.000005199305
      20        0.000005318144    -0.000003869548     0.000000593215
      21        0.000000637289    -0.000000966885    -0.000001711165
      22        0.000004564932     0.000001594565     0.000002889887
      23        0.000001598973    -0.000001620980    -0.000000617822
      24       -0.000000786232     0.000000939549     0.000001225601
      25       -0.000001207323     0.000000291507    -0.000000525137

  **** Optimization is complete! (in 8 steps) ****
    Final optimized geometry and variables:
    Molecular point group: c1

    Geometry (in Angstrom), charge = 0, multiplicity = 1:

    H           -2.773176608357     0.078749142198     1.996106829608
    C           -3.073678065435    -0.236587490460     0.987674103391
    C           -2.754805827167     0.747426471440    -0.104940561280
    O           -3.612228691742    -1.276846141584     0.829285712168
    C           -1.282482017036     1.170464363975    -0.100526668308
    H           -3.046658005130     0.315397322733    -1.053706931452
    H           -3.379626746146     1.620404866119     0.070795873627
    C           -0.318577013126     0.055642362771    -0.517111732996
    H           -1.156396874615     2.026014328812    -0.753453410365
    H           -1.026268886660     1.516093882768     0.898280235625
    C            1.114925870216     0.308117526026    -0.052260537593
    H           -0.315614618984    -0.020662212536    -1.600757419608
    H           -0.657470158472    -0.901926184831    -0.134450486780
    C            2.093684077888    -0.760428156025    -0.534795457469
    H            1.430629875204     1.286991768906    -0.400493662336
    H            1.137074864692     0.348659053908     1.034433238096
    C            3.523583574569    -0.603740266312    -0.014541378925
    H            2.108214184916    -0.769175858389    -1.622267677662
    H            1.721193084038    -1.734482087916    -0.229925517232
    C            4.253725151516     0.638689993494    -0.518842740946
    H            4.091364361984    -1.482208752039    -0.304924707842
    H            3.510953104936    -0.598170511459     1.072211663203
    H            4.275848550912     0.663752707377    -1.603705982482
    H            3.784009665189     1.552974639188    -0.176520214982
    H            5.279458067148     0.649992540836    -0.168541806967

  Mulliken Charges: (a.u.)
   Center  Symbol    Alpha    Beta     Spin     Total
       1     H     0.46464  0.46464  0.00000  0.07071
       2     C     2.90456  2.90456  0.00000  0.19089
       3     C     3.08780  3.08780  0.00000 -0.17561
       4     O     4.16568  4.16568  0.00000 -0.33137
       5     C     3.11652  3.11652  0.00000 -0.23305
       6     H     0.44279  0.44279  0.00000  0.11442
       7     H     0.44131  0.44131  0.00000  0.11738
       8     C     3.09322  3.09322  0.00000 -0.18644
       9     H     0.44145  0.44145  0.00000  0.11711
      10     H     0.45155  0.45155  0.00000  0.09690
      11     C     3.09253  3.09253  0.00000 -0.18506
      12     H     0.44904  0.44904  0.00000  0.10192
      13     H     0.44522  0.44522  0.00000  0.10956
      14     C     3.09630  3.09630  0.00000 -0.19260
      15     H     0.45193  0.45193  0.00000  0.09615
      16     H     0.45470  0.45470  0.00000  0.09060
      17     C     3.09057  3.09057  0.00000 -0.18114
      18     H     0.45327  0.45327  0.00000  0.09347
      19     H     0.44721  0.44721  0.00000  0.10558
      20     C     3.15252  3.15252  0.00000 -0.30503
      21     H     0.44765  0.44765  0.00000  0.10470
      22     H     0.45450  0.45450  0.00000  0.09100
      23     H     0.45473  0.45473  0.00000  0.09054
      24     H     0.45437  0.45437  0.00000  0.09127
      25     H     0.44594  0.44594  0.00000  0.10812

   Total alpha = 36.00000, Total beta = 36.00000, Total charge =  0.00000

*** Psi4 exiting successfully. Buy a developer a beer!
