  ==> Input File <==

--------------------------------------------------------------------------
set {
	reference rhf
	basis 6-31G*
}

set_num_threads( 4 )
memory 2 gb

molecule MOL {
0 1

H	 -2.455965	 1.745545	 -1.435496
C	 -1.716099	 1.116913	 -0.979336
C	 -2.076860	 -0.007332	 -0.404944
H	 -0.689295	 1.429720	 -1.006430
O	 -1.180634	 -0.819263	 0.215062
H	 -3.098720	 -0.341991	 -0.373317
C	 0.051604	 -1.018856	 -0.387932
C	 1.043764	 0.054862	 -0.001873
H	 -0.017620	 -1.041351	 -1.469781
H	 0.437898	 -1.966374	 -0.042284
F	 2.212596	 -0.199467	 -0.571921
F	 0.652529	 1.252447	 -0.405055
F	 1.230877	 0.110694	 1.300533

	symmetry c1
}
set optking {
	frozen_dihedral = ("
		6 3 5 7
	")
}

ee = optimize('scf')
oeprop('DIPOLE', 'QUADRUPOLE', 'MULLIKEN_CHARGES')
f=open( 'psi4out.xyz', 'w' )
f.write( "13  " )
f.write( str(ee) + "\n" )
f.write( MOL.save_string_xyz() )
f.close()
--------------------------------------------------------------------------

    Molecular point group: c1
  Charge       = 0
  Multiplicity = 1
  Basis Set: 6-31G*
  Basis Set:
  @DF-RHF Final Energy:  -527.49792747051288
    Total Energy =                       -527.4979274705128773
    Molecular point group: c1
  Basis Set: 6-31G*
  Basis Set:
  Basis Set: 6-31G*
  Basis Set:
  @DF-RHF Final Energy:  -527.52165766599978
    Total Energy =                       -527.5216576660000101
  Basis Set: 6-31G*
  Basis Set:
  Basis Set: 6-31G*
  Basis Set:
  @DF-RHF Final Energy:  -527.52858393159522
    Total Energy =                       -527.5285839315952217
  Basis Set: 6-31G*
  Basis Set:
  Basis Set: 6-31G*
  Basis Set:
  @DF-RHF Final Energy:  -527.53097295384396
    Total Energy =                       -527.5309729538440706
  Basis Set: 6-31G*
  Basis Set:
  @DF-RHF Final Energy:  -527.53266525863114
    Total Energy =                       -527.5326652586312548
  @DF-RHF Final Energy:  -527.53353401282209
    Total Energy =                       -527.5335340128219741
  @DF-RHF Final Energy:  -527.53389506065128
    Total Energy =                       -527.5338950606512753
  Basis Set: 6-31G*
  Basis Set:
  @DF-RHF Final Energy:  -527.53398360210201
    Total Energy =                       -527.5339836021017845
  Basis Set: 6-31G*
  Basis Set:
  Basis Set: 6-31G*
  Basis Set:
  @DF-RHF Final Energy:  -527.53399869707425
    Total Energy =                       -527.5339986970742530
  Basis Set: 6-31G*
  Basis Set:
  Basis Set: 6-31G*
  Basis Set:
  @DF-RHF Final Energy:  -527.53400175038553
    Total Energy =                       -527.5340017503848458
  Basis Set: 6-31G*
  Basis Set:
  Charge       = 0
  Multiplicity = 1
  Basis Set: 6-31G*
  Basis Set:

    Orbital Energies (a.u.)
    -----------------------

    Doubly Occupied:

       1A    -26.341852     2A    -26.341475     3A    -26.337853
       4A    -20.605107     5A    -11.500901     6A    -11.315311
       7A    -11.301743     8A    -11.223395     9A     -1.739211
      10A     -1.637164    11A     -1.635579    12A     -1.433065
      13A     -1.079780    14A     -1.022646    15A     -0.929622
      16A     -0.835572    17A     -0.829137    18A     -0.817785
      19A     -0.776982    20A     -0.727629    21A     -0.707842
      22A     -0.697855    23A     -0.674181    24A     -0.658028
      25A     -0.654356    26A     -0.640554    27A     -0.625365
      28A     -0.607631    29A     -0.550437    30A     -0.532979
      31A     -0.490177    32A     -0.363847

  @DF-RHF Final Energy:  -527.53400247745844

   => Energetics <=

    Nuclear Repulsion Energy =            416.8775186267121740
    One-Electron Energy =               -1557.5529211845914688
    Two-Electron Energy =                 613.1414000804211355
    DFT Exchange-Correlation Energy =       0.0000000000000000
    Empirical Dispersion Energy =           0.0000000000000000
    PCM Polarization Energy =               0.0000000000000000
    EFP Energy =                            0.0000000000000000
    Total Energy =                       -527.5340024774582162
    Molecular point group: c1
  Basis Set: 6-31G*
  Basis Set:

  -Total Gradient:
     Atom            X                  Y                   Z
    ------   -----------------  -----------------  -----------------
       1        0.000005293284     0.000001345289    -0.000010776245
       2       -0.000004216113     0.000008358416     0.000006124116
       3       -0.000778691312     0.001172026869     0.002305868111
       4        0.000008791335     0.000002341822     0.000005745899
       5        0.001413827482     0.002513671086     0.000547702183
       6        0.000191887398    -0.001714993701    -0.002115000576
       7       -0.000869635409    -0.001982192270    -0.000745509404
       8        0.000015881917    -0.000085931058     0.000083594748
       9        0.000003912802     0.000000454605     0.000007609982
      10        0.000015539710     0.000001846972    -0.000000119181
      11       -0.000004867762     0.000015857865    -0.000034864849
      12        0.000021587818     0.000057296254    -0.000030056802
      13       -0.000019311136     0.000009917854    -0.000020317986

  **** Optimization is complete! (in 11 steps) ****
    Final optimized geometry and variables:
    Molecular point group: c1

    Geometry (in Angstrom), charge = 0, multiplicity = 1:

    H           -3.107666151586     1.485032578728    -1.612511119701
    C           -2.229848429755     1.055895467901    -1.168918323826
    C           -2.362316948359     0.041601169328    -0.341516703086
    H           -1.282244578454     1.493622067173    -1.416595581759
    O           -1.371959915579    -0.636273420952     0.296763148194
    H           -3.321597167572    -0.371785475277    -0.093205694946
    C           -0.178764415351    -0.922350159854    -0.358830622380
    C            0.957056822149    -0.091362137851     0.190992336513
    H           -0.248704471091    -0.750799059005    -1.424119139091
    H            0.066800118595    -1.960019278352    -0.177903546408
    F            2.082892135654    -0.432364194159    -0.420685873503
    F            0.774357242976     1.203583435310    -0.002222921645
    F            1.125508273626    -0.282941914290     1.483728562659

  Mulliken Charges: (a.u.)
   Center  Symbol    Alpha    Beta     Spin     Total
       1     H     0.40470  0.40470  0.00000  0.19060
       2     C     3.23660  3.23660  0.00000 -0.47321
       3     C     2.90313  2.90313  0.00000  0.19374
       4     H     0.40020  0.40020  0.00000  0.19959
       5     O     4.30974  4.30974  0.00000 -0.61948
       6     H     0.40036  0.40036  0.00000  0.19929
       7     C     3.05514  3.05514  0.00000 -0.11029
       8     C     2.45616  2.45616  0.00000  1.08767
       9     H     0.40136  0.40136  0.00000  0.19728
      10     H     0.39524  0.39524  0.00000  0.20952
      11     F     4.68372  4.68372  0.00000 -0.36744
      12     F     4.67804  4.67804  0.00000 -0.35608
      13     F     4.67560  4.67560  0.00000 -0.35120

   Total alpha = 32.00000, Total beta = 32.00000, Total charge = -0.00000
