                              Psi4 1.0.54 Driver

  ==> Input File <==

--------------------------------------------------------------------------
set {
	reference rhf
	basis cc-pvtz
}

set_num_threads( 4 )
memory 2 gb

molecule MOL {
0 1

H	 -2.852248	 -0.077316	 0.025131
N	 -1.895638	 0.047910	 0.278679
C	 -1.189410	 0.827614	 -0.721044
H	 -1.483748	 -0.857535	 0.359373
C	 0.260386	 1.001585	 -0.330566
H	 -1.226561	 0.389818	 -1.717788
H	 -1.644599	 1.810135	 -0.780258
O	 0.881195	 -0.248324	 -0.336237
H	 0.755464	 1.668308	 -1.035229
H	 0.321214	 1.446491	 0.660033
C	 2.208068	 -0.234417	 0.074171
H	 2.725499	 -1.027054	 -0.446768
H	 2.688377	 0.712084	 -0.164856
H	 2.295137	 -0.403407	 1.144883

	symmetry c1
}
set optking {
	frozen_dihedral = ("
		5 8 11 13
	")
}

ee,wfn = optimize('scf', return_wfn=True)
oeprop( wfn, 'DIPOLE', 'QUADRUPOLE', 'MULLIKEN_CHARGES')
f=open( 'psi4out.xyz', 'w' )
f.write( "14  " )
f.write( str(ee) + "\n" )
f.write( MOL.save_string_xyz() )
f.close()
--------------------------------------------------------------------------

    Molecular point group: c1
  Charge       = 0
  Multiplicity = 1
  Basis Set: CC-PVTZ
  Basis Set:
  @DF-RHF Final Energy:  -248.22425335569102
    Total Energy =                       -248.2242533556910189
    Molecular point group: c1
  Basis Set: CC-PVTZ
  Basis Set:
  Basis Set: CC-PVTZ
  Basis Set:
  @DF-RHF Final Energy:  -248.22434232205828
    Total Energy =                       -248.2243423220583622
  Basis Set: CC-PVTZ
  Basis Set:
  Basis Set: CC-PVTZ
  Basis Set:
  @DF-RHF Final Energy:  -248.22437099733173
    Total Energy =                       -248.2243709973316754
  Basis Set: CC-PVTZ
  Basis Set:
  Charge       = 0
  Multiplicity = 1
  Basis Set: CC-PVTZ
  Basis Set:

    Orbital Energies (a.u.)
    -----------------------

    Doubly Occupied:

       1A    -20.548923     2A    -15.523389     3A    -11.264226
       4A    -11.263438     5A    -11.239657     6A     -1.382116
       7A     -1.175836     8A     -1.000447     9A     -0.907771
      10A     -0.815675    11A     -0.684960    12A     -0.674434
      13A     -0.646323    14A     -0.611726    15A     -0.607309
      16A     -0.541864    17A     -0.532952    18A     -0.497800
      19A     -0.474384    20A     -0.416892    21A     -0.383760

  @DF-RHF Final Energy:  -248.22437122325664

   => Energetics <=

    Nuclear Repulsion Energy =            194.5493412384103067
    One-Electron Energy =                -723.1596658837962650
    Two-Electron Energy =                 280.3859534221293188
    DFT Exchange-Correlation Energy =       0.0000000000000000
    Empirical Dispersion Energy =           0.0000000000000000
    PCM Polarization Energy =               0.0000000000000000
    EFP Energy =                            0.0000000000000000
    Total Energy =                       -248.2243712232566395
    Molecular point group: c1
  Basis Set: CC-PVTZ
  Basis Set:

  -Total Gradient:
     Atom            X                  Y                   Z
    ------   -----------------  -----------------  -----------------
       1        0.000003736024     0.000006170657    -0.000007533614
       2        0.000013732121     0.000010419537    -0.000005241878
       3       -0.000025642057     0.000019109453    -0.000007102100
       4        0.000005417973     0.000002813301    -0.000001977990
       5        0.000617428840     0.000334918259    -0.002115122688
       6       -0.000002669995    -0.000000372347     0.000008887043
       7       -0.000025494473     0.000006955835    -0.000005741207
       8       -0.001061811230    -0.000182953538     0.003788655441
       9       -0.000000955331    -0.000015679892     0.000006501308
      10        0.000007591375    -0.000000693355    -0.000006284752
      11        0.001255959156    -0.001212883789    -0.004151456257
      12        0.000012841795    -0.000004942876    -0.000006420885
      13       -0.000790547954     0.001031014166     0.002506334439
      14       -0.000009586247     0.000006124589    -0.000003496861

  **** Optimization is complete! (in 4 steps) ****
    Final optimized geometry and variables:
    Molecular point group: c1

    Geometry (in Angstrom), charge = 0, multiplicity = 1:

    H           -2.912287982305    -0.330385920920     0.233403165568
    N           -1.954851716092    -0.206582039486     0.484455564281
    C           -1.249925149907     0.571637111034    -0.517257504113
    H           -1.544270135738    -1.112724114861     0.563872992184
    C            0.200373939913     0.746555838940    -0.129178783105
    H           -1.287712470901     0.131786372377    -1.513102621704
    H           -1.705405991000     1.554016147965    -0.578027990095
    O            0.820070586425    -0.504629498802    -0.136805926433
    H            0.694656421467     1.410857873265    -0.835685004592
    H            0.259760145061     1.194265012249     0.860301975851
    C            2.150431126577    -0.512526979926     0.272960441852
    H            2.662118570482    -1.320202253767    -0.231432313041
    H            2.646753873148     0.425521360588     0.041115891393
    H            2.224678150620    -0.666901596169     1.346480843238

  Mulliken Charges: (a.u.)
   Center  Symbol    Alpha    Beta     Spin     Total
       1     H     0.43028  0.43028  0.00000  0.13943
       2     N     3.69418  3.69418  0.00000 -0.38836
       3     C     3.02344  3.02344  0.00000 -0.04689
       4     H     0.42234  0.42234  0.00000  0.15533
       5     C     2.96796  2.96796  0.00000  0.06408
       6     H     0.46470  0.46470  0.00000  0.07061
       7     H     0.45870  0.45870  0.00000  0.08260
       8     O     4.18233  4.18233  0.00000 -0.36466
       9     H     0.46894  0.46894  0.00000  0.06213
      10     H     0.46977  0.46977  0.00000  0.06046
      11     C     3.02976  3.02976  0.00000 -0.05953
      12     H     0.45143  0.45143  0.00000  0.09713
      13     H     0.47255  0.47255  0.00000  0.05490
      14     H     0.46361  0.46361  0.00000  0.07277

   Total alpha = 21.00000, Total beta = 21.00000, Total charge =  0.00000

*** Psi4 exiting successfully. Buy a developer a beer!
