  ==> Input File <==

--------------------------------------------------------------------------
set {
	reference rhf
	basis 6-31G*
}

set_num_threads( 4 )
memory 2 gb

molecule MOL {
0 1

H	 -1.070890	 -1.366565	 0.180696
O	 -1.422729	 -0.573567	 -0.196946
C	 -0.731407	 0.539437	 0.309156
C	 0.680193	 0.672443	 -0.251532
H	 -1.319765	 1.404033	 0.030086
H	 -0.700012	 0.506517	 1.397677
C	 0.752091	 0.528005	 -1.771951
H	 1.079875	 1.638374	 0.043217
H	 1.304879	 -0.086399	 0.214801
H	 0.196828	 1.315991	 -2.271908
H	 1.777501	 0.588093	 -2.121077
H	 0.349335	 -0.428032	 -2.097594

	symmetry c1
}
set optking {
	frozen_dihedral = ("
		8 4 3 2
	")
}

ee = optimize('scf')
oeprop('DIPOLE', 'QUADRUPOLE', 'MULLIKEN_CHARGES')
f=open( 'psi4out.xyz', 'w' )
f.write( "12  " )
f.write( str(ee) + "\n" )
f.write( MOL.save_string_xyz() )
f.close()
--------------------------------------------------------------------------

    Molecular point group: c1
  Charge       = 0
  Multiplicity = 1
  Basis Set: 6-31G*
  Basis Set:
  @DF-RHF Final Energy:  -193.10942991849316
    Total Energy =                       -193.1094299184931629
    Molecular point group: c1
  Basis Set: 6-31G*
  Basis Set:
  Basis Set: 6-31G*
  Basis Set:
  @DF-RHF Final Energy:  -193.10971460128090
    Total Energy =                       -193.1097146012808992
  Basis Set: 6-31G*
  Basis Set:
  Basis Set: 6-31G*
  Basis Set:
  @DF-RHF Final Energy:  -193.10977435055608
    Total Energy =                       -193.1097743505561652
  Basis Set: 6-31G*
  Basis Set:
  Basis Set: 6-31G*
  Basis Set:
  @DF-RHF Final Energy:  -193.10977593928214
    Total Energy =                       -193.1097759392821445
  Basis Set: 6-31G*
  Basis Set:
  Charge       = 0
  Multiplicity = 1
  Basis Set: 6-31G*
  Basis Set:

    Orbital Energies (a.u.)
    -----------------------

    Doubly Occupied:

       1A    -20.554602     2A    -11.268314     3A    -11.219826
       4A    -11.207376     5A     -1.361077     6A     -1.047984
       7A     -0.921684     8A     -0.812041     9A     -0.680365
      10A     -0.639004    11A     -0.624944    12A     -0.566965
      13A     -0.528284    14A     -0.515646    15A     -0.485293
      16A     -0.466631    17A     -0.430937

  @DF-RHF Final Energy:  -193.10977650807590

   => Energetics <=

    Nuclear Repulsion Energy =            133.3396223259623241
    One-Electron Energy =                -526.2368526758957614
    Two-Electron Energy =                 199.7874538418574843
    DFT Exchange-Correlation Energy =       0.0000000000000000
    Empirical Dispersion Energy =           0.0000000000000000
    PCM Polarization Energy =               0.0000000000000000
    EFP Energy =                            0.0000000000000000
    Total Energy =                       -193.1097765080759814
    Molecular point group: c1
  Basis Set: 6-31G*
  Basis Set:

  -Total Gradient:
     Atom            X                  Y                   Z
    ------   -----------------  -----------------  -----------------
       1        0.000010537897     0.000010920490     0.000005565137
       2       -0.000873462701     0.001460105059    -0.001957235158
       3        0.000951844999    -0.001669081017     0.002099765045
       4        0.001086498227    -0.001066746571     0.002595394034
       5       -0.000013611349    -0.000016641182    -0.000006904969
       6       -0.000020989217    -0.000023154122    -0.000000420083
       7        0.000024991466     0.000048270779    -0.000012926414
       8       -0.001153666370     0.001268965038    -0.002731326708
       9        0.000011547947     0.000004495485     0.000013306840
      10        0.000003560794     0.000010548490    -0.000016416020
      11       -0.000022696560    -0.000009219155     0.000000699952
      12       -0.000004555132    -0.000018463293     0.000010498342

  **** Optimization is complete! (in 5 steps) ****
    Final optimized geometry and variables:
    Molecular point group: c1

    Geometry (in Angstrom), charge = 0, multiplicity = 1:

    H           -0.830367015086    -1.612564486244     0.606327575320
    O           -1.228827217948    -0.814379939489     0.287219559068
    C           -0.515392631571     0.292798792550     0.774437635358
    C            0.904431989980     0.393588981482     0.222123620094
    H           -1.087388950584     1.158940699039     0.464906700027
    H           -0.495725679099     0.289849624284     1.862629035076
    C            0.965659735243     0.268403048011    -1.300459432875
    H            1.306786727295     1.362196639584     0.510413306378
    H            1.537188573554    -0.364234020005     0.681212534621
    H            0.360913037184     1.034775632890    -1.776700540371
    H            1.985298452888     0.380779268939    -1.655469362983
    H            0.595504514541    -0.693473484651    -1.633238544720

  Mulliken Charges: (a.u.)
   Center  Symbol    Alpha    Beta     Spin     Total
       1     H     0.28340  0.28340  0.00000  0.43321
       2     O     4.36748  4.36748  0.00000 -0.73497
       3     C     2.99505  2.99505  0.00000  0.00990
       4     C     3.17143  3.17143  0.00000 -0.34286
       5     H     0.41655  0.41655  0.00000  0.16690
       6     H     0.42815  0.42815  0.00000  0.14369
       7     C     3.23596  3.23596  0.00000 -0.47193
       8     H     0.42088  0.42088  0.00000  0.15824
       9     H     0.42594  0.42594  0.00000  0.14812
      10     H     0.42046  0.42046  0.00000  0.15908
      11     H     0.42114  0.42114  0.00000  0.15773
      12     H     0.41356  0.41356  0.00000  0.17288

   Total alpha = 17.00000, Total beta = 17.00000, Total charge =  0.00000
