  ==> Input File <==

--------------------------------------------------------------------------
set {
	reference rhf
	basis 6-31G*
}

set_num_threads( 4 )
memory 2 gb

molecule MOL {
0 1

H	 2.977463	 -0.133649	 -0.889576
N	 2.434251	 -0.367735	 -0.081097
C	 1.267428	 0.496480	 0.024474
H	 3.032726	 -0.248369	 0.714198
C	 -0.016086	 -0.325158	 -0.029487
H	 1.288818	 1.183521	 -0.816092
H	 1.267576	 1.109062	 0.929528
C	 -1.282277	 0.529072	 0.046735
H	 -0.012495	 -0.908639	 -0.945788
H	 -0.015903	 -1.041248	 0.791956
C	 -2.563920	 -0.301775	 -0.006060
H	 -1.284084	 1.244622	 -0.773004
H	 -1.271387	 1.115393	 0.963286
H	 -2.621848	 -0.873522	 -0.927727
H	 -3.445135	 0.329952	 0.047812
H	 -2.609542	 -1.004582	 0.821105

	symmetry c1
}
set optking {
	frozen_dihedral = ("
		1 2 3 6
	")
}

ee = optimize('scf')
oeprop('DIPOLE', 'QUADRUPOLE', 'MULLIKEN_CHARGES')
f=open( 'psi4out.xyz', 'w' )
f.write( "16  " )
f.write( str(ee) + "\n" )
f.write( MOL.save_string_xyz() )
f.close()
--------------------------------------------------------------------------

    Molecular point group: c1
  Charge       = 0
  Multiplicity = 1
  Basis Set: 6-31G*
  Basis Set:
  @DF-RHF Final Energy:  -212.31292291487745
    Total Energy =                       -212.3129229148774471
    Molecular point group: c1
  Basis Set: 6-31G*
  Basis Set:
  Basis Set: 6-31G*
  Basis Set:
  @DF-RHF Final Energy:  -212.31353585988884
    Total Energy =                       -212.3135358598887308
  Basis Set: 6-31G*
  Basis Set:
  Basis Set: 6-31G*
  Basis Set:
  @DF-RHF Final Energy:  -212.31373168090181
    Total Energy =                       -212.3137316809017534
  Basis Set: 6-31G*
  Basis Set:
  Basis Set: 6-31G*
  Basis Set:
  @DF-RHF Final Energy:  -212.31373576090257
    Total Energy =                       -212.3137357609024889
  Basis Set: 6-31G*
  Basis Set:
  Charge       = 0
  Multiplicity = 1
  Basis Set: 6-31G*
  Basis Set:

    Orbital Energies (a.u.)
    -----------------------

    Doubly Occupied:

       1A    -15.530619     2A    -11.240661     3A    -11.211679
       4A    -11.205456     5A    -11.202496     6A     -1.172524
       7A     -1.056404     8A     -0.957243     9A     -0.842153
      10A     -0.786305    11A     -0.675220    12A     -0.621495
      13A     -0.609982    14A     -0.576282    15A     -0.550576
      16A     -0.532736    17A     -0.487357    18A     -0.475328
      19A     -0.464409    20A     -0.457839    21A     -0.376008

  @DF-RHF Final Energy:  -212.31373609654293

   => Energetics <=

    Nuclear Repulsion Energy =            185.7787110191122792
    One-Electron Energy =                -654.1193504194716297
    Two-Electron Energy =                 256.0269033038164821
    DFT Exchange-Correlation Energy =       0.0000000000000000
    Empirical Dispersion Energy =           0.0000000000000000
    PCM Polarization Energy =               0.0000000000000000
    EFP Energy =                            0.0000000000000000
    Total Energy =                       -212.3137360965428684
    Molecular point group: c1
  Basis Set: 6-31G*
  Basis Set:

  -Total Gradient:
     Atom            X                  Y                   Z
    ------   -----------------  -----------------  -----------------
       1       -0.000134489446    -0.000165938691    -0.000164512642
       2        0.000233795151     0.000192668109     0.000225432625
       3       -0.000249082265    -0.000191606704    -0.000185953530
       4        0.000018375335     0.000015531397     0.000006251967
       5        0.000006424580     0.000006797651    -0.000004840521
       6        0.000134739194     0.000146854362     0.000134773988
       7        0.000001514387     0.000000897686    -0.000003137532
       8       -0.000002281784    -0.000008979117    -0.000012254130
       9       -0.000005774853     0.000012454214     0.000005968608
      10        0.000003881148    -0.000008317131    -0.000000658314
      11       -0.000009369791     0.000005249093    -0.000000991511
      12       -0.000005227817     0.000003121521     0.000000851050
      13        0.000008121435    -0.000007667142    -0.000001741659
      14        0.000001082333    -0.000001183991    -0.000000471099
      15       -0.000002728735    -0.000002659208    -0.000000076327
      16        0.000001021127     0.000002777949     0.000001359027

  **** Optimization is complete! (in 5 steps) ****
    Final optimized geometry and variables:
    Molecular point group: c1

    Geometry (in Angstrom), charge = 0, multiplicity = 1:

    H            3.019872621961    -0.132059732240    -0.847091991771
    N            2.446282327607    -0.364468825281    -0.062658829977
    C            1.261369666187     0.489676147708     0.015715814694
    H            3.014461805124    -0.287321086344     0.755663801926
    C           -0.023801666865    -0.332943334117    -0.024386550372
    H            1.257574083713     1.202950018130    -0.805238333471
    H            1.279371490708     1.082821683865     0.927585278206
    C           -1.289733118884     0.520978496353     0.056643764412
    H           -0.029887278304    -0.921122529217    -0.938818898138
    H           -0.004331688856    -1.046694625341     0.795830531125
    C           -2.572549012989    -0.309025662458     0.015798949392
    H           -1.299090525459     1.236036039032    -0.764126465438
    H           -1.272915251325     1.110166097182     0.971849104316
    H           -2.637501545395    -0.883501972787    -0.903834178699
    H           -3.453622807145     0.322745130984     0.074607914371
    H           -2.611412900074    -1.009838345671     0.844854950318

  Mulliken Charges: (a.u.)
   Center  Symbol    Alpha    Beta     Spin     Total
       1     H     0.33103  0.33103  0.00000  0.33793
       2     N     3.92794  3.92794  0.00000 -0.85588
       3     C     3.06763  3.06763  0.00000 -0.13525
       4     H     0.33114  0.33114  0.00000  0.33771
       5     C     3.13776  3.13776  0.00000 -0.27553
       6     H     0.42597  0.42597  0.00000  0.14807
       7     H     0.42654  0.42654  0.00000  0.14692
       8     C     3.15780  3.15780  0.00000 -0.31560
       9     H     0.42119  0.42119  0.00000  0.15762
      10     H     0.42177  0.42177  0.00000  0.15645
      11     C     3.23788  3.23788  0.00000 -0.47577
      12     H     0.42495  0.42495  0.00000  0.15011
      13     H     0.42498  0.42498  0.00000  0.15004
      14     H     0.42138  0.42138  0.00000  0.15724
      15     H     0.42060  0.42060  0.00000  0.15880
      16     H     0.42144  0.42144  0.00000  0.15713

   Total alpha = 21.00000, Total beta = 21.00000, Total charge =  0.00000
