                              Psi4 1.0.54 Driver

  ==> Input File <==

--------------------------------------------------------------------------
set {
	reference rhf
	basis cc-pvtz
}

set_num_threads( 4 )
memory 2 gb

molecule MOL {
0 1

H	 -3.371086	 -0.271227	 0.445585
O	 -2.658848	 -0.704215	 -0.000460
C	 -1.605397	 0.107680	 0.001145
C	 -0.310616	 -0.658853	 0.000791
O	 -1.718351	 1.284629	 -0.000627
C	 0.926581	 0.227233	 0.000178
H	 -0.327628	 -1.313681	 -0.864448
H	 -0.327041	 -1.313334	 0.866298
C	 2.220156	 -0.582071	 -0.000088
H	 0.899945	 0.878221	 -0.866390
H	 0.900542	 0.878581	 0.866486
C	 3.466689	 0.296012	 -0.000457
H	 2.239073	 -1.234095	 -0.869382
H	 2.239505	 -1.233985	 0.869270
H	 3.493549	 0.935857	 -0.875887
H	 4.368821	 -0.304526	 -0.001199
H	 3.494559	 0.935166	 0.875458

	symmetry c1
}
set optking {
	frozen_dihedral = ("
		1 2 3 5
	")
}

ee,wfn = optimize('scf', return_wfn=True)
oeprop( wfn, 'DIPOLE', 'QUADRUPOLE', 'MULLIKEN_CHARGES')
f=open( 'psi4out.xyz', 'w' )
f.write( "17  " )
f.write( str(ee) + "\n" )
f.write( MOL.save_string_xyz() )
f.close()
--------------------------------------------------------------------------

    Molecular point group: c1
  Charge       = 0
  Multiplicity = 1
  Basis Set: CC-PVTZ
  Basis Set:
  @DF-RHF Final Energy:  -345.04394873131264
    Total Energy =                       -345.0439487313126961
    Molecular point group: c1
  Basis Set: CC-PVTZ
  Basis Set:
  Basis Set: CC-PVTZ
  Basis Set:
  @DF-RHF Final Energy:  -345.04016544107810
    Total Energy =                       -345.0401654410781589
  Basis Set: CC-PVTZ
  Basis Set:
  Basis Set: CC-PVTZ
  Basis Set:
  @DF-RHF Final Energy:  -345.04429880762109
    Total Energy =                       -345.0442988076209758
  Basis Set: CC-PVTZ
  Basis Set:
  Basis Set: CC-PVTZ
  Basis Set:
  @DF-RHF Final Energy:  -345.04438064617324
    Total Energy =                       -345.0443806461730674
  Basis Set: CC-PVTZ
  Basis Set:
  Basis Set: CC-PVTZ
  Basis Set:
  @DF-RHF Final Energy:  -345.04439190577483
    Total Energy =                       -345.0443919057744324
  Basis Set: CC-PVTZ
  Basis Set:
  Basis Set: CC-PVTZ
  Basis Set:
  @DF-RHF Final Energy:  -345.04439614403793
    Total Energy =                       -345.0443961440379326
  Basis Set: CC-PVTZ
  Basis Set:
  Charge       = 0
  Multiplicity = 1
  Basis Set: CC-PVTZ
  Basis Set:

    Orbital Energies (a.u.)
    -----------------------

    Doubly Occupied:

       1A    -20.600335     2A    -20.542784     3A    -11.373874
       4A    -11.239137     5A    -11.221250     6A    -11.220630
       7A    -11.210711     8A     -1.473798     9A     -1.369981
      10A     -1.092671    11A     -1.019374    12A     -0.914009
      13A     -0.824792    14A     -0.791588    15A     -0.705111
      16A     -0.686200    17A     -0.669817    18A     -0.634217
      19A     -0.592729    20A     -0.586185    21A     -0.566428
      22A     -0.538707    23A     -0.509976    24A     -0.488821
      25A     -0.481142    26A     -0.477471    27A     -0.472752
      28A     -0.445971

  @DF-RHF Final Energy:  -345.04439630418750

   => Energetics <=

    Nuclear Repulsion Energy =            304.6119854199304768
    One-Electron Energy =               -1073.8118372844423902
    Two-Electron Energy =                 424.1554555603245831
    DFT Exchange-Correlation Energy =       0.0000000000000000
    Empirical Dispersion Energy =           0.0000000000000000
    PCM Polarization Energy =               0.0000000000000000
    EFP Energy =                            0.0000000000000000
    Total Energy =                       -345.0443963041872735
    Molecular point group: c1
  Basis Set: CC-PVTZ
  Basis Set:

  -Total Gradient:
     Atom            X                  Y                   Z
    ------   -----------------  -----------------  -----------------
       1        0.002094490244    -0.004161872389     0.008138451407
       2       -0.002272482674     0.005283583168    -0.014078617385
       3       -0.000683424052    -0.001571012246     0.014571492526
       4        0.000025732310     0.000030448383    -0.000084648964
       5        0.000846225208     0.000417081424    -0.008518022451
       6       -0.000006679435    -0.000007407148     0.000003727278
       7        0.000006593992     0.000018545379    -0.000020431811
       8       -0.000010800763    -0.000013257697    -0.000018145104
       9        0.000002072089    -0.000001204062     0.000006576582
      10       -0.000000677051     0.000004165182    -0.000000752846
      11        0.000000647021     0.000002042375     0.000004055517
      12       -0.000002120863     0.000000124343    -0.000005047565
      13       -0.000000276630    -0.000001489210     0.000001552722
      14        0.000000833063    -0.000000320664     0.000001236352
      15        0.000000828285     0.000002427897     0.000000106102
      16       -0.000000626238    -0.000000831681    -0.000001588464
      17       -0.000000334507    -0.000001023056     0.000000056106

  **** Optimization is complete! (in 7 steps) ****
    Final optimized geometry and variables:
    Molecular point group: c1

    Geometry (in Angstrom), charge = 0, multiplicity = 1:

    H           -3.417987952287    -0.301213635765     0.295631508893
    O           -2.661136683063    -0.699341643500    -0.105469042187
    C           -1.606464241896     0.110653373246     0.034470176738
    C           -0.311633527027    -0.655035093091     0.018900698351
    O           -1.715790431105     1.284794632194     0.088784129739
    C            0.927015709254     0.228392535239    -0.001709280683
    H           -0.342550655747    -1.316544915724    -0.840610350899
    H           -0.317798113246    -1.304406023170     0.889147689600
    C            2.219281922506    -0.582945151913    -0.011878965209
    H            0.891495418801     0.873417674988    -0.872703806885
    H            0.912068241646     0.885818000822     0.860102049100
    C            3.467085217201     0.293004529356    -0.034154933827
    H            2.226537259409    -1.241566657556    -0.876299469995
    H            2.248238904929    -1.228227797276     0.862197759107
    H            3.484487841778     0.925711091617    -0.914994177399
    H            4.368209973178    -0.309018342999    -0.040840708912
    H            3.506353572002     0.939169229965     0.836163171227

  Mulliken Charges: (a.u.)
   Center  Symbol    Alpha    Beta     Spin     Total
       1     H     0.38096  0.38096  0.00000  0.23807
       2     O     4.16563  4.16563  0.00000 -0.33126
       3     C     2.80516  2.80516  0.00000  0.38968
       4     C     3.11057  3.11057  0.00000 -0.22114
       5     O     4.18433  4.18433  0.00000 -0.36866
       6     C     3.08275  3.08275  0.00000 -0.16550
       7     H     0.43735  0.43735  0.00000  0.12530
       8     H     0.44088  0.44088  0.00000  0.11825
       9     C     3.08578  3.08578  0.00000 -0.17156
      10     H     0.44647  0.44647  0.00000  0.10707
      11     H     0.44590  0.44590  0.00000  0.10820
      12     C     3.14921  3.14921  0.00000 -0.29842
      13     H     0.45461  0.45461  0.00000  0.09078
      14     H     0.45506  0.45506  0.00000  0.08988
      15     H     0.45358  0.45358  0.00000  0.09284
      16     H     0.44802  0.44802  0.00000  0.10397
      17     H     0.45375  0.45375  0.00000  0.09251

   Total alpha = 28.00000, Total beta = 28.00000, Total charge = -0.00000

*** Psi4 exiting successfully. Buy a developer a beer!
