                              Psi4 1.0.54 Driver

  ==> Input File <==

--------------------------------------------------------------------------
set {
	reference rhf
	basis cc-pvtz
}

set_num_threads( 4 )
memory 2 gb

molecule MOL {
0 1

H	 -2.026725	 0.205619	 -0.052867
N	 -1.173824	 -0.310545	 -0.096857
C	 -0.022588	 0.563366	 0.065815
H	 -1.205920	 -0.995862	 0.629038
C	 1.270420	 -0.230572	 -0.014245
H	 -0.045354	 1.293678	 -0.735129
H	 -0.043155	 1.123061	 1.001180
H	 1.336273	 -0.754933	 -0.959364
H	 2.130728	 0.422015	 0.082222
H	 1.323344	 -0.967006	 0.781773

	symmetry c1
}
set optking {
	frozen_dihedral = ("
		1 2 3 6
	")
}

ee,wfn = optimize('scf', return_wfn=True)
oeprop( wfn, 'DIPOLE', 'QUADRUPOLE', 'MULLIKEN_CHARGES')
f=open( 'psi4out.xyz', 'w' )
f.write( "10  " )
f.write( str(ee) + "\n" )
f.write( MOL.save_string_xyz() )
f.close()
--------------------------------------------------------------------------

    Molecular point group: c1
  Charge       = 0
  Multiplicity = 1
  Basis Set: CC-PVTZ
  Basis Set:
  @DF-RHF Final Energy:  -134.30478185241850
    Total Energy =                       -134.3047818524184720
    Molecular point group: c1
  Basis Set: CC-PVTZ
  Basis Set:
  Basis Set: CC-PVTZ
  Basis Set:
  @DF-RHF Final Energy:  -134.30478339395347
    Total Energy =                       -134.3047833939534428
  Basis Set: CC-PVTZ
  Basis Set:
  Charge       = 0
  Multiplicity = 1
  Basis Set: CC-PVTZ
  Basis Set:

    Orbital Energies (a.u.)
    -----------------------

    Doubly Occupied:

       1A    -15.527104     2A    -11.240941     3A    -11.205439
       4A     -1.178198     5A     -0.988733     6A     -0.824594
       7A     -0.662854     8A     -0.632234     9A     -0.583545
      10A     -0.516810    11A     -0.508325    12A     -0.488883
      13A     -0.385303

  @DF-RHF Final Energy:  -134.30478353749652

   => Energetics <=

    Nuclear Repulsion Energy =             83.4803971819191020
    One-Electron Energy =                -346.0844407511294776
    Two-Electron Energy =                 128.2992600317138283
    DFT Exchange-Correlation Energy =       0.0000000000000000
    Empirical Dispersion Energy =           0.0000000000000000
    PCM Polarization Energy =               0.0000000000000000
    EFP Energy =                            0.0000000000000000
    Total Energy =                       -134.3047835374965473
    Molecular point group: c1
  Basis Set: CC-PVTZ
  Basis Set:

  -Total Gradient:
     Atom            X                  Y                   Z
    ------   -----------------  -----------------  -----------------
       1       -0.000003100590    -0.000059159240     0.000294171322
       2        0.000052185810     0.000032492324    -0.000375647799
       3       -0.000211187012     0.000163630754     0.000222219207
       4       -0.000004603795     0.000011265826    -0.000007761013
       5       -0.000003188504     0.000016908258     0.000011492758
       6        0.000156789658    -0.000147988480    -0.000160976788
       7        0.000007066566    -0.000009519036     0.000010893251
       8       -0.000001738478     0.000006960585     0.000000738394
       9        0.000001727701    -0.000008069281    -0.000001143486
      10        0.000006048644    -0.000006521710     0.000006014154

  **** Optimization is complete! (in 3 steps) ****
    Final optimized geometry and variables:
    Molecular point group: c1

    Geometry (in Angstrom), charge = 0, multiplicity = 1:

    H           -2.026997307682     0.204768436176    -0.054652554956
    N           -1.173678618649    -0.310974424870    -0.097752683552
    C           -0.023503475091     0.564002897832     0.066617585801
    H           -1.206839253346    -0.993298957578     0.631043668798
    C            1.269954726919    -0.229113806289    -0.015185220826
    H           -0.045328693461     1.294845551236    -0.733931187433
    H           -0.044180170231     1.121698242579     1.003125186071
    H            1.334513836594    -0.754037510890    -0.960122707187
    H            2.129930708295     0.424145626454     0.078942557906
    H            1.325121191710    -0.964800845372     0.781408703185

  Mulliken Charges: (a.u.)
   Center  Symbol    Alpha    Beta     Spin     Total
       1     H     0.42983  0.42983  0.00000  0.14035
       2     N     3.68939  3.68939  0.00000 -0.37878
       3     C     3.01829  3.01829  0.00000 -0.03657
       4     H     0.43057  0.43057  0.00000  0.13886
       5     C     3.13962  3.13962  0.00000 -0.27923
       6     H     0.45784  0.45784  0.00000  0.08431
       7     H     0.46972  0.46972  0.00000  0.06056
       8     H     0.44941  0.44941  0.00000  0.10118
       9     H     0.45525  0.45525  0.00000  0.08951
      10     H     0.46008  0.46008  0.00000  0.07983

   Total alpha = 13.00000, Total beta = 13.00000, Total charge = -0.00000

*** Psi4 exiting successfully. Buy a developer a beer!
