                              Psi4 1.0.54 Driver

  ==> Input File <==

--------------------------------------------------------------------------
set {
	reference rhf
	basis cc-pvtz
}

set_num_threads( 4 )
memory 2 gb

molecule MOL {
0 1

H	 -3.144994	 -1.202467	 -0.018751
O	 -2.321472	 -0.864941	 -0.318626
C	 -2.021813	 0.336996	 0.342658
C	 -0.669613	 0.837286	 -0.127252
H	 -2.780861	 1.084746	 0.127159
H	 -2.006390	 0.184138	 1.420053
C	 0.490865	 -0.082543	 0.241244
H	 -0.708709	 0.967192	 -1.204587
H	 -0.507562	 1.822272	 0.303070
C	 1.839800	 0.429565	 -0.255472
H	 0.305636	 -1.070211	 -0.165276
H	 0.527397	 -0.195943	 1.322876
C	 2.858901	 -0.684084	 -0.472273
H	 1.696077	 0.971145	 -1.186459
H	 2.238525	 1.148350	 0.455905
H	 2.503916	 -1.400577	 -1.205445
H	 3.804341	 -0.289035	 -0.826370
H	 3.050686	 -1.224071	 0.449181

	symmetry c1
}
set optking {
	frozen_dihedral = ("
		14 10 7 11
	")
}

ee,wfn = optimize('scf', return_wfn=True)
oeprop( wfn, 'DIPOLE', 'QUADRUPOLE', 'MULLIKEN_CHARGES')
f=open( 'psi4out.xyz', 'w' )
f.write( "18  " )
f.write( str(ee) + "\n" )
f.write( MOL.save_string_xyz() )
f.close()
--------------------------------------------------------------------------

    Molecular point group: c1
  Charge       = 0
  Multiplicity = 1
  Basis Set: CC-PVTZ
  Basis Set:
  @DF-RHF Final Energy:  -271.28458119229515
    Total Energy =                       -271.2845811922952635
    Molecular point group: c1
  Basis Set: CC-PVTZ
  Basis Set:
  Basis Set: CC-PVTZ
  Basis Set:
  @DF-RHF Final Energy:  -271.28480420828942
    Total Energy =                       -271.2848042082894153
  Basis Set: CC-PVTZ
  Basis Set:
  Basis Set: CC-PVTZ
  Basis Set:
  @DF-RHF Final Energy:  -271.28488763119560
    Total Energy =                       -271.2848876311956587
  Basis Set: CC-PVTZ
  Basis Set:
  Basis Set: CC-PVTZ
  Basis Set:
  @DF-RHF Final Energy:  -271.28488873816843
    Total Energy =                       -271.2848887381685472
  Basis Set: CC-PVTZ
  Basis Set:
  Charge       = 0
  Multiplicity = 1
  Basis Set: CC-PVTZ
  Basis Set:

    Orbital Energies (a.u.)
    -----------------------

    Doubly Occupied:

       1A    -20.546225     2A    -11.265982     3A    -11.210959
       4A    -11.209024     5A    -11.204865     6A    -11.202888
       7A     -1.364138     8A     -1.075758     9A     -1.010272
      10A     -0.914469    11A     -0.819379    12A     -0.785261
      13A     -0.707781    14A     -0.643615    15A     -0.624134
      16A     -0.580900    17A     -0.572619    18A     -0.563372
      19A     -0.521050    20A     -0.502854    21A     -0.492260
      22A     -0.468621    23A     -0.454404    24A     -0.449394
      25A     -0.432005

  @DF-RHF Final Energy:  -271.28488886667856

   => Energetics <=

    Nuclear Repulsion Energy =            249.3251619699704236
    One-Electron Energy =                -861.9756424592624171
    Two-Electron Energy =                 341.3655916226135787
    DFT Exchange-Correlation Energy =       0.0000000000000000
    Empirical Dispersion Energy =           0.0000000000000000
    PCM Polarization Energy =               0.0000000000000000
    EFP Energy =                            0.0000000000000000
    Total Energy =                       -271.2848888666784433
    Molecular point group: c1
  Basis Set: CC-PVTZ
  Basis Set:

  -Total Gradient:
     Atom            X                  Y                   Z
    ------   -----------------  -----------------  -----------------
       1        0.000003930476     0.000001546140     0.000001748637
       2       -0.000001137749    -0.000013492828    -0.000012382762
       3       -0.000002730946     0.000013418930     0.000012062572
       4       -0.000002557960    -0.000005361894    -0.000002012863
       5       -0.000001772110     0.000003894687     0.000002544106
       6        0.000003323777     0.000002178792    -0.000004800409
       7       -0.002379136773     0.003037788536    -0.003512007723
       8        0.000000916062    -0.000002971821     0.000003220200
       9        0.000000736604    -0.000005769037    -0.000000882679
      10        0.001158674961    -0.004677887224    -0.001930699764
      11        0.001808020546    -0.001778904031     0.003235619071
      12        0.000000342283     0.000003571246     0.000011690785
      13        0.000008684159    -0.000000366070    -0.000008943529
      14       -0.000590657145     0.003406805599     0.002190617999
      15        0.000004370821     0.000004640938     0.000008878981
      16       -0.000002247325     0.000006662194     0.000005357327
      17       -0.000001602653    -0.000000027820     0.000000975918
      18       -0.000007157033     0.000004273664    -0.000000985869

  **** Optimization is complete! (in 5 steps) ****
    Final optimized geometry and variables:
    Molecular point group: c1

    Geometry (in Angstrom), charge = 0, multiplicity = 1:

    H           -3.146231304064    -1.144537088698     0.154641399013
    O           -2.328805187374    -0.816796942093    -0.171392911428
    C           -1.990635604103     0.377635838215     0.484678680507
    C           -0.650069204757     0.863216711427    -0.030941902794
    H           -2.747196639148     1.136212962514     0.300374675641
    H           -1.938289038438     0.218757921892     1.559954381203
    C            0.508995842963    -0.077622292189     0.278460261839
    H           -0.727345123989     1.009615763316    -1.103908437094
    H           -0.455112353128     1.839264440346     0.406754983958
    C            1.867397987402     0.455993977225    -0.185908771319
    H            0.325612655649    -1.053950516516    -0.154680731649
    H            0.549895452622    -0.247180725118     1.352762708119
    C            2.916003456692    -0.632796180550    -0.375608979785
    H            1.743857933168     1.025618578929    -1.102879661544
    H            2.229837156104     1.176370040099     0.543322444360
    H            2.616464146285    -1.331927126555    -1.148814050262
    H            3.874296944951    -0.212741489765    -0.659408841235
    H            3.060790406168    -1.197572403776     0.539761963223

  Mulliken Charges: (a.u.)
   Center  Symbol    Alpha    Beta     Spin     Total
       1     H     0.39579  0.39579  0.00000  0.20841
       2     O     4.19845  4.19845  0.00000 -0.39689
       3     C     2.97392  2.97392  0.00000  0.05216
       4     C     3.09141  3.09141  0.00000 -0.18283
       5     H     0.46559  0.46559  0.00000  0.06883
       6     H     0.47376  0.47376  0.00000  0.05249
       7     C     3.08735  3.08735  0.00000 -0.17470
       8     H     0.45182  0.45182  0.00000  0.09637
       9     H     0.45382  0.45382  0.00000  0.09236
      10     C     3.08423  3.08423  0.00000 -0.16847
      11     H     0.44535  0.44535  0.00000  0.10930
      12     H     0.45884  0.45884  0.00000  0.08232
      13     C     3.14837  3.14837  0.00000 -0.29674
      14     H     0.45613  0.45613  0.00000  0.08774
      15     H     0.45567  0.45567  0.00000  0.08867
      16     H     0.45416  0.45416  0.00000  0.09167
      17     H     0.45008  0.45008  0.00000  0.09984
      18     H     0.45527  0.45527  0.00000  0.08947

   Total alpha = 25.00000, Total beta = 25.00000, Total charge =  0.00000

*** Psi4 exiting successfully. Buy a developer a beer!
