  ==> Input File <==

--------------------------------------------------------------------------
set {
	reference rhf
	basis 6-31G*
}

set_num_threads( 4 )
memory 2 gb

molecule MOL {
0 1

H	 -3.161837	 0.500524	 -0.000234
C	 -2.367097	 -0.232926	 -0.000000
O	 -1.158440	 0.455814	 -0.000122
H	 -2.468853	 -0.861886	 -0.882833
H	 -2.468942	 -0.861421	 0.883154
C	 -0.029776	 -0.365156	 0.000148
C	 1.212217	 0.508981	 0.000007
H	 -0.036772	 -1.013236	 -0.877259
H	 -0.036869	 -1.012778	 0.877897
C	 1.646144	 0.908059	 1.409732
H	 2.011679	 -0.028929	 -0.500167
H	 1.010102	 1.394261	 -0.595080
H	 1.876997	 0.036004	 2.015250
H	 2.533603	 1.531251	 1.379841
H	 0.867945	 1.468780	 1.920029

	symmetry c1
}
set optking {
	frozen_dihedral = ("
		11 7 6 8
	")
}

ee = optimize('scf')
oeprop('DIPOLE', 'QUADRUPOLE', 'MULLIKEN_CHARGES')
f=open( 'psi4out.xyz', 'w' )
f.write( "15  " )
f.write( str(ee) + "\n" )
f.write( MOL.save_string_xyz() )
f.close()
--------------------------------------------------------------------------

    Molecular point group: c1
  Charge       = 0
  Multiplicity = 1
  Basis Set: 6-31G*
  Basis Set:
  @DF-RHF Final Energy:  -232.13703090177245
    Total Energy =                       -232.1370309017723343
    Molecular point group: c1
  Basis Set: 6-31G*
  Basis Set:
  Basis Set: 6-31G*
  Basis Set:
  @DF-RHF Final Energy:  -232.13740900517314
    Total Energy =                       -232.1374090051730832
  Basis Set: 6-31G*
  Basis Set:
  Basis Set: 6-31G*
  Basis Set:
  @DF-RHF Final Energy:  -232.13749698482556
    Total Energy =                       -232.1374969848257024
  Basis Set: 6-31G*
  Basis Set:
  Basis Set: 6-31G*
  Basis Set:
  @DF-RHF Final Energy:  -232.13749816852763
    Total Energy =                       -232.1374981685276566
  Basis Set: 6-31G*
  Basis Set:
  Charge       = 0
  Multiplicity = 1
  Basis Set: 6-31G*
  Basis Set:

    Orbital Energies (a.u.)
    -----------------------

    Doubly Occupied:

       1A    -20.554631     2A    -11.266437     3A    -11.264439
       4A    -11.214265     5A    -11.206612     6A     -1.379086
       7A     -1.053883     8A     -0.952109     9A     -0.883665
      10A     -0.803773    11A     -0.667130    12A     -0.663011
      13A     -0.632404    14A     -0.584506    15A     -0.576694
      16A     -0.545669    17A     -0.495078    18A     -0.485913
      19A     -0.480943    20A     -0.460212    21A     -0.412354

  @DF-RHF Final Energy:  -232.13749835102075

   => Energetics <=

    Nuclear Repulsion Energy =            191.8836166945214075
    One-Electron Energy =                -694.8766018694602735
    Two-Electron Energy =                 270.8554868239182838
    DFT Exchange-Correlation Energy =       0.0000000000000000
    Empirical Dispersion Energy =           0.0000000000000000
    PCM Polarization Energy =               0.0000000000000000
    EFP Energy =                            0.0000000000000000
    Total Energy =                       -232.1374983510206107
    Molecular point group: c1
  Basis Set: 6-31G*
  Basis Set:

  -Total Gradient:
     Atom            X                  Y                   Z
    ------   -----------------  -----------------  -----------------
       1       -0.000004793427    -0.000000568211    -0.000002443009
       2       -0.000004886557     0.000003065838     0.000001219651
       3       -0.000001404618    -0.000016415974     0.000001555713
       4       -0.000003728880     0.000001048742    -0.000002321415
       5       -0.000002404437     0.000000229418     0.000000800677
       6       -0.002964520185     0.004671222202    -0.003910542747
       7        0.001991230791    -0.003266222965     0.005595932377
       8        0.002189336758    -0.003347465709     0.002359713819
       9       -0.000015253609     0.000014119436     0.000010352215
      10       -0.000008731403    -0.000005621489    -0.000006330343
      11       -0.001178216808     0.001931692232    -0.004034833512
      12        0.000004418447     0.000017665131    -0.000007086456
      13        0.000003225548     0.000010843500    -0.000006841210
      14       -0.000004609704    -0.000002803138    -0.000003928449
      15        0.000000338083    -0.000010789013     0.000004752690

  **** Optimization is complete! (in 5 steps) ****
    Final optimized geometry and variables:
    Molecular point group: c1

    Geometry (in Angstrom), charge = 0, multiplicity = 1:

    H           -2.979838265920     0.274670372824    -0.244190943422
    C           -2.191472495596    -0.465501002946    -0.259695834298
    O           -0.977157042334     0.212674521740    -0.291292581026
    H           -2.318828372658    -1.096604311373    -1.137618732897
    H           -2.277189200732    -1.089965909203     0.627881190208
    C            0.143672258402    -0.618702549327    -0.322873778005
    C            1.403228978317     0.237873200373    -0.277523962228
    H            0.137587325265    -1.251339168458    -1.210450374702
    H            0.122642194442    -1.298638870126     0.530787242948
    C            1.796024891499     0.671287721569     1.132282446837
    H            2.215157540748    -0.291600395700    -0.769223885666
    H            1.214624776875     1.114911721507    -0.889902900509
    H            2.048366890346    -0.184990783330     1.751679365204
    H            2.657282077809     1.331642811530     1.113616808300
    H            0.978225260205     1.200818149920     1.609540605070

  Mulliken Charges: (a.u.)
   Center  Symbol    Alpha    Beta     Spin     Total
       1     H     0.41216  0.41216  0.00000  0.17567
       2     C     3.07934  3.07934  0.00000 -0.15869
       3     O     4.30354  4.30354  0.00000 -0.60708
       4     H     0.43019  0.43019  0.00000  0.13961
       5     H     0.43001  0.43001  0.00000  0.13997
       6     C     2.98962  2.98962  0.00000  0.02076
       7     C     3.16196  3.16196  0.00000 -0.32391
       8     H     0.43010  0.43010  0.00000  0.13979
       9     H     0.43356  0.43356  0.00000  0.13288
      10     C     3.24272  3.24272  0.00000 -0.48543
      11     H     0.42191  0.42191  0.00000  0.15617
      12     H     0.41012  0.41012  0.00000  0.17977
      13     H     0.42373  0.42373  0.00000  0.15254
      14     H     0.41929  0.41929  0.00000  0.16142
      15     H     0.41174  0.41174  0.00000  0.17652

   Total alpha = 21.00000, Total beta = 21.00000, Total charge = -0.00000
