  ==> Input File <==

--------------------------------------------------------------------------
set {
	reference rhf
	basis cc-pvtz
}

set_num_threads( 4 )
memory 2 gb

molecule MOL {
0 1

H	 -2.171709	 0.882708	 0.500286
C	 -2.016894	 0.001719	 -0.114152
O	 -0.775228	 0.000056	 -0.739966
H	 -2.760846	 0.003757	 -0.898169
H	 -2.174774	 -0.879864	 0.498643
C	 0.287868	 0.759786	 -0.199672
C	 1.448883	 0.497005	 -1.152497
C	 -0.049693	 2.251966	 -0.190164
C	 0.650396	 0.279589	 1.206948
H	 1.187794	 0.812151	 -2.154804
H	 1.676398	 -0.561080	 -1.180717
H	 2.336585	 1.034204	 -0.840454
H	 -0.368671	 2.571546	 -1.174944
H	 0.822954	 2.829933	 0.089712
H	 -0.835123	 2.487554	 0.517056
H	 0.824323	 -0.789728	 1.206093
H	 1.553640	 0.771502	 1.547608
H	 -0.129105	 0.498853	 1.925884

	symmetry c1
}
set optking {
	frozen_dihedral = ("
		6 3 2 5
	")
}

ee = optimize('scf')
oeprop('DIPOLE', 'QUADRUPOLE', 'MULLIKEN_CHARGES')
f=open( 'psi4out.xyz', 'w' )
f.write( "18  " )
f.write( str(ee) + "\n" )
f.write( MOL.save_string_xyz() )
f.close()
--------------------------------------------------------------------------

    Molecular point group: c1
  Charge       = 0
  Multiplicity = 1
  Basis Set: CC-PVTZ
  Basis Set:
  @DF-RHF Final Energy:  -271.27473807300873
    Total Energy =                       -271.2747380730090754
    Molecular point group: c1
  Basis Set: CC-PVTZ
  Basis Set:
  Basis Set: CC-PVTZ
  Basis Set:
  @DF-RHF Final Energy:  -271.27403016364900
    Total Energy =                       -271.2740301636492859
  Basis Set: CC-PVTZ
  Basis Set:
  Basis Set: CC-PVTZ
  Basis Set:
  @DF-RHF Final Energy:  -271.27511520937736
    Total Energy =                       -271.2751152093774181
  Basis Set: CC-PVTZ
  Basis Set:
  Basis Set: CC-PVTZ
  Basis Set:
  @DF-RHF Final Energy:  -271.27518535307462
    Total Energy =                       -271.2751853530742210
  Basis Set: CC-PVTZ
  Basis Set:
  Basis Set: CC-PVTZ
  Basis Set:
  @DF-RHF Final Energy:  -271.27517204794253
    Total Energy =                       -271.2751720479425330
  Basis Set: CC-PVTZ
  Basis Set:
  Basis Set: CC-PVTZ
  Basis Set:
  @DF-RHF Final Energy:  -271.27519842493848
    Total Energy =                       -271.2751984249388784
  Basis Set: CC-PVTZ
  Basis Set:
  Charge       = 0
  Multiplicity = 1
  Basis Set: CC-PVTZ
  Basis Set:

    Orbital Energies (a.u.)
    -----------------------

    Doubly Occupied:

       1A    -20.538828     2A    -11.280588     3A    -11.258440
       4A    -11.207544     5A    -11.206614     6A    -11.201835
       7A     -1.371908     8A     -1.074208     9A     -0.946684
      10A     -0.940832    11A     -0.913471    12A     -0.753715
      13A     -0.656478    14A     -0.645993    15A     -0.640364
      16A     -0.591085    17A     -0.572723    18A     -0.552900
      19A     -0.537869    20A     -0.524968    21A     -0.515373
      22A     -0.491307    23A     -0.488002    24A     -0.440066
      25A     -0.404761

  @DF-RHF Final Energy:  -271.27519837921665

   => Energetics <=

    Nuclear Repulsion Energy =            272.5661896863090874
    One-Electron Energy =                -908.1696650833459898
    Two-Electron Energy =                 364.3282770178201417
    DFT Exchange-Correlation Energy =       0.0000000000000000
    Empirical Dispersion Energy =           0.0000000000000000
    PCM Polarization Energy =               0.0000000000000000
    EFP Energy =                            0.0000000000000000
    Total Energy =                       -271.2751983792167039
    Molecular point group: c1
  Basis Set: CC-PVTZ
  Basis Set:

  -Total Gradient:
     Atom            X                  Y                   Z
    ------   -----------------  -----------------  -----------------
       1       -0.000031511107    -0.000031532324    -0.000009649193
       2        0.000769641642     0.001780877843     0.001579838289
       3        0.000542086323    -0.002264657146     0.000799052647
       4       -0.000032318398    -0.000012831174     0.000015482463
       5       -0.000800821203    -0.000828377758    -0.001581625829
       6       -0.000482627716     0.001311695629    -0.000811622808
       7        0.000019428310    -0.000001334960     0.000012829413
       8       -0.000012998295     0.000024813067     0.000020634745
       9        0.000014721573     0.000005229914    -0.000011087426
      10       -0.000005025606     0.000017344932     0.000011952554
      11        0.000002496457    -0.000001143173    -0.000021691641
      12        0.000010961337    -0.000014811513     0.000005525499
      13        0.000010060611    -0.000004147878    -0.000008508719
      14       -0.000018009973    -0.000009636367     0.000003209996
      15        0.000002091376     0.000022601239    -0.000004531616
      16       -0.000018500950    -0.000001724569     0.000013033333
      17        0.000014438848    -0.000007986468    -0.000007303639
      18        0.000015886771     0.000015620706    -0.000005538068

  **** Optimization is complete! (in 7 steps) ****
    Final optimized geometry and variables:
    Molecular point group: c1

    Geometry (in Angstrom), charge = 0, multiplicity = 1:

    H           -2.063916598183     0.163043958685     0.801950934324
    C           -1.911252872839    -0.656096385173     0.111424573171
    O           -0.691418368797    -0.593068215923    -0.559797811517
    H           -2.701083534183    -0.620098362711    -0.628136738616
    H           -2.006301353050    -1.591429167866     0.654301827606
    C            0.384879352675     0.140544803509    -0.010382002703
    C            1.549498308667    -0.145709299596    -0.951855981100
    C            0.077219727732     1.639361622688    -0.010417838943
    C            0.721294903440    -0.349726331305     1.398957335731
    H            1.303313088636     0.171829420621    -1.957114462266
    H            1.759050984922    -1.207510226178    -0.975718747536
    H            2.443446942253     0.377082505875    -0.632843578093
    H           -0.195268539200     1.963073931220    -1.007403348988
    H            0.948013722703     2.201574856589     0.305738437668
    H           -0.732845311574     1.891934634706     0.662132937393
    H            0.907353905561    -1.416974911197     1.390839920111
    H            1.609544518507     0.148035206581     1.769343663873
    H           -0.081116373483    -0.150085331165     2.098694271943

  Mulliken Charges: (a.u.)
   Center  Symbol    Alpha    Beta     Spin     Total
       1     H     0.46827  0.46827  0.00000  0.06345
       2     C     3.04431  3.04431  0.00000 -0.08862
       3     O     4.19278  4.19278  0.00000 -0.38556
       4     H     0.44759  0.44759  0.00000  0.10481
       5     H     0.46005  0.46005  0.00000  0.07989
       6     C     2.87887  2.87887  0.00000  0.24226
       7     C     3.14267  3.14267  0.00000 -0.28534
       8     C     3.16021  3.16021  0.00000 -0.32043
       9     C     3.16187  3.16187  0.00000 -0.32374
      10     H     0.44865  0.44865  0.00000  0.10270
      11     H     0.44929  0.44929  0.00000  0.10141
      12     H     0.45924  0.45924  0.00000  0.08153
      13     H     0.44645  0.44645  0.00000  0.10710
      14     H     0.44928  0.44928  0.00000  0.10144
      15     H     0.44829  0.44829  0.00000  0.10341
      16     H     0.44623  0.44623  0.00000  0.10755
      17     H     0.44739  0.44739  0.00000  0.10521
      18     H     0.44853  0.44853  0.00000  0.10293

   Total alpha = 25.00000, Total beta = 25.00000, Total charge =  0.00000
