  ==> Input File <==

--------------------------------------------------------------------------
set {
	reference rhf
	basis cc-pvtz
}

set_num_threads( 4 )
memory 2 gb

molecule MOL {
0 1

O	 0.074770	 1.259872	 0.000487
C	 0.029490	 0.077183	 0.000078
C	 -1.232113	 -0.748027	 0.000015
O	 1.106773	 -0.690081	 -0.000204
C	 -2.501422	 0.088592	 -0.000052
H	 -1.188777	 -1.400384	 -0.865133
H	 -1.188857	 -1.400312	 0.865225
H	 -2.548170	 0.725504	 -0.873205
H	 -3.371613	 -0.556398	 -0.000040
H	 -2.548215	 0.725571	 0.873047
C	 2.266078	 -0.180661	 -0.628013
H	 2.078436	 0.015945	 -1.673179
H	 3.021186	 -0.942544	 -0.522318
H	 2.588294	 0.732525	 -0.149982

	symmetry c1
}
set optking {
	frozen_dihedral = ("
		11 4 2 3
	")
}

ee = optimize('scf')
oeprop('DIPOLE', 'QUADRUPOLE', 'MULLIKEN_CHARGES')
f=open( 'psi4out.xyz', 'w' )
f.write( "14  " )
f.write( str(ee) + "\n" )
f.write( MOL.save_string_xyz() )
f.close()
--------------------------------------------------------------------------

    Molecular point group: c1
  Charge       = 0
  Multiplicity = 1
  Basis Set: CC-PVTZ
  Basis Set:
  @DF-RHF Final Energy:  -305.98267356820361
    Total Energy =                       -305.9826735682033814
    Molecular point group: c1
  Basis Set: CC-PVTZ
  Basis Set:
  Basis Set: CC-PVTZ
  Basis Set:
  @DF-RHF Final Energy:  -305.98022228736454
    Total Energy =                       -305.9802222873647679
  Basis Set: CC-PVTZ
  Basis Set:
  Basis Set: CC-PVTZ
  Basis Set:
  @DF-RHF Final Energy:  -305.98313843285803
    Total Energy =                       -305.9831384328583681
  Basis Set: CC-PVTZ
  Basis Set:
  Basis Set: CC-PVTZ
  Basis Set:
  @DF-RHF Final Energy:  -305.98327254357514
    Total Energy =                       -305.9832725435753105
  Basis Set: CC-PVTZ
  Basis Set:
  Basis Set: CC-PVTZ
  Basis Set:
  @DF-RHF Final Energy:  -305.98331216205059
    Total Energy =                       -305.9833121620505381
  Basis Set: CC-PVTZ
  Basis Set:
  Basis Set: CC-PVTZ
  Basis Set:
  @DF-RHF Final Energy:  -305.98331928263735
    Total Energy =                       -305.9833192826371260
  Basis Set: CC-PVTZ
  Basis Set:
  Charge       = 0
  Multiplicity = 1
  Basis Set: CC-PVTZ
  Basis Set:

    Orbital Energies (a.u.)
    -----------------------

    Doubly Occupied:

       1A    -20.593110     2A    -20.536853     3A    -11.366038
       4A    -11.280893     5A    -11.238162     6A    -11.215463
       7A     -1.470532     8A     -1.367187     9A     -1.065196
      10A     -0.980220    11A     -0.881642    12A     -0.770120
      13A     -0.702461    14A     -0.683451    15A     -0.675820
      16A     -0.621752    17A     -0.605667    18A     -0.551551
      19A     -0.540114    20A     -0.521738    21A     -0.513476
      22A     -0.497891    23A     -0.460595    24A     -0.441440

  @DF-RHF Final Energy:  -305.98331965285479

   => Energetics <=

    Nuclear Repulsion Energy =            247.3643641967147460
    One-Electron Energy =                -907.5326220649957349
    Two-Electron Energy =                 354.1849382154260297
    DFT Exchange-Correlation Energy =       0.0000000000000000
    Empirical Dispersion Energy =           0.0000000000000000
    PCM Polarization Energy =               0.0000000000000000
    EFP Energy =                            0.0000000000000000
    Total Energy =                       -305.9833196528549593
    Molecular point group: c1
  Basis Set: CC-PVTZ
  Basis Set:

  -Total Gradient:
     Atom            X                  Y                   Z
    ------   -----------------  -----------------  -----------------
       1        0.000047056643    -0.000085630903     0.000062168715
       2       -0.001322013427    -0.000542647494     0.005599786102
       3        0.000264601992    -0.000695994574    -0.005895130303
       4        0.002642769873     0.004765426458     0.005740243574
       5        0.000011321674    -0.000025133657    -0.000001629654
       6       -0.000005758828    -0.000002004685     0.000002167061
       7        0.000006965759    -0.000004635376     0.000002007641
       8       -0.000005066719     0.000008715208    -0.000006706660
       9        0.000000070564     0.000005058442    -0.000001832376
      10        0.000002315162    -0.000001025673    -0.000000319091
      11       -0.001663828609    -0.003457000903    -0.005521006058
      12        0.000013586894     0.000014839274     0.000001767219
      13        0.000004712117     0.000007112301     0.000008082823
      14        0.000003266911     0.000012921580     0.000010401007

  **** Optimization is complete! (in 7 steps) ****
    Final optimized geometry and variables:
    Molecular point group: c1

    Geometry (in Angstrom), charge = 0, multiplicity = 1:

    O            0.072752596673     1.276948347767    -0.139365128009
    C            0.038719351801     0.114466313856     0.073294813529
    C           -1.212898123757    -0.723099604264     0.113710488285
    O            1.129664774756    -0.629462557907     0.213731653605
    C           -2.491687146972     0.093593915573     0.207170277094
    H           -1.194022583211    -1.317638889098    -0.794665140911
    H           -1.126506917547    -1.428184599298     0.931713906291
    H           -2.575838109411     0.780200605794    -0.623700247922
    H           -3.353980618552    -0.561807049597     0.201132474738
    H           -2.515326086586     0.676390141726     1.119154964387
    C            2.309484007012    -0.173985870626    -0.418136722614
    H            2.130294292633    -0.008180790420    -1.471399140917
    H            3.040114783439    -0.955460708590    -0.286798375076
    H            2.662236036717     0.742717492009     0.029612064921

  Mulliken Charges: (a.u.)
   Center  Symbol    Alpha    Beta     Spin     Total
       1     O     4.19156  4.19156  0.00000 -0.38313
       2     C     2.80262  2.80262  0.00000  0.39476
       3     C     3.09252  3.09252  0.00000 -0.18505
       4     O     4.15175  4.15175  0.00000 -0.30349
       5     C     3.14104  3.14104  0.00000 -0.28208
       6     H     0.44512  0.44512  0.00000  0.10975
       7     H     0.43897  0.43897  0.00000  0.12207
       8     H     0.44567  0.44567  0.00000  0.10866
       9     H     0.45021  0.45021  0.00000  0.09958
      10     H     0.45030  0.45030  0.00000  0.09940
      11     C     3.03527  3.03527  0.00000 -0.07055
      12     H     0.46016  0.46016  0.00000  0.07969
      13     H     0.44555  0.44555  0.00000  0.10890
      14     H     0.44925  0.44925  0.00000  0.10149

   Total alpha = 24.00000, Total beta = 24.00000, Total charge = -0.00000
