                              Psi4 1.0.54 Driver

  ==> Input File <==

--------------------------------------------------------------------------
set {
	reference rhf
	basis cc-pvtz
}

set_num_threads( 4 )
memory 2 gb

molecule MOL {
0 1

O	 -2.817697	 1.304178	 0.001046
C	 -2.664672	 0.129869	 0.003507
C	 -3.797908	 -0.860100	 -0.001145
O	 -1.481217	 -0.452708	 0.001092
H	 -4.408836	 -0.679689	 -0.875387
H	 -3.443486	 -1.878443	 -0.002770
H	 -4.412123	 -0.683688	 0.871605
C	 -0.332055	 0.384012	 -0.000250
C	 0.892252	 -0.506059	 -0.000295
H	 -0.360822	 1.020205	 -0.874146
H	 -0.359817	 1.021310	 0.872861
C	 2.188199	 0.299473	 -0.001416
H	 0.857046	 -1.152781	 -0.871031
H	 0.857910	 -1.151798	 0.871202
C	 3.437151	 -0.577593	 -0.000991
H	 2.209565	 0.950707	 -0.871712
H	 2.210062	 0.952234	 0.867721
C	 3.984698	 -0.838430	 -1.399978
H	 3.209218	 -1.524809	 0.479514
H	 4.205578	 -0.105881	 0.604892
H	 3.250254	 -1.340972	 -2.020373
H	 4.869766	 -1.462846	 -1.364406
H	 4.254030	 0.088991	 -1.894148

	symmetry c1
}
set optking {
	frozen_dihedral = ("
		19 15 12 16
	")
}

ee,wfn = optimize('scf', return_wfn=True)
oeprop( wfn, 'DIPOLE', 'QUADRUPOLE', 'MULLIKEN_CHARGES')
f=open( 'psi4out.xyz', 'w' )
f.write( "23  " )
f.write( str(ee) + "\n" )
f.write( MOL.save_string_xyz() )
f.close()
--------------------------------------------------------------------------

    Molecular point group: c1
  Charge       = 0
  Multiplicity = 1
  Basis Set: CC-PVTZ
  Basis Set:
  @DF-RHF Final Energy:  -423.13081680281363
    Total Energy =                       -423.1308168028136834
    Molecular point group: c1
  Basis Set: CC-PVTZ
  Basis Set:
  Basis Set: CC-PVTZ
  Basis Set:
  @DF-RHF Final Energy:  -423.13089979730518
    Total Energy =                       -423.1308997973054602
  Basis Set: CC-PVTZ
  Basis Set:
  Basis Set: CC-PVTZ
  Basis Set:
  @DF-RHF Final Energy:  -423.13102315279474
    Total Energy =                       -423.1310231527950236
  Basis Set: CC-PVTZ
  Basis Set:
  Basis Set: CC-PVTZ
  Basis Set:
  @DF-RHF Final Energy:  -423.13116172872151
    Total Energy =                       -423.1311617287213949
  Basis Set: CC-PVTZ
  Basis Set:
  Basis Set: CC-PVTZ
  Basis Set:
  @DF-RHF Final Energy:  -423.13116285976662
    Total Energy =                       -423.1311628597663912
  Basis Set: CC-PVTZ
  Basis Set:
  Charge       = 0
  Multiplicity = 1
  Basis Set: CC-PVTZ
  Basis Set:

    Orbital Energies (a.u.)
    -----------------------

    Doubly Occupied:

       1A    -20.595965     2A    -20.529549     3A    -11.366422
       4A    -11.279311     5A    -11.230704     6A    -11.222394
       7A    -11.221391     8A    -11.219551     9A    -11.211283
      10A     -1.471175    11A     -1.364024    12A     -1.094683
      13A     -1.042122    14A     -1.003203    15A     -0.931206
      16A     -0.848534    17A     -0.798892    18A     -0.774899
      19A     -0.694114    20A     -0.688481    21A     -0.672775
      22A     -0.636070    23A     -0.618645    24A     -0.597221
      25A     -0.581080    26A     -0.572122    27A     -0.547982
      28A     -0.534203    29A     -0.528348    30A     -0.506810
      31A     -0.499691    32A     -0.474273    33A     -0.466915
      34A     -0.465671    35A     -0.455258    36A     -0.438822

  @DF-RHF Final Energy:  -423.13116303929803

   => Energetics <=

    Nuclear Repulsion Energy =            453.6579921135507902
    One-Electron Energy =               -1475.2107249857563147
    Two-Electron Energy =                 598.4215698329078350
    DFT Exchange-Correlation Energy =       0.0000000000000000
    Empirical Dispersion Energy =           0.0000000000000000
    PCM Polarization Energy =               0.0000000000000000
    EFP Energy =                            0.0000000000000000
    Total Energy =                       -423.1311630392976895
    Molecular point group: c1
  Basis Set: CC-PVTZ
  Basis Set:

  -Total Gradient:
     Atom            X                  Y                   Z
    ------   -----------------  -----------------  -----------------
       1       -0.000000031836     0.000004095408    -0.000004349802
       2        0.000006397304    -0.000009263420     0.000007289760
       3       -0.000002169176    -0.000000905438     0.000002290452
       4       -0.000008045319     0.000003628045    -0.000013862732
       5        0.000000580497    -0.000000727124     0.000000595683
       6       -0.000000248960     0.000001260799    -0.000000136106
       7        0.000004630619     0.000001425320    -0.000004749107
       8       -0.000003420969     0.000002199585     0.000027183393
       9        0.000013012605     0.000003058821     0.000001970429
      10       -0.000006763644    -0.000000073454    -0.000005077064
      11        0.000004459180    -0.000000950089    -0.000006600256
      12        0.001801111746     0.002508013729     0.001460626735
      13        0.000000412355    -0.000000299738     0.000003563357
      14       -0.000005412555    -0.000001027363     0.000000249655
      15        0.000826980200     0.000975943661     0.003181544005
      16       -0.001642245046    -0.002262040775    -0.001730321551
      17       -0.000002058760    -0.000008271961    -0.000005923616
      18        0.000000677308    -0.000005684982     0.000000895090
      19       -0.000972855403    -0.001212217850    -0.002907852386
      20       -0.000015769228    -0.000003720641    -0.000009202110
      21        0.000009960436     0.000003844597     0.000005376917
      22       -0.000005477607     0.000004940715    -0.000003638916
      23       -0.000003723749    -0.000003227840     0.000000128167

  **** Optimization is complete! (in 6 steps) ****
    Final optimized geometry and variables:
    Molecular point group: c1

    Geometry (in Angstrom), charge = 0, multiplicity = 1:

    O           -2.728653756524     1.422470625145     0.108550147048
    C           -2.573864955239     0.248844185374     0.142246553142
    C           -3.705637907817    -0.742942802026     0.155125119506
    O           -1.389548629452    -0.331052558045     0.172610245592
    H           -4.308238279654    -0.588663176063    -0.729892416807
    H           -3.349701406941    -1.760321070954     0.186157465942
    H           -4.328582977973    -0.542625093007     1.016523910745
    C           -0.242119353386     0.507658456728     0.164279071308
    C            0.983823155400    -0.379143583003     0.202209675891
    H           -0.260953461393     1.121644746732    -0.725707595681
    H           -0.281328488453     1.167274478555     1.020456098192
    C            2.279555512072     0.431959040936     0.212985686926
    H            0.963367808240    -1.042304972316    -0.656496707913
    H            0.936176120100    -1.008171179639     1.085012261562
    C            3.537578506589    -0.448616528712     0.163068100872
    H            2.274137104440     1.096361556771    -0.646755366985
    H            2.297261927046     1.058692341522     1.098318123533
    C            4.028257666198    -0.716396914064    -1.258650768351
    H            3.326213522030    -1.403307248350     0.634885684579
    H            4.336333116067     0.015052390608     0.730343736910
    H            3.256709771885    -1.181022006062    -1.863393398971
    H            4.886645290352    -1.378324908827    -1.257635257308
    H            4.321052914587     0.205413568682    -1.749577246863

  Mulliken Charges: (a.u.)
   Center  Symbol    Alpha    Beta     Spin     Total
       1     O     4.20242  4.20242  0.00000 -0.40484
       2     C     2.81514  2.81514  0.00000  0.36972
       3     C     3.13990  3.13990  0.00000 -0.27980
       4     O     4.14502  4.14502  0.00000 -0.29004
       5     H     0.44210  0.44210  0.00000  0.11580
       6     H     0.44190  0.44190  0.00000  0.11620
       7     H     0.44211  0.44211  0.00000  0.11577
       8     C     2.97943  2.97943  0.00000  0.04113
       9     C     3.08287  3.08287  0.00000 -0.16574
      10     H     0.45362  0.45362  0.00000  0.09277
      11     H     0.45370  0.45370  0.00000  0.09260
      12     C     3.10454  3.10454  0.00000 -0.20909
      13     H     0.45069  0.45069  0.00000  0.09862
      14     H     0.45046  0.45046  0.00000  0.09908
      15     C     3.09070  3.09070  0.00000 -0.18141
      16     H     0.45412  0.45412  0.00000  0.09177
      17     H     0.44525  0.44525  0.00000  0.10949
      18     C     3.14796  3.14796  0.00000 -0.29591
      19     H     0.45470  0.45470  0.00000  0.09061
      20     H     0.44619  0.44619  0.00000  0.10761
      21     H     0.45497  0.45497  0.00000  0.09006
      22     H     0.44782  0.44782  0.00000  0.10435
      23     H     0.45438  0.45438  0.00000  0.09124

   Total alpha = 36.00000, Total beta = 36.00000, Total charge = -0.00000

*** Psi4 exiting successfully. Buy a developer a beer!
