  ==> Input File <==

--------------------------------------------------------------------------
set {
	reference rhf
	basis 6-31G*
}

set_num_threads( 1 )
memory 2 gb

molecule MOL {
0 1

H	 0.716208	 2.689711	 -4.778060
C	 0.827503	 2.215366	 -3.819209
C	 0.224370	 2.769037	 -2.699912
C	 1.573372	 1.052643	 -3.706574
H	 -0.353812	 3.670812	 -2.788649
C	 0.367926	 2.158550	 -1.467362
H	 2.040177	 0.624908	 -4.575333
C	 1.718437	 0.439802	 -2.473791
H	 -0.091674	 2.572825	 -0.590540
C	 1.115205	 0.992213	 -1.350085
H	 2.294727	 -0.460081	 -2.382016
C	 1.239129	 0.373821	 0.000060
O	 1.970282	 -0.730723	 0.000018
O	 0.736774	 0.818378	 0.984370
C	 3.377318	 -0.566646	 -0.000065
H	 3.695437	 -0.028981	 -0.881264
H	 3.789299	 -1.563704	 0.000236
H	 3.695516	 -0.028316	 0.880770

	symmetry c1
}
set optking {
	frozen_dihedral = ("
		12 13 15 16,
		13 12 10 6
	")
}

ee = energy('scf')
oeprop('DIPOLE', 'QUADRUPOLE', 'MULLIKEN_CHARGES')
f=open( 'psi4out.xyz', 'w' )
f.write( "18  " )
f.write( str(ee) + "\n" )
f.write( MOL.save_string_xyz() )
f.close()
--------------------------------------------------------------------------

    Molecular point group: c1

    Geometry (in Angstrom), charge = 0, multiplicity = 1:

       Center              X                  Y                   Z               Mass
    ------------   -----------------  -----------------  -----------------  -----------------
           H         -0.640090107105     1.791857504696    -3.413209810196     1.007825032070
           C         -0.528795107105     1.317512504696    -2.454358810196    12.000000000000
           C         -1.131928107105     1.871183504696    -1.335061810196    12.000000000000
           C          0.217073892895     0.154789504696    -2.341723810196    12.000000000000
           H         -1.710110107105     2.772958504696    -1.423798810196     1.007825032070
           C         -0.988372107105     1.260696504696    -0.102511810196    12.000000000000
           H          0.683878892895    -0.272945495304    -3.210482810196     1.007825032070
           C          0.362138892895    -0.458051495304    -1.108940810196    12.000000000000
           H         -1.447972107105     1.674971504696     0.774310189804     1.007825032070
           C         -0.241093107105     0.094359504696     0.014765189804    12.000000000000
           H          0.938428892895    -1.357934495304    -1.017165810196     1.007825032070
           C         -0.117169107105    -0.524032495304     1.364910189804    12.000000000000
           O          0.613983892895    -1.628576495304     1.364868189804    15.994914619560
           O         -0.619524107105    -0.079475495304     2.349220189804    15.994914619560
           C          2.021019892895    -1.464499495304     1.364785189804    12.000000000000
           H          2.339138892895    -0.926834495304     0.483586189804     1.007825032070
           H          2.433000892895    -2.461557495304     1.365086189804     1.007825032070
           H          2.339217892895    -0.926169495304     2.245620189804     1.007825032070

  Charge       = 0
  Multiplicity = 1
  Basis Set: 6-31G*
  Basis Set:

    Orbital Energies (a.u.)
    -----------------------

    Doubly Occupied:

       1A    -20.591071     2A    -20.553255     3A    -11.378565
       4A    -11.294881     5A    -11.251193     6A    -11.250114
       7A    -11.247157     8A    -11.245097     9A    -11.243323
      10A    -11.241125    11A     -1.466484    12A     -1.368539
      13A     -1.169658    14A     -1.046213    15A     -1.030004
      16A     -0.983953    17A     -0.872262    18A     -0.841961
      19A     -0.782516    20A     -0.740270    21A     -0.687610
      22A     -0.675967    23A     -0.667723    24A     -0.643041
      25A     -0.628041    26A     -0.609675    27A     -0.594375
      28A     -0.563034    29A     -0.531894    30A     -0.522079
      31A     -0.505102    32A     -0.489949    33A     -0.465050
      34A     -0.442521    35A     -0.349058    36A     -0.345808

  @DF-RHF Final Energy:  -457.32689179363643

   => Energetics <=

    Nuclear Repulsion Energy =            499.1252287211688667
    One-Electron Energy =               -1612.2671333695523117
    Two-Electron Energy =                 655.8150128547492841
    DFT Exchange-Correlation Energy =       0.0000000000000000
    Empirical Dispersion Energy =           0.0000000000000000
    PCM Polarization Energy =               0.0000000000000000
    EFP Energy =                            0.0000000000000000
    Total Energy =                       -457.3268917936341040

  Mulliken Charges: (a.u.)
   Center  Symbol    Alpha    Beta     Spin     Total
       1     H     0.39430  0.39430  0.00000  0.21140
       2     C     3.09043  3.09043  0.00000 -0.18086
       3     C     3.10633  3.10633  0.00000 -0.21265
       4     C     3.10673  3.10673  0.00000 -0.21346
       5     H     0.39432  0.39432  0.00000  0.21136
       6     C     3.08477  3.08477  0.00000 -0.16955
       7     H     0.39560  0.39560  0.00000  0.20881
       8     C     3.09585  3.09585  0.00000 -0.19170
       9     H     0.37513  0.37513  0.00000  0.24974
      10     C     3.07700  3.07700  0.00000 -0.15400
      11     H     0.38385  0.38385  0.00000  0.23230
      12     C     2.59286  2.59286  0.00000  0.81429
      13     O     4.31552  4.31552  0.00000 -0.63105
      14     O     4.26432  4.26432  0.00000 -0.52864
      15     C     3.09875  3.09875  0.00000 -0.19750
      16     H     0.41735  0.41735  0.00000  0.16530
      17     H     0.40100  0.40100  0.00000  0.19800
      18     H     0.40589  0.40589  0.00000  0.18822

   Total alpha = 36.00000, Total beta = 36.00000, Total charge =  0.00000
