                              Psi4 1.0.54 Driver

  ==> Input File <==

--------------------------------------------------------------------------
set {
	reference rhf
	basis cc-pvtz
}

set_num_threads( 4 )
memory 2 gb

molecule MOL {
0 1

H	 -1.928080	 -0.414684	 2.125366
C	 -1.372303	 -0.267373	 1.223509
C	 -1.942534	 0.386381	 0.084827
C	 -0.110482	 -0.692850	 1.124461
H	 -2.955266	 0.740342	 0.132185
C	 -1.225752	 0.557636	 -1.030283
H	 0.385204	 -1.190894	 1.934021
N	 0.640204	 -0.530428	 -0.000115
H	 -1.619261	 1.041624	 -1.900265
C	 0.149770	 0.092578	 -1.134649
C	 2.006991	 -1.033007	 -0.000020
O	 0.825408	 0.227770	 -2.118254
H	 2.182444	 -1.636914	 -0.880881
H	 2.678769	 -0.195442	 -0.002236
H	 2.183828	 -1.633244	 0.883082

	symmetry c1
}
set optking {
	frozen_dihedral = ("
		10 8 11 13
	")
}

ee,wfn = optimize('scf', return_wfn=True)
oeprop( wfn, 'DIPOLE', 'QUADRUPOLE', 'MULLIKEN_CHARGES')
f=open( 'psi4out.xyz', 'w' )
f.write( "15  " )
f.write( str(ee) + "\n" )
f.write( MOL.save_string_xyz() )
f.close()
--------------------------------------------------------------------------

    Molecular point group: c1
  Charge       = 0
  Multiplicity = 1
  Basis Set: CC-PVTZ
  Basis Set:
  @DF-RHF Final Energy:  -360.72269109229842
    Total Energy =                       -360.7226910922984189
    Molecular point group: c1
  Basis Set: CC-PVTZ
  Basis Set:
  Basis Set: CC-PVTZ
  Basis Set:
  @DF-RHF Final Energy:  -360.72345972698389
    Total Energy =                       -360.7234597269838332
  Basis Set: CC-PVTZ
  Basis Set:
  Basis Set: CC-PVTZ
  Basis Set:
  @DF-RHF Final Energy:  -360.72354954426709
    Total Energy =                       -360.7235495442673709
  Basis Set: CC-PVTZ
  Basis Set:
  Basis Set: CC-PVTZ
  Basis Set:
  @DF-RHF Final Energy:  -360.72350648292968
    Total Energy =                       -360.7235064829294515
  Basis Set: CC-PVTZ
  Basis Set:
  Charge       = 0
  Multiplicity = 1
  Basis Set: CC-PVTZ
  Basis Set:

    Orbital Energies (a.u.)
    -----------------------

    Doubly Occupied:

       1A    -20.501990     2A    -15.617855     3A    -11.337599
       4A    -11.294643     5A    -11.266006     6A    -11.258159
       7A    -11.229499     8A    -11.227793     9A     -1.391288
      10A     -1.285884    11A     -1.118840    12A     -1.029386
      13A     -0.972640    14A     -0.876625    15A     -0.838989
      16A     -0.719685    17A     -0.702013    18A     -0.664054
      19A     -0.653272    20A     -0.626341    21A     -0.611929
      22A     -0.575493    23A     -0.552052    24A     -0.551043
      25A     -0.531430    26A     -0.484828    27A     -0.420458
      28A     -0.410691    29A     -0.310068

  @DF-RHF Final Energy:  -360.72356254120530

   => Energetics <=

    Nuclear Repulsion Energy =            358.8872131974384274
    One-Electron Energy =               -1201.1004524502061486
    Two-Electron Energy =                 481.4896767115625380
    DFT Exchange-Correlation Energy =       0.0000000000000000
    Empirical Dispersion Energy =           0.0000000000000000
    PCM Polarization Energy =               0.0000000000000000
    EFP Energy =                            0.0000000000000000
    Total Energy =                       -360.7235625412051832
    Molecular point group: c1
  Basis Set: CC-PVTZ
  Basis Set:

  -Total Gradient:
     Atom            X                  Y                   Z
    ------   -----------------  -----------------  -----------------
       1       -0.000004532778    -0.000001089139     0.000002029260
       2        0.000262751991    -0.000086613874     0.000032551726
       3       -0.000044464267     0.000105595773    -0.000234398465
       4       -0.000297275367    -0.000022933077     0.000274185260
       5        0.000007730090    -0.000005561133     0.000008902959
       6       -0.000227682286     0.000060895033     0.000094485483
       7        0.000021119070     0.000017210245    -0.000026796657
       8        0.000327392547     0.000852131217    -0.000189598151
       9        0.000016880784     0.000005909201    -0.000022619389
      10       -0.000050723974    -0.000733773957     0.000322024399
      11       -0.000279682773    -0.000852917927     0.000238022944
      12        0.000100554205     0.000120305139    -0.000279421002
      13        0.000145536089     0.000523243781    -0.000240494322
      14        0.000008822619     0.000037545253    -0.000009572523
      15        0.000013574049    -0.000019946534     0.000030698476

  **** Optimization is complete! (in 5 steps) ****
    Final optimized geometry and variables:
    Molecular point group: c1

    Geometry (in Angstrom), charge = 0, multiplicity = 1:

    H           -1.869142841352    -0.225730824617     2.390022312822
    C           -1.312244489242    -0.085896663580     1.487688871193
    C           -1.880014527098     0.562099235679     0.345657646573
    C           -0.051586446529    -0.520673366570     1.393678489984
    H           -2.891806468565     0.918931709325     0.392001612008
    C           -1.163967424714     0.725101973718    -0.772363960059
    H            0.438086442424    -1.016438486339     2.207067910664
    N            0.694999904107    -0.367772780103     0.267289456398
    H           -1.555852349666     1.205740177352    -1.645065566679
    C            0.209291501087     0.257845188109    -0.865692391254
    C            2.065133276325    -0.853619280576     0.214323664629
    O            0.906999350456     0.387004889430    -1.835122875437
    H            2.211011452115    -1.438810725540    -0.679116235945
    H            2.760058884272    -0.025834457995     0.188901543190
    H            2.258221635332    -1.460320798957     1.085614109199

  Mulliken Charges: (a.u.)
   Center  Symbol    Alpha    Beta     Spin     Total
       1     H     0.41401  0.41401  0.00000  0.17198
       2     C     3.10682  3.10682  0.00000 -0.21364
       3     C     3.05937  3.05937  0.00000 -0.11874
       4     C     3.03885  3.03885  0.00000 -0.07771
       5     H     0.41842  0.41842  0.00000  0.16315
       6     C     3.11833  3.11833  0.00000 -0.23667
       7     H     0.41900  0.41900  0.00000  0.16199
       8     N     3.50848  3.50848  0.00000 -0.01696
       9     H     0.40934  0.40934  0.00000  0.18131
      10     C     2.84568  2.84568  0.00000  0.30864
      11     C     3.09217  3.09217  0.00000 -0.18433
      12     O     4.23573  4.23573  0.00000 -0.47146
      13     H     0.43576  0.43576  0.00000  0.12847
      14     H     0.44273  0.44273  0.00000  0.11454
      15     H     0.45529  0.45529  0.00000  0.08942

   Total alpha = 29.00000, Total beta = 29.00000, Total charge = -0.00000

*** Psi4 exiting successfully. Buy a developer a beer!
