                              Psi4 1.0.54 Driver

  ==> Input File <==

--------------------------------------------------------------------------
set {
	reference rhf
	basis cc-pvtz
}

set_num_threads( 4 )
memory 2 gb

molecule MOL {
0 1

H	 -3.144994	 -1.202467	 -0.018751
O	 -2.321472	 -0.864941	 -0.318626
C	 -2.021813	 0.336996	 0.342658
C	 -0.669613	 0.837286	 -0.127252
H	 -2.780861	 1.084746	 0.127159
H	 -2.006390	 0.184138	 1.420053
C	 0.490865	 -0.082543	 0.241244
H	 -0.708709	 0.967192	 -1.204587
H	 -0.507562	 1.822272	 0.303070
C	 1.839800	 0.429565	 -0.255472
H	 0.305636	 -1.070211	 -0.165276
H	 0.527397	 -0.195943	 1.322876
C	 1.719288	 1.367620	 -1.451848
H	 2.347405	 0.944946	 0.555345
H	 2.471494	 -0.413962	 -0.522144
H	 1.122016	 2.239178	 -1.205739
H	 2.692625	 1.715114	 -1.779213
H	 1.245716	 0.871115	 -2.292477

	symmetry c1
}
set optking {
	frozen_dihedral = ("
		14 10 7 11
	")
}

ee,wfn = optimize('scf', return_wfn=True)
oeprop( wfn, 'DIPOLE', 'QUADRUPOLE', 'MULLIKEN_CHARGES')
f=open( 'psi4out.xyz', 'w' )
f.write( "18  " )
f.write( str(ee) + "\n" )
f.write( MOL.save_string_xyz() )
f.close()
--------------------------------------------------------------------------

    Molecular point group: c1
  Charge       = 0
  Multiplicity = 1
  Basis Set: CC-PVTZ
  Basis Set:
  @DF-RHF Final Energy:  -271.27649703806560
    Total Energy =                       -271.2764970380658269
    Molecular point group: c1
  Basis Set: CC-PVTZ
  Basis Set:
  Basis Set: CC-PVTZ
  Basis Set:
  @DF-RHF Final Energy:  -271.27658277194593
    Total Energy =                       -271.2765827719456411
  Basis Set: CC-PVTZ
  Basis Set:
  Basis Set: CC-PVTZ
  Basis Set:
  @DF-RHF Final Energy:  -271.27985402096897
    Total Energy =                       -271.2798540209690259
  Basis Set: CC-PVTZ
  Basis Set:
  Basis Set: CC-PVTZ
  Basis Set:
  @DF-RHF Final Energy:  -271.28014219100339
    Total Energy =                       -271.2801421910033923
  Basis Set: CC-PVTZ
  Basis Set:
  Basis Set: CC-PVTZ
  Basis Set:
  @DF-RHF Final Energy:  -271.28017642278746
    Total Energy =                       -271.2801764227875765
  Basis Set: CC-PVTZ
  Basis Set:
  Basis Set: CC-PVTZ
  Basis Set:
  @DF-RHF Final Energy:  -271.28017798570278
    Total Energy =                       -271.2801779857026645
  Basis Set: CC-PVTZ
  Basis Set:
  Basis Set: CC-PVTZ
  Basis Set:
  @DF-RHF Final Energy:  -271.28017758833869
    Total Energy =                       -271.2801775883388018
  Basis Set: CC-PVTZ
  Basis Set:
  Charge       = 0
  Multiplicity = 1
  Basis Set: CC-PVTZ
  Basis Set:

    Orbital Energies (a.u.)
    -----------------------

    Doubly Occupied:

       1A    -20.546020     2A    -11.265779     3A    -11.210212
       4A    -11.209526     5A    -11.205181     6A    -11.203005
       7A     -1.363870     8A     -1.074018     9A     -1.006814
      10A     -0.916614    11A     -0.834405    12A     -0.766979
      13A     -0.707488    14A     -0.642812    15A     -0.617303
      16A     -0.603299    17A     -0.561889    18A     -0.553572
      19A     -0.530082    20A     -0.509759    21A     -0.490444
      22A     -0.465006    23A     -0.451225    24A     -0.446939
      25A     -0.429920

  @DF-RHF Final Energy:  -271.28017778306275

   => Energetics <=

    Nuclear Repulsion Energy =            252.2954701601312024
    One-Electron Energy =                -867.9269667410598004
    Two-Electron Energy =                 344.3513187978659857
    DFT Exchange-Correlation Energy =       0.0000000000000000
    Empirical Dispersion Energy =           0.0000000000000000
    PCM Polarization Energy =               0.0000000000000000
    EFP Energy =                            0.0000000000000000
    Total Energy =                       -271.2801777830625838
    Molecular point group: c1
  Basis Set: CC-PVTZ
  Basis Set:

  -Total Gradient:
     Atom            X                  Y                   Z
    ------   -----------------  -----------------  -----------------
       1        0.000021879246     0.000021164614     0.000009771049
       2        0.000009107501    -0.000131650600    -0.000109469039
       3       -0.000079301382    -0.000019222702     0.000126450463
       4        0.000106939318     0.000007953456     0.000029550880
       5        0.000016637027     0.000082262301    -0.000000216838
       6        0.000009191640     0.000040591884     0.000019493878
       7       -0.002560086607     0.001940867414    -0.005755929002
       8       -0.000062367835     0.000016030989    -0.000019912009
       9       -0.000010864896    -0.000024565064    -0.000062040929
      10       -0.002706332460     0.005961937263    -0.001027556562
      11        0.002582471924    -0.002613383128     0.004975160472
      12        0.000021566549     0.000002581455    -0.000048918228
      13        0.000163517791     0.000103394418     0.000099974181
      14        0.002592037781    -0.005318267382     0.001722962286
      15       -0.000015759675    -0.000016140503     0.000073138340
      16        0.000017479913     0.000009251302    -0.000004656517
      17       -0.000077640336    -0.000029361472    -0.000036745745
      18       -0.000028475495    -0.000033444250     0.000008943320

  **** Optimization is complete! (in 8 steps) ****
    Final optimized geometry and variables:
    Molecular point group: c1

    Geometry (in Angstrom), charge = 0, multiplicity = 1:

    H           -2.942419241938    -1.555494411420     0.346815252538
    O           -2.143957015643    -1.194191093654     0.009499850630
    C           -1.825938645970    -0.007127755245     0.689041747389
    C           -0.516530938922     0.537264309184     0.150044278141
    H           -2.611043657681     0.731051101902     0.545334291664
    H           -1.739251696074    -0.192520165604     1.757811586418
    C            0.672519008447    -0.379467443318     0.421894672293
    H           -0.635157887585     0.706460022468    -0.913957597054
    H           -0.346870124568     1.508583205167     0.607709458801
    C            2.055708597344     0.148916270804    -0.007927761285
    H            0.501658678710    -1.356454310856    -0.012293377121
    H            0.713370909924    -0.565040670866     1.492928766862
    C            2.094420677037     1.039600036578    -1.245645715358
    H            2.531825052980     0.646260544216     0.831854448576
    H            2.687713220926    -0.714307740061    -0.195968172705
    H            1.560012213889     1.970094771769    -1.096832498816
    H            3.118673785534     1.288110462340    -1.498688832222
    H            1.656579554140     0.540485102492    -2.103679363920

  Mulliken Charges: (a.u.)
   Center  Symbol    Alpha    Beta     Spin     Total
       1     H     0.39569  0.39569  0.00000  0.20862
       2     O     4.19872  4.19872  0.00000 -0.39744
       3     C     2.97550  2.97550  0.00000  0.04900
       4     C     3.09342  3.09342  0.00000 -0.18684
       5     H     0.46534  0.46534  0.00000  0.06932
       6     H     0.47322  0.47322  0.00000  0.05357
       7     C     3.09452  3.09452  0.00000 -0.18903
       8     H     0.44935  0.44935  0.00000  0.10129
       9     H     0.45272  0.45272  0.00000  0.09456
      10     C     3.08840  3.08840  0.00000 -0.17680
      11     H     0.44198  0.44198  0.00000  0.11605
      12     H     0.45763  0.45763  0.00000  0.08473
      13     C     3.15651  3.15651  0.00000 -0.31303
      14     H     0.45367  0.45367  0.00000  0.09266
      15     H     0.45237  0.45237  0.00000  0.09525
      16     H     0.45341  0.45341  0.00000  0.09319
      17     H     0.44587  0.44587  0.00000  0.10827
      18     H     0.45169  0.45169  0.00000  0.09662

   Total alpha = 25.00000, Total beta = 25.00000, Total charge =  0.00000

*** Psi4 exiting successfully. Buy a developer a beer!
