  ==> Input File <==

--------------------------------------------------------------------------
set {
	reference rhf
	basis 6-31G*
}

set_num_threads( 1 )
memory 2 gb

molecule MOL {
0 1

H	 -4.031818	 -0.453427	 -0.000094
C	 -2.967712	 -0.297022	 -0.000064
C	 -2.458620	 0.992929	 0.000032
C	 -2.109895	 -1.385637	 -0.000122
H	 -3.124998	 1.836319	 0.000077
C	 -1.090278	 1.193236	 0.000070
H	 -2.506361	 -2.384847	 -0.000198
C	 -0.739812	 -1.187531	 -0.000085
H	 -0.678594	 2.184290	 0.000146
C	 -0.226438	 0.104061	 0.000012
H	 -0.072310	 -2.027032	 -0.000131
C	 1.239129	 0.373821	 0.000060
O	 1.711345	 0.675833	 1.200228
O	 1.924758	 0.325665	 -0.972798
C	 3.098570	 0.947524	 1.292220
H	 3.673877	 0.087823	 0.981202
H	 3.286290	 1.168659	 2.331312
H	 3.360031	 1.794362	 0.674626

	symmetry c1
}
set optking {
	frozen_dihedral = ("
		12 13 15 16,
		10 12 13 15
	")
}

ee = energy('scf')
oeprop('DIPOLE', 'QUADRUPOLE', 'MULLIKEN_CHARGES')
f=open( 'psi4out.xyz', 'w' )
f.write( "18  " )
f.write( str(ee) + "\n" )
f.write( MOL.save_string_xyz() )
f.close()
--------------------------------------------------------------------------

    Molecular point group: c1

    Geometry (in Angstrom), charge = 0, multiplicity = 1:

       Center              X                  Y                   Z               Mass
    ------------   -----------------  -----------------  -----------------  -----------------
           H         -3.995095887627    -0.652900521151    -0.170332322470     1.007825032070
           C         -2.930989887627    -0.496495521151    -0.170302322470    12.000000000000
           C         -2.421897887627     0.793455478849    -0.170206322470    12.000000000000
           C         -2.073172887627    -1.585110521151    -0.170360322470    12.000000000000
           H         -3.088275887627     1.636845478849    -0.170161322470     1.007825032070
           C         -1.053555887627     0.993762478849    -0.170168322470    12.000000000000
           H         -2.469638887627    -2.584320521151    -0.170436322470     1.007825032070
           C         -0.703089887627    -1.387004521151    -0.170323322470    12.000000000000
           H         -0.641871887627     1.984816478849    -0.170092322470     1.007825032070
           C         -0.189715887627    -0.095412521151    -0.170226322470    12.000000000000
           H         -0.035587887627    -2.226505521151    -0.170369322470     1.007825032070
           C          1.275851112373     0.174347478849    -0.170178322470    12.000000000000
           O          1.748067112373     0.476359478849     1.029989677530    15.994914619560
           O          1.961480112373     0.126191478849    -1.143036322470    15.994914619560
           C          3.135292112373     0.748050478849     1.121981677530    12.000000000000
           H          3.710599112373    -0.111650521151     0.810963677530     1.007825032070
           H          3.323012112373     0.969185478849     2.161073677530     1.007825032070
           H          3.396753112373     1.594888478849     0.504387677530     1.007825032070

  Charge       = 0
  Multiplicity = 1
  Basis Set: 6-31G*
  Basis Set:

    Orbital Energies (a.u.)
    -----------------------

    Doubly Occupied:

       1A    -20.609860     2A    -20.550116     3A    -11.380671
       4A    -11.283368     5A    -11.252146     6A    -11.244971
       7A    -11.244013     8A    -11.241169     9A    -11.240216
      10A    -11.239440    11A     -1.474853    12A     -1.365965
      13A     -1.166679    14A     -1.049528    15A     -1.026566
      16A     -0.979541    17A     -0.861317    18A     -0.839025
      19A     -0.780197    20A     -0.738099    21A     -0.686467
      22A     -0.679903    23A     -0.675980    24A     -0.631533
      25A     -0.629884    26A     -0.598499    27A     -0.591332
      28A     -0.546869    29A     -0.536460    30A     -0.517318
      31A     -0.508306    32A     -0.501758    33A     -0.458764
      34A     -0.445308    35A     -0.343527    36A     -0.341563

  @DF-RHF Final Energy:  -457.33803218430108

   => Energetics <=

    Nuclear Repulsion Energy =            491.5968681182325213
    One-Electron Energy =               -1597.3477693283437020
    Two-Electron Energy =                 648.4128690258094139
    DFT Exchange-Correlation Energy =       0.0000000000000000
    Empirical Dispersion Energy =           0.0000000000000000
    PCM Polarization Energy =               0.0000000000000000
    EFP Energy =                            0.0000000000000000
    Total Energy =                       -457.3380321843017100

  Mulliken Charges: (a.u.)
   Center  Symbol    Alpha    Beta     Spin     Total
       1     H     0.39661  0.39661  0.00000  0.20677
       2     C     3.09765  3.09765  0.00000 -0.19531
       3     C     3.09922  3.09922  0.00000 -0.19844
       4     C     3.10026  3.10026  0.00000 -0.20051
       5     H     0.39555  0.39555  0.00000  0.20890
       6     C     3.09699  3.09699  0.00000 -0.19399
       7     H     0.39530  0.39530  0.00000  0.20940
       8     C     3.09783  3.09783  0.00000 -0.19567
       9     H     0.39133  0.39133  0.00000  0.21734
      10     C     3.00824  3.00824  0.00000 -0.01648
      11     H     0.39043  0.39043  0.00000  0.21914
      12     C     2.64255  2.64255  0.00000  0.71490
      13     O     4.29594  4.29594  0.00000 -0.59188
      14     O     4.27544  4.27544  0.00000 -0.55088
      15     C     3.09375  3.09375  0.00000 -0.18750
      16     H     0.40801  0.40801  0.00000  0.18398
      17     H     0.40660  0.40660  0.00000  0.18680
      18     H     0.40829  0.40829  0.00000  0.18343

   Total alpha = 36.00000, Total beta = 36.00000, Total charge = -0.00000
