  ==> Input File <==

--------------------------------------------------------------------------
set {
	reference rhf
	basis 6-31G*
}

set_num_threads( 4 )
memory 2 gb

molecule MOL {
0 1

H	 -2.172150	 0.880146	 0.502514
C	 -2.018062	 -0.000025	 -0.114509
O	 -0.774054	 0.001095	 -0.743181
H	 -2.760490	 0.003458	 -0.901350
H	 -2.173624	 -0.884374	 0.496163
C	 0.266530	 -0.817983	 -0.240360
C	 1.433248	 -0.540584	 -1.185786
C	 0.645021	 -0.415519	 1.188611
C	 -0.116629	 -2.299958	 -0.304031
H	 1.689683	 0.512584	 -1.163217
H	 1.159249	 -0.798514	 -2.202531
H	 2.309001	 -1.116991	 -0.905656
H	 0.845024	 0.649646	 1.238135
H	 1.537756	 -0.945449	 1.504520
H	 -0.139143	 -0.648872	 1.900783
H	 -0.451261	 -2.558726	 -1.303087
H	 0.739440	 -2.920373	 -0.059566
H	 -0.907244	 -2.548666	 0.395757

	symmetry c1
}
set optking {
	frozen_dihedral = ("
		6 3 2 5
	")
}

ee = optimize('scf')
oeprop('DIPOLE', 'QUADRUPOLE', 'MULLIKEN_CHARGES')
f=open( 'psi4out.xyz', 'w' )
f.write( "18  " )
f.write( str(ee) + "\n" )
f.write( MOL.save_string_xyz() )
f.close()
--------------------------------------------------------------------------

    Molecular point group: c1
  Charge       = 0
  Multiplicity = 1
  Basis Set: 6-31G*
  Basis Set:
  @DF-RHF Final Energy:  -271.17321106417347
    Total Energy =                       -271.1732110641732447
    Molecular point group: c1
  Basis Set: 6-31G*
  Basis Set:
  Basis Set: 6-31G*
  Basis Set:
  @DF-RHF Final Energy:  -271.17258197452679
    Total Energy =                       -271.1725819745269064
  Basis Set: 6-31G*
  Basis Set:
  Basis Set: 6-31G*
  Basis Set:
  @DF-RHF Final Energy:  -271.17364502616869
    Total Energy =                       -271.1736450261685718
  Basis Set: 6-31G*
  Basis Set:
  Basis Set: 6-31G*
  Basis Set:
  @DF-RHF Final Energy:  -271.17380952130827
    Total Energy =                       -271.1738095213083852
  Basis Set: 6-31G*
  Basis Set:
  Basis Set: 6-31G*
  Basis Set:
  @DF-RHF Final Energy:  -271.17371196677539
    Total Energy =                       -271.1737119667756133
  Basis Set: 6-31G*
  Basis Set:
  Basis Set: 6-31G*
  Basis Set:
  @DF-RHF Final Energy:  -271.17382792227249
    Total Energy =                       -271.1738279222724373
  Basis Set: 6-31G*
  Basis Set:
  Charge       = 0
  Multiplicity = 1
  Basis Set: 6-31G*
  Basis Set:

    Orbital Energies (a.u.)
    -----------------------

    Doubly Occupied:

       1A    -20.544851     2A    -11.281855     3A    -11.260997
       4A    -11.209229     5A    -11.208134     6A    -11.203226
       7A     -1.368238     8A     -1.072611     9A     -0.945793
      10A     -0.939808    11A     -0.912742    12A     -0.752665
      13A     -0.655139    14A     -0.643417    15A     -0.638430
      16A     -0.590215    17A     -0.571439    18A     -0.552433
      19A     -0.537792    20A     -0.523864    21A     -0.514926
      22A     -0.489838    23A     -0.487078    24A     -0.438054
      25A     -0.401407

  @DF-RHF Final Energy:  -271.17382807422678

   => Energetics <=

    Nuclear Repulsion Energy =            272.1949369376463892
    One-Electron Energy =                -907.2491643644009400
    Two-Electron Energy =                 363.8803993525277747
    DFT Exchange-Correlation Energy =       0.0000000000000000
    Empirical Dispersion Energy =           0.0000000000000000
    PCM Polarization Energy =               0.0000000000000000
    EFP Energy =                            0.0000000000000000
    Total Energy =                       -271.1738280742267762
    Molecular point group: c1
  Basis Set: 6-31G*
  Basis Set:

  -Total Gradient:
     Atom            X                  Y                   Z
    ------   -----------------  -----------------  -----------------
       1       -0.000002836921     0.000000753531    -0.000004301713
       2       -0.001332507261    -0.001882060562    -0.002201446185
       3        0.000985174594     0.002166156264     0.001642068698
       4       -0.000014089359     0.000008037952     0.000011477664
       5        0.000772878657     0.001032319483     0.001344364960
       6       -0.000544682320    -0.001196206921    -0.000822076255
       7       -0.000001340784    -0.000013192102     0.000035529188
       8        0.000055533010    -0.000014053895    -0.000015884226
       9        0.000027126200    -0.000067103425     0.000030635299
      10       -0.000002101006     0.000006487285    -0.000027479235
      11       -0.000016266298    -0.000030320176     0.000020263258
      12        0.000012681028     0.000024025107     0.000016553072
      13       -0.000021738293     0.000002035010     0.000014366580
      14        0.000026978529     0.000010325853     0.000001999968
      15        0.000024449166    -0.000021023638    -0.000019569667
      16        0.000028160135     0.000007745837    -0.000018038267
      17       -0.000024170331    -0.000006599288     0.000012893521
      18        0.000026751255    -0.000027326317    -0.000021356660

  **** Optimization is complete! (in 7 steps) ****
    Final optimized geometry and variables:
    Molecular point group: c1

    Geometry (in Angstrom), charge = 0, multiplicity = 1:

    H           -1.965429636077     1.623352409360     0.717267631024
    C           -1.894662113952     0.702569284634     0.144784985294
    O           -0.674143784509     0.638852117634    -0.531698732545
    H           -2.689363943039     0.693245068688    -0.590932647238
    H           -2.047267490515    -0.123953755265     0.828218936932
    C            0.381507665950    -0.151868333194    -0.016296097925
    C            1.552582348378     0.148698596833    -0.948814713432
    C            0.733045560812     0.264661038553     1.415298243210
    C            0.030244700184    -1.641447411621    -0.088021528936
    H            1.788393776218     1.206538029685    -0.924219333289
    H            1.294980160434    -0.115273944569    -1.968242740507
    H            2.436128855182    -0.410792105108    -0.658636197043
    H            0.939859318516     1.328911783820     1.455792324003
    H            1.613694503100    -0.267100540219     1.760814369829
    H           -0.071660016588     0.048966579495     2.110402871852
    H           -0.251456478769    -1.908297538846    -1.100839926981
    H            0.883556001110    -2.246669642093     0.200959434717
    H           -0.790111604081    -1.902444179928     0.571682629482

  Mulliken Charges: (a.u.)
   Center  Symbol    Alpha    Beta     Spin     Total
       1     H     0.42492  0.42492  0.00000  0.15015
       2     C     3.07711  3.07711  0.00000 -0.15423
       3     O     4.32130  4.32130  0.00000 -0.64260
       4     H     0.41644  0.41644  0.00000  0.16711
       5     H     0.43013  0.43013  0.00000  0.13974
       6     C     2.84410  2.84410  0.00000  0.31180
       7     C     3.23303  3.23303  0.00000 -0.46605
       8     C     3.24683  3.24683  0.00000 -0.49366
       9     C     3.24377  3.24377  0.00000 -0.48754
      10     H     0.41437  0.41437  0.00000  0.17126
      11     H     0.41388  0.41388  0.00000  0.17224
      12     H     0.42509  0.42509  0.00000  0.14982
      13     H     0.41360  0.41360  0.00000  0.17279
      14     H     0.41945  0.41945  0.00000  0.16111
      15     H     0.42075  0.42075  0.00000  0.15849
      16     H     0.41342  0.41342  0.00000  0.17317
      17     H     0.42089  0.42089  0.00000  0.15822
      18     H     0.42091  0.42091  0.00000  0.15818

   Total alpha = 25.00000, Total beta = 25.00000, Total charge =  0.00000
