                              Psi4 1.0.54 Driver

  ==> Input File <==

--------------------------------------------------------------------------
set {
	reference rhf
	basis cc-pvtz
}

set_num_threads( 4 )
memory 2 gb

molecule MOL {
0 1

H	 -4.340537	 -0.784487	 0.000000
O	 -3.958786	 0.074640	 0.000000
C	 -2.613554	 0.009900	 0.000000
C	 -2.018647	 -0.960363	 0.789210
C	 -1.827085	 0.864677	 -0.748137
H	 -2.638471	 -1.618088	 1.365470
C	 -0.646415	 -1.071126	 0.826694
H	 -2.281323	 1.619929	 -1.362814
C	 -0.449211	 0.752089	 -0.709350
H	 -0.188095	 -1.822304	 1.437793
C	 0.135694	 -0.213709	 0.076521
H	 0.156637	 1.417064	 -1.291123
Br	 2.026791	 -0.370520	 0.131670

	symmetry c1
}
set optking {
	frozen_dihedral = ("
		4 3 2 1
	")
}

ee,wfn = optimize('scf', return_wfn=True)
oeprop( wfn, 'DIPOLE', 'QUADRUPOLE', 'MULLIKEN_CHARGES')
f=open( 'psi4out.xyz', 'w' )
f.write( "13  " )
f.write( str(ee) + "\n" )
f.write( MOL.save_string_xyz() )
f.close()
--------------------------------------------------------------------------

    Molecular point group: c1
  Charge       = 0
  Multiplicity = 1
  Basis Set: CC-PVTZ
  Basis Set:
  @DF-RHF Final Energy: -2877.54343960204960
    Total Energy =                      -2877.5434396020473287
    Molecular point group: c1
  Basis Set: CC-PVTZ
  Basis Set:
  Basis Set: CC-PVTZ
  Basis Set:
  @DF-RHF Final Energy: -2877.54510039895104
    Total Energy =                      -2877.5451003989510355
  Basis Set: CC-PVTZ
  Basis Set:
  Basis Set: CC-PVTZ
  Basis Set:
  @DF-RHF Final Energy: -2877.54522625786831
    Total Energy =                      -2877.5452262578705813
  Basis Set: CC-PVTZ
  Basis Set:
  Basis Set: CC-PVTZ
  Basis Set:
  @DF-RHF Final Energy: -2877.54524113297202
    Total Energy =                      -2877.5452411329706592
  Basis Set: CC-PVTZ
  Basis Set:
  Charge       = 0
  Multiplicity = 1
  Basis Set: CC-PVTZ
  Basis Set:

    Orbital Energies (a.u.)
    -----------------------

    Doubly Occupied:

       1A   -490.019360     2A    -65.159686     3A    -58.514911
       4A    -58.513544     5A    -58.513536     6A    -20.591138
       7A    -11.308412     8A    -11.290125     9A    -11.253395
      10A    -11.251966    11A    -11.242917    12A    -11.238594
      13A     -9.833485    14A     -7.445105    15A     -7.438343
      16A     -7.438290    17A     -3.188796    18A     -3.185244
      19A     -3.185130    20A     -3.176484    21A     -3.176480
      22A     -1.421202    23A     -1.180182    24A     -1.067103
      25A     -1.041977    26A     -0.970541    27A     -0.866572
      28A     -0.827540    29A     -0.756441    30A     -0.686155
      31A     -0.655467    32A     -0.639505    33A     -0.610232
      34A     -0.604438    35A     -0.564994    36A     -0.527026
      37A     -0.504874    38A     -0.501262    39A     -0.429964
      40A     -0.414390    41A     -0.359745    42A     -0.321694

  @DF-RHF Final Energy: -2877.54524534326993

   => Energetics <=

    Nuclear Repulsion Energy =            525.3650726254988967
    One-Electron Energy =               -5041.9881403479939763
    Two-Electron Energy =                1639.0778223792253812
    DFT Exchange-Correlation Energy =       0.0000000000000000
    Empirical Dispersion Energy =           0.0000000000000000
    PCM Polarization Energy =               0.0000000000000000
    EFP Energy =                            0.0000000000000000
    Total Energy =                      -2877.5452453432694711
    Molecular point group: c1
  Basis Set: CC-PVTZ
  Basis Set:

  -Total Gradient:
     Atom            X                  Y                   Z
    ------   -----------------  -----------------  -----------------
       1        0.000066600889     0.000111534588    -0.002535751038
       2        0.000021946831     0.000491398417     0.003924181077
       3       -0.000117710008    -0.001605881038    -0.002906067702
       4        0.000063280565     0.001069165678     0.001534193696
       5       -0.000127867712     0.000024115122    -0.000061871894
       6        0.000067040372    -0.000001766743    -0.000007825043
       7       -0.000087352536    -0.000117531810     0.000062781326
       8       -0.000069049279    -0.000013533750     0.000011477349
       9        0.000197456458    -0.000077589055     0.000024012905
      10        0.000057864311    -0.000009120020     0.000016773758
      11       -0.000002356590     0.000156374357    -0.000096778128
      12       -0.000035073324     0.000019197417    -0.000003225901
      13       -0.000034781423    -0.000046363188     0.000038099566

  **** Optimization is complete! (in 5 steps) ****
    Final optimized geometry and variables:
    Molecular point group: c1

    Geometry (in Angstrom), charge = 0, multiplicity = 1:

    H           -4.377141465842    -0.563183252214    -0.156150148981
    O           -3.952430501912     0.275448902375    -0.128931123196
    C           -2.605760913336     0.139079656745    -0.091735765995
    C           -1.990791628769    -0.841895956219     0.663741395836
    C           -1.839310207969     1.054967595127    -0.787371608781
    H           -2.584381381431    -1.539300728775     1.224353355393
    C           -0.612175552217    -0.922888018668     0.704233737200
    H           -2.328321587119     1.816714063534    -1.361494868863
    C           -0.462189014472     0.983336711028    -0.736897415576
    H           -0.137208827630    -1.687165957872     1.285606469028
    C            0.145459460647    -0.008819783856     0.004958367315
    H            0.130644185330     1.693561808248    -1.277037205096
    BR           2.039642019948    -0.113656524939     0.066727814373

  Mulliken Charges: (a.u.)
   Center  Symbol    Alpha    Beta     Spin     Total
       1     H     0.38481  0.38481  0.00000  0.23038
       2     O     4.17879  4.17879  0.00000 -0.35759
       3     C     2.87089  2.87089  0.00000  0.25821
       4     C     3.11042  3.11042  0.00000 -0.22084
       5     C     3.09203  3.09203  0.00000 -0.18406
       6     H     0.42365  0.42365  0.00000  0.15270
       7     C     3.08573  3.08573  0.00000 -0.17147
       8     H     0.41422  0.41422  0.00000  0.17156
       9     C     3.08042  3.08042  0.00000 -0.16084
      10     H     0.41054  0.41054  0.00000  0.17892
      11     C     2.97211  2.97211  0.00000  0.05578
      12     H     0.41049  0.41049  0.00000  0.17901
      13    BR    17.56588 17.56588  0.00000 -0.13176

   Total alpha = 42.00000, Total beta = 42.00000, Total charge = -0.00000

*** Psi4 exiting successfully. Buy a developer a beer!
