  ==> Input File <==

--------------------------------------------------------------------------
set {
	reference rhf
	basis 6-31G*
}

set_num_threads( 4 )
memory 2 gb

molecule MOL {
0 1

H	 -2.499100	 -0.730091	 -0.745082
O	 -2.347518	 -0.290803	 0.079804
C	 -1.184022	 0.487508	 -0.006784
C	 0.062599	 -0.378592	 0.031606
H	 -1.176523	 1.099369	 -0.904519
H	 -1.187323	 1.153111	 0.844927
O	 1.171513	 0.459272	 -0.058250
H	 0.050699	 -1.089204	 -0.797170
H	 0.078739	 -0.954914	 0.954740
C	 2.232675	 0.103354	 0.770242
H	 2.606819	 -0.890742	 0.532713
H	 3.024754	 0.822398	 0.613749
H	 1.941480	 0.121209	 1.818420

	symmetry c1
}
set optking {
	frozen_dihedral = ("
		10 7 4 8
	")
}

ee = optimize('scf')
oeprop('DIPOLE', 'QUADRUPOLE', 'MULLIKEN_CHARGES')
f=open( 'psi4out.xyz', 'w' )
f.write( "13  " )
f.write( str(ee) + "\n" )
f.write( MOL.save_string_xyz() )
f.close()
--------------------------------------------------------------------------

    Molecular point group: c1
  Charge       = 0
  Multiplicity = 1
  Basis Set: 6-31G*
  Basis Set:
  @DF-RHF Final Energy:  -267.94805654392519
    Total Energy =                       -267.9480565439254178
    Molecular point group: c1
  Basis Set: 6-31G*
  Basis Set:
  Basis Set: 6-31G*
  Basis Set:
  @DF-RHF Final Energy:  -267.94820875568746
    Total Energy =                       -267.9482087556874603
  Basis Set: 6-31G*
  Basis Set:
  Basis Set: 6-31G*
  Basis Set:
  @DF-RHF Final Energy:  -267.94825971898740
    Total Energy =                       -267.9482597189874582
  Basis Set: 6-31G*
  Basis Set:
  Charge       = 0
  Multiplicity = 1
  Basis Set: 6-31G*
  Basis Set:

    Orbital Energies (a.u.)
    -----------------------

    Doubly Occupied:

       1A    -20.560260     2A    -20.559746     3A    -11.270538
       4A    -11.270472     5A    -11.268248     6A     -1.385397
       7A     -1.364415     8A     -1.017614     9A     -0.915316
      10A     -0.840317    11A     -0.708053    12A     -0.674779
      13A     -0.657620    14A     -0.633205    15A     -0.600462
      16A     -0.574554    17A     -0.534977    18A     -0.492244
      19A     -0.482215    20A     -0.447311    21A     -0.411286

  @DF-RHF Final Energy:  -267.94826037995131

   => Energetics <=

    Nuclear Repulsion Energy =            190.2828364355906956
    One-Electron Energy =                -743.1241363876636115
    Two-Electron Energy =                 284.8930395721215518
    DFT Exchange-Correlation Energy =       0.0000000000000000
    Empirical Dispersion Energy =           0.0000000000000000
    PCM Polarization Energy =               0.0000000000000000
    EFP Energy =                            0.0000000000000000
    Total Energy =                       -267.9482603799513072
    Molecular point group: c1
  Basis Set: 6-31G*
  Basis Set:

  -Total Gradient:
     Atom            X                  Y                   Z
    ------   -----------------  -----------------  -----------------
       1       -0.000025633483    -0.000020467276     0.000000648059
       2       -0.000029258624    -0.000028601096    -0.000028456005
       3       -0.000005583137    -0.000011645669    -0.000003676829
       4        0.001240595055    -0.001296343143     0.002137625526
       5        0.000004751571     0.000019023845     0.000001423751
       6        0.000046803654    -0.000002418536    -0.000002488121
       7        0.000618397508    -0.001187007985    -0.002196032446
       8       -0.001185756995     0.001457667478    -0.001208350042
       9       -0.000006708043    -0.000011260971     0.000012144172
      10       -0.000600336578     0.001070496215     0.001319361646
      11       -0.000029821348     0.000011080192    -0.000008606834
      12        0.000006394280     0.000004149106    -0.000000330728
      13       -0.000033843859    -0.000004672161    -0.000023262148

  **** Optimization is complete! (in 4 steps) ****
    Final optimized geometry and variables:
    Molecular point group: c1

    Geometry (in Angstrom), charge = 0, multiplicity = 1:

    H           -2.457786515047    -0.775092363161    -0.947666670063
    O           -2.325636211914    -0.346622127312    -0.113721797323
    C           -1.156545932212     0.427263021627    -0.160481040599
    C            0.087741019358    -0.444183798827    -0.101867036887
    H           -1.123050049385     1.049864246948    -1.050234473010
    H           -1.180043145696     1.084202045399     0.698141592027
    O            1.209622616131     0.382569359803    -0.208749959596
    H            0.071170010467    -1.155677877948    -0.926775851478
    H            0.090395682934    -1.007248050850     0.826748471963
    C            2.290515014582     0.044988091569     0.603876841160
    H            2.682177827259    -0.940956119297     0.362878653823
    H            3.065909811825     0.778812536105     0.432037460069
    H            2.016479131411     0.061394213104     1.656207131342

  Mulliken Charges: (a.u.)
   Center  Symbol    Alpha    Beta     Spin     Total
       1     H     0.28107  0.28107  0.00000  0.43787
       2     O     4.37102  4.37102  0.00000 -0.74205
       3     C     3.00429  3.00429  0.00000 -0.00858
       4     C     2.99821  2.99821  0.00000  0.00359
       5     H     0.42156  0.42156  0.00000  0.15687
       6     H     0.41197  0.41197  0.00000  0.17605
       7     O     4.30959  4.30959  0.00000 -0.61918
       8     H     0.43195  0.43195  0.00000  0.13610
       9     H     0.42266  0.42266  0.00000  0.15467
      10     C     3.08016  3.08016  0.00000 -0.16032
      11     H     0.42825  0.42825  0.00000  0.14350
      12     H     0.41170  0.41170  0.00000  0.17660
      13     H     0.42757  0.42757  0.00000  0.14486

   Total alpha = 21.00000, Total beta = 21.00000, Total charge = -0.00000
