                              Psi4 1.0.54 Driver

  ==> Input File <==

--------------------------------------------------------------------------
set {
	reference rhf
	basis cc-pvtz
}

set_num_threads( 4 )
memory 2 gb

molecule MOL {
0 1

H	 -3.923984	 -1.304253	 1.198588
O	 -3.330493	 -1.128629	 0.492104
C	 -2.103685	 -0.669687	 0.994828
C	 -1.175688	 -0.398187	 -0.171891
H	 -2.246152	 0.239997	 1.574440
H	 -1.660967	 -1.412599	 1.655064
C	 0.196029	 0.106276	 0.266738
H	 -1.648362	 0.328549	 -0.825078
H	 -1.070599	 -1.312288	 -0.747472
C	 1.330220	 -0.826136	 -0.155230
H	 0.359542	 1.097229	 -0.145561
H	 0.212134	 0.218135	 1.348778
C	 2.719700	 -0.407669	 0.328325
H	 1.339388	 -0.911200	 -1.239363
H	 1.119001	 -1.821953	 0.224128
C	 3.241564	 0.893452	 -0.276737
H	 3.418299	 -1.204729	 0.093035
H	 2.711776	 -0.323368	 1.411960
H	 3.254204	 0.841071	 -1.360784
H	 2.634460	 1.745075	 0.005842
H	 4.254264	 1.092401	 0.054971

	symmetry c1
}
set optking {
	frozen_dihedral = ("
		8 4 7 10
	")
}

ee,wfn = optimize('scf', return_wfn=True)
oeprop( wfn, 'DIPOLE', 'QUADRUPOLE', 'MULLIKEN_CHARGES')
f=open( 'psi4out.xyz', 'w' )
f.write( "21  " )
f.write( str(ee) + "\n" )
f.write( MOL.save_string_xyz() )
f.close()
--------------------------------------------------------------------------

    Molecular point group: c1
  Charge       = 0
  Multiplicity = 1
  Basis Set: CC-PVTZ
  Basis Set:
  @DF-RHF Final Energy:  -310.32791792486898
    Total Energy =                       -310.3279179248692117
    Molecular point group: c1
  Basis Set: CC-PVTZ
  Basis Set:
  Basis Set: CC-PVTZ
  Basis Set:
  @DF-RHF Final Energy:  -310.32813000462346
    Total Energy =                       -310.3281300046236311
  Basis Set: CC-PVTZ
  Basis Set:
  Basis Set: CC-PVTZ
  Basis Set:
  @DF-RHF Final Energy:  -310.32818081708962
    Total Energy =                       -310.3281808170895602
  Basis Set: CC-PVTZ
  Basis Set:
  Charge       = 0
  Multiplicity = 1
  Basis Set: CC-PVTZ
  Basis Set:

    Orbital Energies (a.u.)
    -----------------------

    Doubly Occupied:

       1A    -20.545632     2A    -11.265652     3A    -11.213258
       4A    -11.213108     5A    -11.211872     6A    -11.208641
       7A    -11.206054     8A     -1.363757     9A     -1.086198
      10A     -1.033177    11A     -0.954901    12A     -0.877571
      13A     -0.809037    14A     -0.779446    15A     -0.697740
      16A     -0.655136    17A     -0.625837    18A     -0.610018
      19A     -0.592326    20A     -0.556163    21A     -0.552709
      22A     -0.517541    23A     -0.506611    24A     -0.496707
      25A     -0.475620    26A     -0.459496    27A     -0.453524
      28A     -0.447688    29A     -0.433993

  @DF-RHF Final Energy:  -310.32818141353192

   => Energetics <=

    Nuclear Repulsion Energy =            313.5447751697494709
    One-Electron Energy =               -1042.0470824416574942
    Two-Electron Energy =                 418.1741258583759873
    DFT Exchange-Correlation Energy =       0.0000000000000000
    Empirical Dispersion Energy =           0.0000000000000000
    PCM Polarization Energy =               0.0000000000000000
    EFP Energy =                            0.0000000000000000
    Total Energy =                       -310.3281814135319792
    Molecular point group: c1
  Basis Set: CC-PVTZ
  Basis Set:

  -Total Gradient:
     Atom            X                  Y                   Z
    ------   -----------------  -----------------  -----------------
       1       -0.000041573810    -0.000021840151    -0.000009021565
       2       -0.000098576172    -0.000031891297     0.000015451433
       3        0.000053785062     0.000026464719    -0.000039738606
       4        0.000032369980     0.000084366215     0.000121573377
       5        0.000013577432    -0.000001075250     0.000005725700
       6        0.000004212811     0.000013624619    -0.000007483138
       7       -0.000005129210    -0.000061472615     0.000001065647
       8        0.000026927195    -0.000047949442    -0.000053069011
       9       -0.000007523542    -0.000004411881     0.000004387848
      10       -0.000003026161     0.000037944250    -0.000043142879
      11        0.000019091392     0.000001194512     0.000001130320
      12       -0.000004579338    -0.000003549534     0.000000455797
      13        0.000019621158    -0.000000289035    -0.000017919313
      14       -0.000002282476     0.000001454165     0.000005594375
      15       -0.000019812411     0.000004411576     0.000000395665
      16        0.000000230219    -0.000004189995     0.000015486307
      17        0.000013582859     0.000002742704     0.000001432680
      18        0.000004740211     0.000002385457    -0.000007365294
      19        0.000000377731    -0.000005188534     0.000004651193
      20       -0.000006088733     0.000001599164    -0.000001476281
      21        0.000000075796     0.000005670351     0.000001865742

  **** Optimization is complete! (in 4 steps) ****
    Final optimized geometry and variables:
    Molecular point group: c1

    Geometry (in Angstrom), charge = 0, multiplicity = 1:

    H           -3.987219312000    -0.964145799803     0.970271600745
    O           -3.394297205588    -0.792748854179     0.262257002244
    C           -2.172197094179    -0.317355928881     0.758420363436
    C           -1.245514131728    -0.045512328318    -0.410160758258
    H           -2.321269965219     0.595999329068     1.330727920398
    H           -1.718790334740    -1.049509276849     1.424156937574
    C            0.139192951063     0.462173172953     0.036645118087
    H           -1.727193440511     0.671036536120    -1.064629594464
    H           -1.147647809127    -0.961828283311    -0.981351929907
    C            1.283142639904    -0.463711510419    -0.376714673557
    H            0.307460871342     1.453607341681    -0.365018370205
    H            0.158098605679     0.573898618218     1.118381796841
    C            2.666584358321    -0.038312517679     0.116748139929
    H            1.299119698230    -0.548611994322    -1.460776797737
    H            1.072915194895    -1.461130187886     0.000254871390
    C            3.186748105151     1.264709557232    -0.485805140764
    H            3.370983970120    -0.832100999788    -0.112393715094
    H            2.650177241140     0.047280329943     1.200280097297
    H            3.206970277569     1.211269541301    -1.569627244252
    H            2.574032058999     2.113847162719    -0.208266511903
    H            4.196291750680     1.468314728133    -0.147437036839

  Mulliken Charges: (a.u.)
   Center  Symbol    Alpha    Beta     Spin     Total
       1     H     0.39737  0.39737  0.00000  0.20525
       2     O     4.19463  4.19463  0.00000 -0.38926
       3     C     2.96130  2.96130  0.00000  0.07741
       4     C     3.08920  3.08920  0.00000 -0.17840
       5     H     0.47385  0.47385  0.00000  0.05231
       6     H     0.47524  0.47524  0.00000  0.04952
       7     C     3.11239  3.11239  0.00000 -0.22479
       8     H     0.44694  0.44694  0.00000  0.10612
       9     H     0.45109  0.45109  0.00000  0.09783
      10     C     3.09355  3.09355  0.00000 -0.18709
      11     H     0.44495  0.44495  0.00000  0.11009
      12     H     0.45698  0.45698  0.00000  0.08604
      13     C     3.09032  3.09032  0.00000 -0.18063
      14     H     0.45195  0.45195  0.00000  0.09610
      15     H     0.44896  0.44896  0.00000  0.10208
      16     C     3.15231  3.15231  0.00000 -0.30462
      17     H     0.44860  0.44860  0.00000  0.10280
      18     H     0.45528  0.45528  0.00000  0.08944
      19     H     0.45455  0.45455  0.00000  0.09090
      20     H     0.45391  0.45391  0.00000  0.09218
      21     H     0.44664  0.44664  0.00000  0.10673

   Total alpha = 29.00000, Total beta = 29.00000, Total charge =  0.00000

*** Psi4 exiting successfully. Buy a developer a beer!
