                              Psi4 1.0.54 Driver

  ==> Input File <==

--------------------------------------------------------------------------
set {
	reference rhf
	basis cc-pvtz
}

set_num_threads( 4 )
memory 2 gb

molecule MOL {
0 1

O	 -2.374409	 1.338660	 -0.336961
C	 -2.104891	 0.204655	 -0.107126
C	 -0.881910	 -0.448129	 -0.720509
C	 -2.949910	 -0.638219	 0.818225
C	 -0.556886	 0.166848	 -2.087624
H	 -1.097707	 -1.502460	 -0.838534
H	 -0.028886	 -0.346330	 -0.058049
C	 0.663172	 -0.480661	 -2.739312
H	 -1.427173	 0.061323	 -2.722993
H	 -0.377699	 1.233537	 -1.976430
C	 1.068787	 0.133262	 -4.080387
H	 0.474100	 -1.542828	 -2.873601
H	 1.504788	 -0.405589	 -2.056193
C	 0.056461	 -0.067413	 -5.205467
H	 2.015845	 -0.303029	 -4.382112
H	 1.254815	 1.195757	 -3.946851
H	 -0.152909	 -1.121347	 -5.357049
H	 0.437434	 0.330385	 -6.138948
H	 -0.883740	 0.429776	 -5.000272
H	 -3.440322	 -1.417144	 0.243099
H	 -3.694377	 -0.025850	 1.303346
H	 -2.331085	 -1.129829	 1.560495

	symmetry c1
}
set optking {
	frozen_dihedral = ("
		6 3 2 1
	")
}

ee,wfn = optimize('scf', return_wfn=True)
oeprop( wfn, 'DIPOLE', 'QUADRUPOLE', 'MULLIKEN_CHARGES')
f=open( 'psi4out.xyz', 'w' )
f.write( "22  " )
f.write( str(ee) + "\n" )
f.write( MOL.save_string_xyz() )
f.close()
--------------------------------------------------------------------------

    Molecular point group: c1
  Charge       = 0
  Multiplicity = 1
  Basis Set: CC-PVTZ
  Basis Set:
  @DF-RHF Final Energy:  -348.22334379439144
    Total Energy =                       -348.2233437943918943
    Molecular point group: c1
  Basis Set: CC-PVTZ
  Basis Set:
  Basis Set: CC-PVTZ
  Basis Set:
  @DF-RHF Final Energy:  -348.22432708351567
    Total Energy =                       -348.2243270835153908
  Basis Set: CC-PVTZ
  Basis Set:
  Basis Set: CC-PVTZ
  Basis Set:
  @DF-RHF Final Energy:  -348.22334072291051
    Total Energy =                       -348.2233407229099953
  Basis Set: CC-PVTZ
  Basis Set:
  Basis Set: CC-PVTZ
  Basis Set:
  @DF-RHF Final Energy:  -348.22459552097757
    Total Energy =                       -348.2245955209774593
  Basis Set: CC-PVTZ
  Basis Set:
  Basis Set: CC-PVTZ
  Basis Set:
  @DF-RHF Final Energy:  -348.22469258923991
    Total Energy =                       -348.2246925892399645
  Basis Set: CC-PVTZ
  Basis Set:
  Charge       = 0
  Multiplicity = 1
  Basis Set: CC-PVTZ
  Basis Set:

    Orbital Energies (a.u.)
    -----------------------

    Doubly Occupied:

       1A    -20.537972     2A    -11.320690     3A    -11.230069
       4A    -11.227027     5A    -11.216405     6A    -11.215812
       7A    -11.214844     8A    -11.206803     9A     -1.398419
      10A     -1.092352    11A     -1.044203    12A     -1.002146
      13A     -0.936227    14A     -0.855636    15A     -0.782503
      16A     -0.732144    17A     -0.656060    18A     -0.653122
      19A     -0.631882    20A     -0.612117    21A     -0.605056
      22A     -0.581238    23A     -0.559453    24A     -0.549761
      25A     -0.522911    26A     -0.517212    27A     -0.499656
      28A     -0.484720    29A     -0.465339    30A     -0.463473
      31A     -0.459795    32A     -0.400625

  @DF-RHF Final Energy:  -348.22469177301616

   => Energetics <=

    Nuclear Repulsion Energy =            372.8028843614648622
    One-Electron Energy =               -1210.7038038316861730
    Two-Electron Energy =                 489.6762276972047516
    DFT Exchange-Correlation Energy =       0.0000000000000000
    Empirical Dispersion Energy =           0.0000000000000000
    PCM Polarization Energy =               0.0000000000000000
    EFP Energy =                            0.0000000000000000
    Total Energy =                       -348.2246917730165592
    Molecular point group: c1
  Basis Set: CC-PVTZ
  Basis Set:

  -Total Gradient:
     Atom            X                  Y                   Z
    ------   -----------------  -----------------  -----------------
       1        0.000843470882     0.000450245402     0.000985423979
       2       -0.001043928878    -0.000608701901    -0.001018610389
       3       -0.000416906872     0.000406962624    -0.000954989539
       4       -0.000065157707    -0.000096362918    -0.000061399351
       5       -0.000055363606    -0.000051228464    -0.000098272753
       6        0.000578331341    -0.000223039053     0.001147219495
       7        0.000032254356    -0.000037651388    -0.000025720605
       8        0.000045421729     0.000065756129     0.000024786578
       9        0.000030975155    -0.000004395417     0.000013451433
      10       -0.000052426150     0.000025246508    -0.000024352419
      11        0.000043032111    -0.000017709757    -0.000003437520
      12       -0.000008426236     0.000001504682    -0.000008036396
      13        0.000023344556    -0.000012554340     0.000006119822
      14       -0.000003337160     0.000007950431    -0.000000333752
      15        0.000017731415     0.000000461033    -0.000016436911
      16        0.000005593331     0.000005363926     0.000002663658
      17        0.000000470041    -0.000012600176    -0.000005041995
      18       -0.000001635878     0.000001936628     0.000001576848
      19       -0.000017784133     0.000005006137     0.000002246058
      20        0.000048262424     0.000022955036     0.000039882900
      21       -0.000012586253     0.000047983060     0.000013495306
      22        0.000008665531     0.000022871820    -0.000020234444

  **** Optimization is complete! (in 6 steps) ****
    Final optimized geometry and variables:
    Molecular point group: c1

    Geometry (in Angstrom), charge = 0, multiplicity = 1:

    O           -1.515403406465     1.286210486843     1.536913142494
    C           -1.204712672581     0.158289216127     1.740895266565
    C           -0.041662772346    -0.498338741064     1.023087398034
    C           -1.927913061981    -0.687481734375     2.762451344537
    C            0.304097332302     0.132004281807    -0.320343076513
    H           -0.235923112106    -1.561984141722     0.924444907624
    H            0.806114441849    -0.422220160259     1.702830259112
    C            1.526683833818    -0.515666778694    -0.967495962737
    H           -0.556171487248     0.052529699562    -0.975038552086
    H            0.479337500097     1.191091984020    -0.177395015356
    C            1.965028047713     0.128413002799    -2.283875970165
    H            1.332821798758    -1.573086747545    -1.135329681462
    H            2.357684682420    -0.467989204511    -0.268527795072
    C            0.970039483000    -0.025982349574    -3.431536827575
    H            2.911365588597    -0.312315724195    -2.582006356083
    H            2.161506565970     1.183876691910    -2.116725180248
    H            0.747524293318    -1.072285424758    -3.616151070824
    H            1.373382883660     0.390915959635    -4.347172591469
    H            0.034638806187     0.481060390667    -3.228713838136
    H           -2.476211076315    -1.474037458496     2.254425675227
    H           -2.615301952084    -0.077521653413     3.328266211034
    H           -1.220651692594    -1.167909962401     3.429383019257

  Mulliken Charges: (a.u.)
   Center  Symbol    Alpha    Beta     Spin     Total
       1     O     4.17294  4.17294  0.00000 -0.34587
       2     C     2.86051  2.86051  0.00000  0.27899
       3     C     3.11147  3.11147  0.00000 -0.22294
       4     C     3.15276  3.15276  0.00000 -0.30551
       5     C     3.08886  3.08886  0.00000 -0.17772
       6     H     0.44498  0.44498  0.00000  0.11005
       7     H     0.44420  0.44420  0.00000  0.11161
       8     C     3.09601  3.09601  0.00000 -0.19201
       9     H     0.44965  0.44965  0.00000  0.10071
      10     H     0.43997  0.43997  0.00000  0.12006
      11     C     3.09002  3.09002  0.00000 -0.18003
      12     H     0.45530  0.45530  0.00000  0.08941
      13     H     0.44988  0.44988  0.00000  0.10024
      14     C     3.15280  3.15280  0.00000 -0.30560
      15     H     0.44860  0.44860  0.00000  0.10280
      16     H     0.45312  0.45312  0.00000  0.09376
      17     H     0.45587  0.45587  0.00000  0.08825
      18     H     0.44611  0.44611  0.00000  0.10777
      19     H     0.45161  0.45161  0.00000  0.09678
      20     H     0.44894  0.44894  0.00000  0.10212
      21     H     0.43597  0.43597  0.00000  0.12807
      22     H     0.45046  0.45046  0.00000  0.09908

   Total alpha = 32.00000, Total beta = 32.00000, Total charge =  0.00000

*** Psi4 exiting successfully. Buy a developer a beer!
