                              Psi4 1.0.54 Driver

  ==> Input File <==

--------------------------------------------------------------------------
set {
	reference rhf
	basis cc-pvtz
}

set_num_threads( 4 )
memory 2 gb

molecule MOL {
0 1

H	 -3.268214	 -0.875720	 0.463107
C	 -2.806015	 0.000007	 0.024886
N	 -1.391133	 0.000016	 0.301321
H	 -3.029448	 0.000055	 -1.045738
H	 -3.268126	 0.875758	 0.463150
C	 -1.073152	 0.669031	 1.544255
C	 -0.616953	 0.548357	 -0.791153
H	 -1.364604	 1.723114	 1.515710
H	 -1.627267	 0.198221	 2.347610
C	 0.412165	 0.575208	 1.839284
H	 -0.838015	 -0.010545	 -1.692734
H	 -0.877302	 1.594215	 -0.978897
C	 0.868365	 0.454534	 -0.496124
H	 0.633228	 1.134109	 2.740865
H	 0.672515	 -0.470650	 2.027028
N	 1.186345	 1.123549	 0.746810
H	 1.422479	 0.925344	 -1.299479
H	 1.159816	 -0.599549	 -0.467579
C	 2.601227	 1.123558	 1.023245
H	 2.801295	 1.685955	 1.926708
H	 3.136609	 1.597291	 0.209915
H	 3.008159	 0.116937	 1.154700

	symmetry c1
}
set optking {
	frozen_dihedral = ("
		6 3 2 4
	")
}

ee,wfn = optimize('scf', return_wfn=True)
oeprop( wfn, 'DIPOLE', 'QUADRUPOLE', 'MULLIKEN_CHARGES')
f=open( 'psi4out.xyz', 'w' )
f.write( "22  " )
f.write( str(ee) + "\n" )
f.write( MOL.save_string_xyz() )
f.close()
--------------------------------------------------------------------------

    Molecular point group: c1
  Charge       = 0
  Multiplicity = 1
  Basis Set: CC-PVTZ
  Basis Set:
  @DF-RHF Final Energy:  -344.34638078208934
    Total Energy =                       -344.3463807820893408
    Molecular point group: c1
  Basis Set: CC-PVTZ
  Basis Set:
  Basis Set: CC-PVTZ
  Basis Set:
  @DF-RHF Final Energy:  -344.34707278730895
    Total Energy =                       -344.3470727873088890
  Basis Set: CC-PVTZ
  Basis Set:
  Basis Set: CC-PVTZ
  Basis Set:
  @DF-RHF Final Energy:  -344.34717058364492
    Total Energy =                       -344.3471705836448109
  Basis Set: CC-PVTZ
  Basis Set:
  Charge       = 0
  Multiplicity = 1
  Basis Set: CC-PVTZ
  Basis Set:

    Orbital Energies (a.u.)
    -----------------------

    Doubly Occupied:

       1A    -15.537292     2A    -15.537042     3A    -11.237511
       4A    -11.237320     5A    -11.236700     6A    -11.236611
       7A    -11.234122     8A    -11.234102     9A     -1.256432
      10A     -1.205141    11A     -1.025379    12A     -0.992409
      13A     -0.912352    14A     -0.867446    15A     -0.836698
      16A     -0.756051    17A     -0.666551    18A     -0.636690
      19A     -0.631513    20A     -0.626255    21A     -0.622111
      22A     -0.581916    23A     -0.552070    24A     -0.547233
      25A     -0.541863    26A     -0.519386    27A     -0.497746
      28A     -0.488563    29A     -0.465077    30A     -0.456648
      31A     -0.352093    32A     -0.347440

  @DF-RHF Final Energy:  -344.34717306369521

   => Energetics <=

    Nuclear Repulsion Energy =            421.7830145981569103
    One-Electron Energy =               -1302.5088450477408060
    Two-Electron Energy =                 536.3786573858890279
    DFT Exchange-Correlation Energy =       0.0000000000000000
    Empirical Dispersion Energy =           0.0000000000000000
    PCM Polarization Energy =               0.0000000000000000
    EFP Energy =                            0.0000000000000000
    Total Energy =                       -344.3471730636948678
    Molecular point group: c1
  Basis Set: CC-PVTZ
  Basis Set:

  -Total Gradient:
     Atom            X                  Y                   Z
    ------   -----------------  -----------------  -----------------
       1       -0.000022310160    -0.000023995473     0.000012044659
       2        0.000228334434    -0.004995342796    -0.000685144043
       3       -0.000532209387    -0.003015033291     0.002508346449
       4       -0.000061885843     0.004884223221     0.000075916167
       5        0.000004474430     0.000022844735     0.000010661790
       6        0.000247817400     0.003213979331    -0.001898948539
       7        0.000016637652    -0.000133137752     0.000118509452
       8       -0.000029730999     0.000019133245    -0.000004057202
       9       -0.000010579782    -0.000002811471    -0.000010430940
      10        0.000032280732    -0.000093409184    -0.000054156832
      11        0.000014535442     0.000016030184     0.000009830526
      12        0.000039359052    -0.000008130323    -0.000002425333
      13        0.000053412531     0.000084104651    -0.000096636734
      14       -0.000026443857    -0.000000405938    -0.000021594182
      15        0.000029388503    -0.000021984994     0.000021730991
      16       -0.000003824047     0.000022670998     0.000004720227
      17        0.000075308455     0.000011815219     0.000003378478
      18       -0.000037875318     0.000029691734     0.000011208825
      19        0.000000359117    -0.000010166163    -0.000009782750
      20       -0.000007088365     0.000001608558     0.000004067559
      21       -0.000008749495    -0.000001813258     0.000001297949
      22       -0.000001210491     0.000000128766     0.000001463480

  **** Optimization is complete! (in 4 steps) ****
    Final optimized geometry and variables:
    Molecular point group: c1

    Geometry (in Angstrom), charge = 0, multiplicity = 1:

    H           -3.175442641600    -1.465009832259    -0.086018386188
    C           -2.703289343567    -0.593067455469    -0.522417502938
    N           -1.280878847329    -0.576191726592    -0.244669477186
    H           -2.879584012270    -0.590336010508    -1.589854576588
    H           -3.206668982013     0.292904870836    -0.131695449202
    C           -0.979557957427     0.092936659956     1.003176321138
    C           -0.500976201384     0.002283535589    -1.320561602808
    H           -1.277509317424     1.144488837442     0.968540929412
    H           -1.542297744045    -0.379170981630     1.800685613179
    C            0.501480881539     0.007239963523     1.319599353574
    H           -0.701768262059    -0.544542805174    -2.233570494797
    H           -0.767419682993     1.048881257324    -1.495084779900
    C            0.982357602054    -0.082736156274    -1.011319105722
    H            0.704804307059     0.560706321817     2.228873878071
    H            0.767545813448    -1.038019353462     1.502917477821
    N            1.285320836906     0.571650012486     0.242751532074
    H            1.540681535357     0.402029966463    -1.803678735084
    H            1.280195266555    -1.135362925001    -0.993944470428
    C            2.697001794819     0.574336793120     0.533601583976
    H            2.885224979510     1.125799454244     1.446405976672
    H            3.238645070726     1.060993199122    -0.267966470013
    H            3.107395847380    -0.432085367107     0.656283229144

  Mulliken Charges: (a.u.)
   Center  Symbol    Alpha    Beta     Spin     Total
       1     H     0.44892  0.44892  0.00000  0.10216
       2     C     3.09582  3.09582  0.00000 -0.19163
       3     N     3.61541  3.61541  0.00000 -0.23081
       4     H     0.45573  0.45573  0.00000  0.08855
       5     H     0.46729  0.46729  0.00000  0.06542
       6     C     3.03628  3.03628  0.00000 -0.07255
       7     C     3.03423  3.03423  0.00000 -0.06845
       8     H     0.46724  0.46724  0.00000  0.06552
       9     H     0.45355  0.45355  0.00000  0.09289
      10     C     3.03658  3.03658  0.00000 -0.07317
      11     H     0.45376  0.45376  0.00000  0.09248
      12     H     0.46881  0.46881  0.00000  0.06239
      13     C     3.03672  3.03672  0.00000 -0.07343
      14     H     0.45393  0.45393  0.00000  0.09215
      15     H     0.46813  0.46813  0.00000  0.06375
      16     N     3.61285  3.61285  0.00000 -0.22570
      17     H     0.45394  0.45394  0.00000  0.09211
      18     H     0.46835  0.46835  0.00000  0.06330
      19     C     3.09850  3.09850  0.00000 -0.19699
      20     H     0.45198  0.45198  0.00000  0.09603
      21     H     0.45200  0.45200  0.00000  0.09600
      22     H     0.47000  0.47000  0.00000  0.05999

   Total alpha = 32.00000, Total beta = 32.00000, Total charge =  0.00000

*** Psi4 exiting successfully. Buy a developer a beer!
