                              Psi4 1.0.54 Driver

  ==> Input File <==

--------------------------------------------------------------------------
set {
	reference rhf
	basis cc-pvtz
}

set_num_threads( 4 )
memory 2 gb

molecule MOL {
0 1

H	 2.462485	 -2.216993	 0.000000
O	 2.777472	 -1.330706	 0.000000
C	 1.763288	 -0.447523	 0.000000
C	 1.980650	 0.776829	 -0.615496
C	 0.543483	 -0.720448	 0.581331
H	 2.936497	 0.968468	 -1.061353
C	 0.979171	 1.719928	 -0.646401
H	 0.348355	 -1.656128	 1.062709
C	 -0.438502	 0.249085	 0.531526
H	 1.156217	 2.663340	 -1.124289
C	 -0.254552	 1.469059	 -0.069396
N	 -1.734273	 -0.048270	 1.152297
H	 -1.041112	 2.191404	 -0.085673
O	 -1.866608	 -1.109877	 1.664695
O	 -2.570564	 0.789024	 1.104827

	symmetry c1
}
set optking {
	frozen_dihedral = ("
		4 3 2 1
	")
}

ee,wfn = optimize('scf', return_wfn=True)
oeprop( wfn, 'DIPOLE', 'QUADRUPOLE', 'MULLIKEN_CHARGES')
f=open( 'psi4out.xyz', 'w' )
f.write( "15  " )
f.write( str(ee) + "\n" )
f.write( MOL.save_string_xyz() )
f.close()
--------------------------------------------------------------------------

    Molecular point group: c1
  Charge       = 0
  Multiplicity = 1
  Basis Set: CC-PVTZ
  Basis Set:
  @DF-RHF Final Energy:  -509.21783979204110
    Total Energy =                       -509.2178397920413317
    Molecular point group: c1
  Basis Set: CC-PVTZ
  Basis Set:
  Basis Set: CC-PVTZ
  Basis Set:
  @DF-RHF Final Energy:  -509.21783597713289
    Total Energy =                       -509.2178359771330634
  Basis Set: CC-PVTZ
  Basis Set:
  Basis Set: CC-PVTZ
  Basis Set:
  @DF-RHF Final Energy:  -509.20882060094260
    Total Energy =                       -509.2088206009427722
  Basis Set: CC-PVTZ
  Basis Set:
  Basis Set: CC-PVTZ
  Basis Set:
  @DF-RHF Final Energy:  -509.21737263796973
    Total Energy =                       -509.2173726379702430
  Basis Set: CC-PVTZ
  Basis Set:
  Basis Set: CC-PVTZ
  Basis Set:
  @DF-RHF Final Energy:  -509.21789031185585
    Total Energy =                       -509.2178903118558537
  Basis Set: CC-PVTZ
  Basis Set:
  Basis Set: CC-PVTZ
  Basis Set:
  @DF-RHF Final Energy:  -509.21789031299102
    Total Energy =                       -509.2178903129913579
  Basis Set: CC-PVTZ
  Basis Set:
  Basis Set: CC-PVTZ
  Basis Set:
  @DF-RHF Final Energy:  -509.21790509459277
    Total Energy =                       -509.2179050945929930
  Basis Set: CC-PVTZ
  Basis Set:
  Charge       = 0
  Multiplicity = 1
  Basis Set: CC-PVTZ
  Basis Set:

    Orbital Energies (a.u.)
    -----------------------

    Doubly Occupied:

       1A    -20.604561     2A    -20.594961     3A    -20.594482
       4A    -15.850620     5A    -11.325425     6A    -11.308667
       7A    -11.263320     8A    -11.263053     9A    -11.259932
      10A    -11.257401    11A     -1.644284    12A     -1.436237
      13A     -1.426720    14A     -1.202696    15A     -1.095456
      16A     -1.048040    17A     -0.966401    18A     -0.879015
      19A     -0.832359    20A     -0.795674    21A     -0.753471
      22A     -0.743598    23A     -0.729326    24A     -0.709712
      25A     -0.678013    26A     -0.638479    27A     -0.628480
      28A     -0.583928    29A     -0.559311    30A     -0.545188
      31A     -0.519562    32A     -0.494914    33A     -0.492761
      34A     -0.460295    35A     -0.380067    36A     -0.349719

  @DF-RHF Final Energy:  -509.21790547539410

   => Energetics <=

    Nuclear Repulsion Energy =            504.5657081202705285
    One-Electron Energy =               -1695.7349751556071169
    Two-Electron Energy =                 681.9513615599432796
    DFT Exchange-Correlation Energy =       0.0000000000000000
    Empirical Dispersion Energy =           0.0000000000000000
    PCM Polarization Energy =               0.0000000000000000
    EFP Energy =                            0.0000000000000000
    Total Energy =                       -509.2179054753933087
    Molecular point group: c1
  Basis Set: CC-PVTZ
  Basis Set:

  -Total Gradient:
     Atom            X                  Y                   Z
    ------   -----------------  -----------------  -----------------
       1        0.000017125325     0.000020464653    -0.002451052311
       2       -0.000290972807    -0.000324509875     0.002336149840
       3        0.000795991223     0.000897358502     0.001687247078
       4       -0.000602593099    -0.000565154339    -0.001537242031
       5        0.000051579735    -0.000021377433    -0.000026366644
       6        0.000001312126    -0.000004741110    -0.000002679345
       7        0.000076994946    -0.000024310539    -0.000035558201
       8       -0.000004691876    -0.000000336939     0.000008603547
       9       -0.000040366773     0.000064170453    -0.000021836147
      10       -0.000006867043     0.000000645302     0.000002738255
      11       -0.000045761225    -0.000056546083     0.000059399593
      12       -0.000071353337     0.000002941846     0.000052112982
      13       -0.000003230781     0.000007548816    -0.000001900791
      14        0.000061422328    -0.000020281166    -0.000026125263
      15        0.000061411255     0.000024127909    -0.000043490565

  **** Optimization is complete! (in 8 steps) ****
    Final optimized geometry and variables:
    Molecular point group: c1

    Geometry (in Angstrom), charge = 0, multiplicity = 1:

    H            2.375125135531    -2.309276637991    -0.431059771612
    O            2.698775416628    -1.426097864546    -0.420332840349
    C            1.688111463729    -0.531517286561    -0.418903930341
    C            1.910443767715     0.697988491682    -1.018101058268
    C            0.468027322096    -0.806780073820     0.161869362460
    H            2.864155728759     0.887713867665    -1.469295908935
    C            0.917702263218     1.653186207884    -1.023349526427
    H            0.274793641042    -1.746562693605     0.635198182541
    C           -0.508821997321     0.167269190053     0.127383059024
    H            1.099228097746     2.603138043467    -1.486278381479
    C           -0.315198956808     1.398915222290    -0.449431686835
    N           -1.807161851151    -0.132547935605     0.740766341327
    H           -1.097295705885     2.126394791689    -0.450972596898
    O           -1.955201881153    -1.210355897943     1.213139935854
    O           -2.630205365471     0.719201396330     0.726479969804

  Mulliken Charges: (a.u.)
   Center  Symbol    Alpha    Beta     Spin     Total
       1     H     0.38256  0.38256  0.00000  0.23488
       2     O     4.17442  4.17442  0.00000 -0.34885
       3     C     2.85272  2.85272  0.00000  0.29456
       4     C     3.09696  3.09696  0.00000 -0.19392
       5     C     3.12769  3.12769  0.00000 -0.25537
       6     H     0.41197  0.41197  0.00000  0.17606
       7     C     3.05861  3.05861  0.00000 -0.11723
       8     H     0.40288  0.40288  0.00000  0.19425
       9     C     2.98179  2.98179  0.00000  0.03641
      10     H     0.41577  0.41577  0.00000  0.16846
      11     C     3.09291  3.09291  0.00000 -0.18581
      12     N     3.24955  3.24955  0.00000  0.50091
      13     H     0.39931  0.39931  0.00000  0.20137
      14     O     4.17798  4.17798  0.00000 -0.35597
      15     O     4.17487  4.17487  0.00000 -0.34974

   Total alpha = 36.00000, Total beta = 36.00000, Total charge = -0.00000

*** Psi4 exiting successfully. Buy a developer a beer!
