  ==> Input File <==

--------------------------------------------------------------------------
set {
	reference rhf
	basis cc-pvtz
}

set_num_threads( 4 )
memory 2 gb

molecule MOL {
0 1

H	 -0.000105	 1.988529	 0.748933
O	 -0.000098	 1.879786	 -0.188206
C	 -0.000014	 0.545691	 -0.532416
C	 1.432723	 0.011765	 -0.576732
C	 -0.794728	 0.332903	 -1.821960
H	 -0.513911	 0.001895	 0.246594
F	 1.986956	 0.160290	 0.601244
F	 1.480822	 -1.259308	 -0.886202
F	 2.163579	 0.673688	 -1.447985
F	 -2.027561	 0.739057	 -1.643016
F	 -0.834138	 -0.925550	 -2.180368
F	 -0.286428	 1.026924	 -2.817622

	symmetry c1
}
set optking {
	frozen_dihedral = ("
		6 3 2 1
	")
}

ee = optimize('scf')
oeprop('DIPOLE', 'QUADRUPOLE', 'MULLIKEN_CHARGES')
f=open( 'psi4out.xyz', 'w' )
f.write( "12  " )
f.write( str(ee) + "\n" )
f.write( MOL.save_string_xyz() )
f.close()
--------------------------------------------------------------------------

    Molecular point group: c1
  Charge       = 0
  Multiplicity = 1
  Basis Set: CC-PVTZ
  Basis Set:
  @DF-RHF Final Energy:  -786.58590968848193
    Total Energy =                       -786.5859096884820474
    Molecular point group: c1
  Basis Set: CC-PVTZ
  Basis Set:
  Basis Set: CC-PVTZ
  Basis Set:
  @DF-RHF Final Energy:  -786.58748438400278
    Total Energy =                       -786.5874843840025505
  Basis Set: CC-PVTZ
  Basis Set:
  Basis Set: CC-PVTZ
  Basis Set:
  @DF-RHF Final Energy:  -786.58780484868441
    Total Energy =                       -786.5878048486849821
  Basis Set: CC-PVTZ
  Basis Set:
  Basis Set: CC-PVTZ
  Basis Set:
  @DF-RHF Final Energy:  -786.58785618745310
    Total Energy =                       -786.5878561874527577
  Basis Set: CC-PVTZ
  Basis Set:
  Basis Set: CC-PVTZ
  Basis Set:
  @DF-RHF Final Energy:  -786.58786555479946
    Total Energy =                       -786.5878655547996914
  Basis Set: CC-PVTZ
  Basis Set:
  Basis Set: CC-PVTZ
  Basis Set:
  @DF-RHF Final Energy:  -786.58786757171765
    Total Energy =                       -786.5878675717179931
  Basis Set: CC-PVTZ
  Basis Set:
  Charge       = 0
  Multiplicity = 1
  Basis Set: CC-PVTZ
  Basis Set:

    Orbital Energies (a.u.)
    -----------------------

    Doubly Occupied:

       1A    -26.353874     2A    -26.353217     3A    -26.351578
       4A    -26.351117     5A    -26.348843     6A    -26.348094
       7A    -20.609664     8A    -11.515689     9A    -11.515636
      10A    -11.351777    11A     -1.767069    12A     -1.761255
      13A     -1.661613    14A     -1.660028    15A     -1.656759
      16A     -1.655903    17A     -1.439625    18A     -1.103471
      19A     -0.997694    20A     -0.939529    21A     -0.868801
      22A     -0.861958    23A     -0.857675    24A     -0.846690
      25A     -0.836050    26A     -0.786592    27A     -0.768695
      28A     -0.733062    29A     -0.727151    30A     -0.723495
      31A     -0.720477    32A     -0.686372    33A     -0.682152
      34A     -0.673909    35A     -0.673085    36A     -0.663705
      37A     -0.658173    38A     -0.629428    39A     -0.622719
      40A     -0.557738    41A     -0.509226

  @DF-RHF Final Energy:  -786.58786797774633

   => Energetics <=

    Nuclear Repulsion Energy =            670.3516857717427229
    One-Electron Energy =               -2428.2199339775625049
    Two-Electron Energy =                 971.2803802280734544
    DFT Exchange-Correlation Energy =       0.0000000000000000
    Empirical Dispersion Energy =           0.0000000000000000
    PCM Polarization Energy =               0.0000000000000000
    EFP Energy =                            0.0000000000000000
    Total Energy =                       -786.5878679777463276
    Molecular point group: c1
  Basis Set: CC-PVTZ
  Basis Set:

  -Total Gradient:
     Atom            X                  Y                   Z
    ------   -----------------  -----------------  -----------------
       1       -0.000886282030     0.000009634199    -0.000000256713
       2        0.001271076698    -0.000057466618     0.000126210564
       3       -0.001102714199     0.000113804623    -0.000489177600
       4       -0.000020173066     0.000052536221    -0.000065697254
       5        0.000041508828     0.000096999433    -0.000013234842
       6        0.000673787161    -0.000079998369     0.000396910492
       7        0.000044838554    -0.000038125108     0.000039846265
       8        0.000014244349     0.000040737962     0.000012111025
       9        0.000030164974    -0.000055796223     0.000009053815
      10       -0.000048870181     0.000005789557    -0.000001234185
      11        0.000002185100    -0.000037809439    -0.000029187480
      12       -0.000019766185    -0.000050306243     0.000014655914

  **** Optimization is complete! (in 7 steps) ****
    Final optimized geometry and variables:
    Molecular point group: c1

    Geometry (in Angstrom), charge = 0, multiplicity = 1:

    H           -0.339832812815     1.685387748264     1.894641006041
    O           -0.329516164478     1.557345972507     0.963522356777
    C           -0.329887663297     0.215180248746     0.644867557372
    C            1.107763341393    -0.304330909595     0.585679050911
    C           -1.111066299841     0.060563019966    -0.658106297572
    H           -0.839317317783    -0.392772230596     1.382845563646
    F            1.685941386106    -0.054475416180     1.743133789997
    F            1.144493204548    -1.601915834726     0.398631567550
    F            1.818771131958     0.266152534395    -0.349690396302
    F           -2.358176145509     0.414380713385    -0.455603186662
    F           -1.110860664129    -1.188077472606    -1.063605232024
    F           -0.629741212686     0.802279227925    -1.619499428742

  Mulliken Charges: (a.u.)
   Center  Symbol    Alpha    Beta     Spin     Total
       1     H     0.38188  0.38188  0.00000  0.23624
       2     O     4.18590  4.18590  0.00000 -0.37180
       3     C     3.00112  3.00112  0.00000 -0.00223
       4     C     2.68075  2.68075  0.00000  0.63851
       5     C     2.67697  2.67697  0.00000  0.64606
       6     H     0.44452  0.44452  0.00000  0.11096
       7     F     4.61155  4.61155  0.00000 -0.22311
       8     F     4.60518  4.60518  0.00000 -0.21037
       9     F     4.60054  4.60054  0.00000 -0.20108
      10     F     4.60511  4.60511  0.00000 -0.21022
      11     F     4.60546  4.60546  0.00000 -0.21091
      12     F     4.60103  4.60103  0.00000 -0.20206

   Total alpha = 41.00000, Total beta = 41.00000, Total charge = -0.00000
