                              Psi4 1.0.54 Driver

  ==> Input File <==

--------------------------------------------------------------------------
set {
	reference rhf
	basis cc-pvtz
}

set_num_threads( 4 )
memory 2 gb

molecule MOL {
0 1

H	 2.394634	 3.083407	 -0.000000
O	 1.455199	 3.053633	 -0.000000
C	 1.005316	 1.783564	 -0.000000
C	 1.863057	 0.694086	 -0.000000
C	 -0.360272	 1.585598	 -0.000000
H	 2.926580	 0.850125	 -0.000000
C	 1.354245	 -0.588905	 -0.000000
H	 -1.025338	 2.424961	 -0.000000
C	 -0.861704	 0.296439	 0.000000
H	 2.027461	 -1.424131	 0.000000
C	 -0.010572	 -0.795531	 0.000000
C	 -2.330689	 0.069587	 0.000000
H	 -0.409159	 -1.792033	 0.000000
O	 -2.848621	 -0.993976	 0.000000
H	 -2.934306	 0.982410	 0.000000

	symmetry c1
}
set optking {
	frozen_dihedral = ("
		11 9 12 14
	")
}

ee,wfn = optimize('scf', return_wfn=True)
oeprop( wfn, 'DIPOLE', 'QUADRUPOLE', 'MULLIKEN_CHARGES')
f=open( 'psi4out.xyz', 'w' )
f.write( "15  " )
f.write( str(ee) + "\n" )
f.write( MOL.save_string_xyz() )
f.close()
--------------------------------------------------------------------------

    Molecular point group: c1
  Charge       = 0
  Multiplicity = 1
  Basis Set: CC-PVTZ
  Basis Set:
  @DF-RHF Final Energy:  -418.43882871331817
    Total Energy =                       -418.4388287133182303
    Molecular point group: c1
  Basis Set: CC-PVTZ
  Basis Set:
  Basis Set: CC-PVTZ
  Basis Set:
  @DF-RHF Final Energy:  -418.43911324041517
    Total Energy =                       -418.4391132404149403
  Basis Set: CC-PVTZ
  Basis Set:
  Basis Set: CC-PVTZ
  Basis Set:
  @DF-RHF Final Energy:  -418.43914226871863
    Total Energy =                       -418.4391422687185695
  Basis Set: CC-PVTZ
  Basis Set:
  Basis Set: CC-PVTZ
  Basis Set:
  @DF-RHF Final Energy:  -418.43914820849517
    Total Energy =                       -418.4391482084951122
  Basis Set: CC-PVTZ
  Basis Set:
  Charge       = 0
  Multiplicity = 1
  Basis Set: CC-PVTZ
  Basis Set:

    Orbital Energies (a.u.)
    -----------------------

    Doubly Occupied:

       1A    -20.598651     2A    -20.554831     3A    -11.327868
       4A    -11.313463     5A    -11.251135     6A    -11.248945
       7A    -11.246357     8A    -11.245030     9A    -11.236180
      10A     -1.430005    11A     -1.410558    12A     -1.174085
      13A     -1.054237    14A     -1.028489    15A     -0.904426
      16A     -0.849861    17A     -0.817636    18A     -0.741806
      19A     -0.705317    20A     -0.679307    21A     -0.664908
      22A     -0.632904    23A     -0.613498    24A     -0.611456
      25A     -0.582325    26A     -0.557482    27A     -0.540495
      28A     -0.519595    29A     -0.491883    30A     -0.426829
      31A     -0.360834    32A     -0.329483

  @DF-RHF Final Energy:  -418.43914817987678

   => Energetics <=

    Nuclear Repulsion Energy =            403.2766873166819437
    One-Electron Energy =               -1369.1319090607078124
    Two-Electron Energy =                 547.4160735641489737
    DFT Exchange-Correlation Energy =       0.0000000000000000
    Empirical Dispersion Energy =           0.0000000000000000
    PCM Polarization Energy =               0.0000000000000000
    EFP Energy =                            0.0000000000000000
    Total Energy =                       -418.4391481798768382
    Molecular point group: c1
  Basis Set: CC-PVTZ
  Basis Set:

  -Total Gradient:
     Atom            X                  Y                   Z
    ------   -----------------  -----------------  -----------------
       1       -0.000006698041    -0.000005373599     0.000000043371
       2       -0.000018888722    -0.000034004599    -0.000000492083
       3        0.000008659621     0.000036521709     0.000006411247
       4        0.000005314340     0.000004626794    -0.000000417945
       5       -0.000007631089     0.000037554944    -0.000009930886
       6       -0.000002630232    -0.000012811678    -0.000000250758
       7        0.000007547641    -0.000015516190     0.000008906232
       8        0.000009568827    -0.000009419169    -0.000003662917
       9       -0.000028506706    -0.000040401452    -0.000104982736
      10        0.000003115650    -0.000000809795     0.000002808146
      11        0.000002980292     0.000050015369    -0.000032739793
      12        0.000010223641    -0.000005450598     0.000492892717
      13        0.000000539759    -0.000021574915    -0.000003206489
      14        0.000009738221     0.000006737382    -0.000170845192
      15        0.000006666791     0.000009905796    -0.000184532913

  **** Optimization is complete! (in 5 steps) ****
    Final optimized geometry and variables:
    Molecular point group: c1

    Geometry (in Angstrom), charge = 0, multiplicity = 1:

    H            2.474310603137     2.494703187193    -0.000375581493
    O            1.535060100603     2.453299375397    -0.000133031590
    C            1.103580874670     1.176314289012    -0.000088455059
    C            1.960962730555     0.095729868894    -0.000381552116
    C           -0.265943131209     0.964031951650     0.000246198751
    H            3.024206375429     0.253894300848    -0.000646818483
    C            1.452426002574    -1.195020877815    -0.000403828712
    H           -0.923538853673     1.812219040412     0.000434268998
    C           -0.762409824055    -0.322588796278     0.000384679533
    H            2.132064887350    -2.025261966796    -0.000695403913
    C            0.095698651916    -1.414951526423    -0.000091674708
    C           -2.235780264505    -0.519905505243     0.000523709505
    H           -0.310222105886    -2.405864894829    -0.000151262496
    O           -2.771987144259    -1.574340593056     0.000252491243
    H           -2.822666802295     0.403951054209    -0.002712423756

  Mulliken Charges: (a.u.)
   Center  Symbol    Alpha    Beta     Spin     Total
       1     H     0.38627  0.38627  0.00000  0.22746
       2     O     4.17227  4.17227  0.00000 -0.34455
       3     C     2.84244  2.84244  0.00000  0.31513
       4     C     3.12883  3.12883  0.00000 -0.25767
       5     C     3.12684  3.12684  0.00000 -0.25369
       6     H     0.43127  0.43127  0.00000  0.13747
       7     C     3.06136  3.06136  0.00000 -0.12272
       8     H     0.41843  0.41843  0.00000  0.16314
       9     C     2.96809  2.96809  0.00000  0.06381
      10     H     0.41854  0.41854  0.00000  0.16291
      11     C     3.10186  3.10186  0.00000 -0.20371
      12     C     2.90852  2.90852  0.00000  0.18297
      13     H     0.40932  0.40932  0.00000  0.18136
      14     O     4.16946  4.16946  0.00000 -0.33892
      15     H     0.45649  0.45649  0.00000  0.08702

   Total alpha = 32.00000, Total beta = 32.00000, Total charge = -0.00000

*** Psi4 exiting successfully. Buy a developer a beer!
