  ==> Input File <==

--------------------------------------------------------------------------
set {
	reference rhf
	basis 6-31G*
}

set_num_threads( 4 )
memory 2 gb

molecule MOL {
0 1

H	 -1.836216	 1.387520	 -0.000064
C	 -1.301823	 0.443321	 -0.000031
O	 -0.003969	 0.658512	 0.000451
O	 -1.829879	 -0.616434	 -0.000857
C	 0.746573	 0.139830	 1.098104
C	 2.196201	 0.511528	 0.872852
H	 0.608311	 -0.931846	 1.139489
H	 0.360973	 0.562842	 2.015528
H	 2.563016	 0.086033	 -0.054205
H	 2.803963	 0.133884	 1.688477
H	 2.314650	 1.587943	 0.826048

	symmetry c1
}
set optking {
	frozen_dihedral = ("
		5 3 2 4
	")
}

ee = optimize('scf')
oeprop('DIPOLE', 'QUADRUPOLE', 'MULLIKEN_CHARGES')
f=open( 'psi4out.xyz', 'w' )
f.write( "11  " )
f.write( str(ee) + "\n" )
f.write( MOL.save_string_xyz() )
f.close()
--------------------------------------------------------------------------

    Molecular point group: c1
  Charge       = 0
  Multiplicity = 1
  Basis Set: 6-31G*
  Basis Set:
  @DF-RHF Final Energy:  -266.81335239563623
    Total Energy =                       -266.8133523956362296
    Molecular point group: c1
  Basis Set: 6-31G*
  Basis Set:
  Basis Set: 6-31G*
  Basis Set:
  @DF-RHF Final Energy:  -266.80731715243962
    Total Energy =                       -266.8073171524396798
  Basis Set: 6-31G*
  Basis Set:
  Basis Set: 6-31G*
  Basis Set:
  @DF-RHF Final Energy:  -266.81414263092211
    Total Energy =                       -266.8141426309222197
  Basis Set: 6-31G*
  Basis Set:
  Basis Set: 6-31G*
  Basis Set:
  @DF-RHF Final Energy:  -266.81442063589458
    Total Energy =                       -266.8144206358949191
  Basis Set: 6-31G*
  Basis Set:
  Basis Set: 6-31G*
  Basis Set:
  @DF-RHF Final Energy:  -266.81442621680958
    Total Energy =                       -266.8144262168096930
  Basis Set: 6-31G*
  Basis Set:
  Charge       = 0
  Multiplicity = 1
  Basis Set: 6-31G*
  Basis Set:

    Orbital Energies (a.u.)
    -----------------------

    Doubly Occupied:

       1A    -20.597141     2A    -20.566588     3A    -11.380324
       4A    -11.297719     5A    -11.227428     6A     -1.467413
       7A     -1.376144     8A     -1.050159     9A     -0.894308
      10A     -0.816113    11A     -0.739890    12A     -0.686740
      13A     -0.658399    14A     -0.625310    15A     -0.563409
      16A     -0.543850    17A     -0.531468    18A     -0.506991
      19A     -0.463380    20A     -0.449719

  @DF-RHF Final Energy:  -266.81442867805578

   => Energetics <=

    Nuclear Repulsion Energy =            177.7475745119698445
    One-Electron Energy =                -716.2390183863083166
    Two-Electron Energy =                 271.6770151962829800
    DFT Exchange-Correlation Energy =       0.0000000000000000
    Empirical Dispersion Energy =           0.0000000000000000
    PCM Polarization Energy =               0.0000000000000000
    EFP Energy =                            0.0000000000000000
    Total Energy =                       -266.8144286780555490
    Molecular point group: c1
  Basis Set: 6-31G*
  Basis Set:

  -Total Gradient:
     Atom            X                  Y                   Z
    ------   -----------------  -----------------  -----------------
       1        0.000033218545    -0.000033164364     0.000004623392
       2       -0.000740329217     0.001698313170     0.015410586110
       3        0.001929809288    -0.007788077087    -0.010425028892
       4        0.000066633401     0.000661612816    -0.008930972102
       5       -0.001288338947     0.005452702882     0.003942938001
       6       -0.000012689985    -0.000003626036     0.000013587480
       7        0.000007365583     0.000021497637    -0.000012540026
       8        0.000010745357    -0.000000272374    -0.000001888621
       9       -0.000006701032    -0.000005246545    -0.000000968495
      10        0.000006440429     0.000001564123    -0.000002830847
      11       -0.000006153418    -0.000005304218     0.000002494001

  **** Optimization is complete! (in 6 steps) ****
    Final optimized geometry and variables:
    Molecular point group: c1

    Geometry (in Angstrom), charge = 0, multiplicity = 1:

    H           -1.892187664860     1.110087651398    -0.420697055489
    C           -1.288343180032     0.207622372055    -0.385906581872
    O            0.013599909504     0.491026814620    -0.336106432119
    O           -1.745797241705    -0.875469986553    -0.483893191796
    C            0.779339612030    -0.069873942922     0.729486423529
    C            2.233900629363     0.260665964775     0.476382534366
    H            0.615601318795    -1.138342960947     0.761589774350
    H            0.438418425609     0.362003944976     1.664106084394
    H            2.562715085409    -0.172129847826    -0.460967617158
    H            2.848960223851    -0.137610001685     1.276759472725
    H            2.379667491218     1.333531402827     0.430046893396

  Mulliken Charges: (a.u.)
   Center  Symbol    Alpha    Beta     Spin     Total
       1     H     0.41912  0.41912  0.00000  0.16177
       2     C     2.72795  2.72795  0.00000  0.54410
       3     O     4.30242  4.30242  0.00000 -0.60484
       4     O     4.24032  4.24032  0.00000 -0.48065
       5     C     3.00550  3.00550  0.00000 -0.01100
       6     C     3.24826  3.24826  0.00000 -0.49651
       7     H     0.40466  0.40466  0.00000  0.19068
       8     H     0.41844  0.41844  0.00000  0.16311
       9     H     0.40728  0.40728  0.00000  0.18543
      10     H     0.41594  0.41594  0.00000  0.16813
      11     H     0.41011  0.41011  0.00000  0.17978

   Total alpha = 20.00000, Total beta = 20.00000, Total charge =  0.00000
