  ==> Input File <==

--------------------------------------------------------------------------
set {
	reference rhf
	basis 6-31G*
}

set_num_threads( 4 )
memory 2 gb

molecule MOL {
0 1

H	 -2.121454	 0.569162	 0.801659
N	 -1.852125	 0.165761	 -0.074816
C	 -0.563778	 -0.502042	 0.037919
H	 -1.801618	 0.917261	 -0.736218
C	 0.575259	 0.508231	 -0.048326
H	 -0.482092	 -1.204004	 -0.786564
H	 -0.460411	 -1.085169	 0.956626
C	 1.954651	 -0.143624	 0.035137
H	 0.475158	 1.060484	 -0.977307
H	 0.469181	 1.234488	 0.755973
H	 2.103292	 -0.853109	 -0.774172
H	 2.742821	 0.599562	 -0.030094
H	 2.083613	 -0.679371	 0.971560

	symmetry c1
}
set optking {
	frozen_dihedral = ("
		1 2 3 6
	")
}

ee = optimize('scf')
oeprop('DIPOLE', 'QUADRUPOLE', 'MULLIKEN_CHARGES')
f=open( 'psi4out.xyz', 'w' )
f.write( "13  " )
f.write( str(ee) + "\n" )
f.write( MOL.save_string_xyz() )
f.close()
--------------------------------------------------------------------------

    Molecular point group: c1
  Charge       = 0
  Multiplicity = 1
  Basis Set: 6-31G*
  Basis Set:
  @DF-RHF Final Energy:  -173.27914883242292
    Total Energy =                       -173.2791488324229761
    Molecular point group: c1
  Basis Set: 6-31G*
  Basis Set:
  Basis Set: 6-31G*
  Basis Set:
  @DF-RHF Final Energy:  -173.28137472534090
    Total Energy =                       -173.2813747253409531
  Basis Set: 6-31G*
  Basis Set:
  Basis Set: 6-31G*
  Basis Set:
  @DF-RHF Final Energy:  -173.28164289304524
    Total Energy =                       -173.2816428930451309
  Basis Set: 6-31G*
  Basis Set:
  Basis Set: 6-31G*
  Basis Set:
  @DF-RHF Final Energy:  -173.28165091584881
    Total Energy =                       -173.2816509158487577
  Basis Set: 6-31G*
  Basis Set:
  Basis Set: 6-31G*
  Basis Set:
  @DF-RHF Final Energy:  -173.28165286891485
    Total Energy =                       -173.2816528689148470
  Basis Set: 6-31G*
  Basis Set:
  Charge       = 0
  Multiplicity = 1
  Basis Set: 6-31G*
  Basis Set:

    Orbital Energies (a.u.)
    -----------------------

    Doubly Occupied:

       1A    -15.531713     2A    -11.239931     3A    -11.216431
       4A    -11.212241     5A     -1.176193     6A     -1.037122
       7A     -0.899458     8A     -0.807473     9A     -0.676443
      10A     -0.608786    11A     -0.606418    12A     -0.561808
      13A     -0.526611    14A     -0.512404    15A     -0.487119
      16A     -0.470656    17A     -0.375199

  @DF-RHF Final Energy:  -173.28165332805210

   => Energetics <=

    Nuclear Repulsion Energy =            131.5712844241107007
    One-Electron Energy =                -493.8138631059483146
    Two-Electron Energy =                 188.9609253537855977
    DFT Exchange-Correlation Energy =       0.0000000000000000
    Empirical Dispersion Energy =           0.0000000000000000
    PCM Polarization Energy =               0.0000000000000000
    EFP Energy =                            0.0000000000000000
    Total Energy =                       -173.2816533280519877
    Molecular point group: c1
  Basis Set: 6-31G*
  Basis Set:

  -Total Gradient:
     Atom            X                  Y                   Z
    ------   -----------------  -----------------  -----------------
       1       -0.001044216457    -0.002268229212     0.000803598294
       2        0.001092214509     0.002440086427    -0.000678840428
       3        0.000798352689     0.001521247759    -0.001593851068
       4        0.000003435849     0.000000077759     0.000003991149
       5       -0.000035074831    -0.000010210220     0.000011713631
       6       -0.000841006845    -0.001686419147     0.001456394059
       7        0.000004125147    -0.000007322197     0.000001514201
       8        0.000010318605     0.000007973558    -0.000005943970
       9        0.000006617680    -0.000004732029     0.000005715418
      10        0.000005421717     0.000010273690    -0.000001582068
      11        0.000000358567    -0.000001117906    -0.000004115096
      12        0.000004191886    -0.000005191420     0.000001045493
      13       -0.000004738521     0.000003562937     0.000000360385

  **** Optimization is complete! (in 6 steps) ****
    Final optimized geometry and variables:
    Molecular point group: c1

    Geometry (in Angstrom), charge = 0, multiplicity = 1:

    H           -2.154104475875     0.534658274011     0.824725417666
    N           -1.900518414611     0.108248772482    -0.044355711507
    C           -0.572724488942    -0.480313234536     0.025926056423
    H           -1.957056668103     0.807656056727    -0.758919825486
    C            0.594334159492     0.506846272896    -0.036075811566
    H           -0.481423757011    -1.214217120339    -0.770295086958
    H           -0.517639849902    -1.046382049676     0.951555145782
    C            1.957815012179    -0.179293731588     0.041182269938
    H            0.527568977096     1.078761428315    -0.960233732865
    H            0.497200224477     1.224315690848     0.776591475181
    H            2.089905562934    -0.882140380361    -0.776537174166
    H            2.765935393704     0.543170349622    -0.010775613650
    H            2.067412547178    -0.730973206270     0.970684349290

  Mulliken Charges: (a.u.)
   Center  Symbol    Alpha    Beta     Spin     Total
       1     H     0.33360  0.33360  0.00000  0.33281
       2     N     3.92175  3.92175  0.00000 -0.84349
       3     C     3.05794  3.05794  0.00000 -0.11587
       4     H     0.33426  0.33426  0.00000  0.33149
       5     C     3.15817  3.15817  0.00000 -0.31633
       6     H     0.41916  0.41916  0.00000  0.16168
       7     H     0.42148  0.42148  0.00000  0.15705
       8     C     3.24375  3.24375  0.00000 -0.48751
       9     H     0.42585  0.42585  0.00000  0.14830
      10     H     0.42549  0.42549  0.00000  0.14902
      11     H     0.42003  0.42003  0.00000  0.15994
      12     H     0.41768  0.41768  0.00000  0.16465
      13     H     0.42086  0.42086  0.00000  0.15829

   Total alpha = 17.00000, Total beta = 17.00000, Total charge = -0.00000
