  ==> Input File <==

--------------------------------------------------------------------------
set {
	reference rhf
	basis 6-31G*
}

set_num_threads( 4 )
memory 2 gb

molecule MOL {
0 1

H	 -2.762043	 -0.328721	 2.008046
O	 -1.917411	 -0.045404	 1.688510
C	 -2.026376	 0.340750	 0.341611
C	 -0.673256	 0.843270	 -0.132153
H	 -2.339397	 -0.503104	 -0.270651
H	 -2.774606	 1.124267	 0.228006
C	 0.486613	 -0.083066	 0.235839
H	 -0.715586	 0.970948	 -1.210718
H	 -0.508072	 1.829858	 0.297090
C	 1.840406	 0.433480	 -0.254303
H	 0.300215	 -1.068318	 -0.178947
H	 0.519509	 -0.203625	 1.318070
C	 3.000220	 -0.489290	 0.118523
H	 1.809207	 0.553576	 -1.335192
H	 2.021860	 1.424500	 0.157276
H	 2.864959	 -1.479103	 -0.307933
H	 3.946603	 -0.099227	 -0.243630
H	 3.080049	 -0.602997	 1.196117

	symmetry c1
}
set optking {
	frozen_dihedral = ("
		2 3 4 8
	")
}

ee = optimize('scf')
oeprop('DIPOLE', 'QUADRUPOLE', 'MULLIKEN_CHARGES')
f=open( 'psi4out.xyz', 'w' )
f.write( "18  " )
f.write( str(ee) + "\n" )
f.write( MOL.save_string_xyz() )
f.close()
--------------------------------------------------------------------------

    Molecular point group: c1
  Charge       = 0
  Multiplicity = 1
  Basis Set: 6-31G*
  Basis Set:
  @DF-RHF Final Energy:  -271.17857249110068
    Total Energy =                       -271.1785724911004536
    Molecular point group: c1
  Basis Set: 6-31G*
  Basis Set:
  Basis Set: 6-31G*
  Basis Set:
  @DF-RHF Final Energy:  -271.17879043990115
    Total Energy =                       -271.1787904399013200
  Basis Set: 6-31G*
  Basis Set:
  Basis Set: 6-31G*
  Basis Set:
  @DF-RHF Final Energy:  -271.17887869605988
    Total Energy =                       -271.1788786960598259
  Basis Set: 6-31G*
  Basis Set:
  Charge       = 0
  Multiplicity = 1
  Basis Set: 6-31G*
  Basis Set:

    Orbital Energies (a.u.)
    -----------------------

    Doubly Occupied:

       1A    -20.553186     2A    -11.268412     3A    -11.212484
       4A    -11.209847     5A    -11.204671     6A    -11.203724
       7A     -1.360137     8A     -1.073670     9A     -1.007884
      10A     -0.912737    11A     -0.817179    12A     -0.782223
      13A     -0.702935    14A     -0.648082    15A     -0.620955
      16A     -0.579939    17A     -0.571236    18A     -0.556215
      19A     -0.520663    20A     -0.501157    21A     -0.489088
      22A     -0.465254    23A     -0.456898    24A     -0.444895
      25A     -0.429843

  @DF-RHF Final Energy:  -271.17887950887450

   => Energetics <=

    Nuclear Repulsion Energy =            249.5704219730101840
    One-Electron Energy =                -862.3119740049039592
    Two-Electron Energy =                 341.5626725230191596
    DFT Exchange-Correlation Energy =       0.0000000000000000
    Empirical Dispersion Energy =           0.0000000000000000
    PCM Polarization Energy =               0.0000000000000000
    EFP Energy =                            0.0000000000000000
    Total Energy =                       -271.1788795088746156
    Molecular point group: c1
  Basis Set: 6-31G*
  Basis Set:

  -Total Gradient:
     Atom            X                  Y                   Z
    ------   -----------------  -----------------  -----------------
       1       -0.000016098189    -0.000001846033     0.000020904027
       2        0.000767889012    -0.002798120720    -0.000819242544
       3       -0.000752153480     0.002889146976     0.000941467296
       4       -0.001327653859     0.003554982540     0.000160119501
       5        0.000016595358     0.000002917385    -0.000014104320
       6        0.000009268908    -0.000011613810     0.000062578789
       7       -0.000007085054     0.000123683485     0.000136715355
       8        0.001274224913    -0.003626110464    -0.000478065377
       9        0.000009569743    -0.000097085836     0.000014590325
      10        0.000006629959     0.000009137279     0.000011667175
      11       -0.000013641287    -0.000039704745     0.000001476662
      12        0.000022328746     0.000007257290    -0.000012162915
      13        0.000007558597    -0.000017199809    -0.000031693884
      14       -0.000015963189     0.000030259136     0.000006539721
      15        0.000016850005    -0.000010893956     0.000020004833
      16        0.000003038733    -0.000013007803     0.000003930458
      17        0.000004421322    -0.000013763907    -0.000013376053
      18       -0.000005780238     0.000011962993    -0.000011349051

  **** Optimization is complete! (in 4 steps) ****
    Final optimized geometry and variables:
    Molecular point group: c1

    Geometry (in Angstrom), charge = 0, multiplicity = 1:

    H           -2.879574871924    -0.505997540200     1.599931366328
    O           -2.031878546193    -0.191153559989     1.320511552471
    C           -2.091151330447     0.180408162716    -0.033091238712
    C           -0.731733430064     0.703672574160    -0.473649982876
    H           -2.361877007804    -0.680604179809    -0.643241737826
    H           -2.850017522434     0.944437332058    -0.190561194177
    C            0.427825790375    -0.226476044164    -0.107644081951
    H           -0.756357066460     0.812831413119    -1.556368668209
    H           -0.563575439268     1.687459052745    -0.044614596403
    C            1.774542636400     0.275652127863    -0.631728600930
    H            0.232233146634    -1.218891268584    -0.511957131087
    H            0.473616370677    -0.338791365178     0.969638646406
    C            2.935189859830    -0.651972516681    -0.273578557333
    H            1.725480173812     0.389735770967    -1.712994815832
    H            1.970230198547     1.267752320578    -0.229777565087
    H            2.786084492396    -1.644627251932    -0.689315799599
    H            3.877225039168    -0.271284426433    -0.656532585275
    H            3.033498378770    -0.757478161465     0.803035266007

  Mulliken Charges: (a.u.)
   Center  Symbol    Alpha    Beta     Spin     Total
       1     H     0.28045  0.28045  0.00000  0.43911
       2     O     4.36948  4.36948  0.00000 -0.73896
       3     C     2.99591  2.99591  0.00000  0.00819
       4     C     3.16252  3.16252  0.00000 -0.32504
       5     H     0.43258  0.43258  0.00000  0.13484
       6     H     0.42919  0.42919  0.00000  0.14162
       7     C     3.15060  3.15060  0.00000 -0.30121
       8     H     0.42405  0.42405  0.00000  0.15190
       9     H     0.41728  0.41728  0.00000  0.16543
      10     C     3.15205  3.15205  0.00000 -0.30411
      11     H     0.42701  0.42701  0.00000  0.14598
      12     H     0.40682  0.40682  0.00000  0.18636
      13     C     3.23868  3.23868  0.00000 -0.47736
      14     H     0.42577  0.42577  0.00000  0.14845
      15     H     0.42344  0.42344  0.00000  0.15312
      16     H     0.42254  0.42254  0.00000  0.15491
      17     H     0.42071  0.42071  0.00000  0.15859
      18     H     0.42092  0.42092  0.00000  0.15817

   Total alpha = 25.00000, Total beta = 25.00000, Total charge = -0.00000
