                              Psi4 1.0.54 Driver

  ==> Input File <==

--------------------------------------------------------------------------
set {
	reference rhf
	basis cc-pvtz
}

set_num_threads( 4 )
memory 2 gb

molecule MOL {
0 1

H	 2.685922	 0.326766	 1.754436
O	 1.989609	 0.867049	 1.429940
C	 1.135873	 0.113391	 0.608264
C	 0.027642	 1.012027	 0.090274
H	 0.694702	 -0.705287	 1.171204
H	 1.691696	 -0.322966	 -0.217033
C	 -1.138737	 0.285728	 -0.581921
H	 0.464661	 1.708096	 -0.618252
H	 -0.340737	 1.603071	 0.925246
C	 -1.933983	 -0.631436	 0.343653
H	 -0.763151	 -0.285569	 -1.422081
H	 -1.808359	 1.035291	 -0.992333
H	 -2.789188	 -1.049673	 -0.174718
H	 -1.335629	 -1.461368	 0.700418
H	 -2.305435	 -0.092167	 1.209725

	symmetry c1
}
set optking {
	frozen_dihedral = ("
		2 3 4 8
	")
}

ee,wfn = optimize('scf', return_wfn=True)
oeprop( wfn, 'DIPOLE', 'QUADRUPOLE', 'MULLIKEN_CHARGES')
f=open( 'psi4out.xyz', 'w' )
f.write( "15  " )
f.write( str(ee) + "\n" )
f.write( MOL.save_string_xyz() )
f.close()
--------------------------------------------------------------------------

    Molecular point group: c1
  Charge       = 0
  Multiplicity = 1
  Basis Set: CC-PVTZ
  Basis Set:
  @DF-RHF Final Energy:  -232.23615764237633
    Total Energy =                       -232.2361576423763267
    Molecular point group: c1
  Basis Set: CC-PVTZ
  Basis Set:
  Basis Set: CC-PVTZ
  Basis Set:
  @DF-RHF Final Energy:  -232.23626565313441
    Total Energy =                       -232.2362656531344669
  Basis Set: CC-PVTZ
  Basis Set:
  Basis Set: CC-PVTZ
  Basis Set:
  @DF-RHF Final Energy:  -232.23660696395456
    Total Energy =                       -232.2366069639545003
  Basis Set: CC-PVTZ
  Basis Set:
  Basis Set: CC-PVTZ
  Basis Set:
  @DF-RHF Final Energy:  -232.23662127021797
    Total Energy =                       -232.2366212702179951
  Basis Set: CC-PVTZ
  Basis Set:
  Basis Set: CC-PVTZ
  Basis Set:
  @DF-RHF Final Energy:  -232.23662931669384
    Total Energy =                       -232.2366293166937794
  Basis Set: CC-PVTZ
  Basis Set:
  Charge       = 0
  Multiplicity = 1
  Basis Set: CC-PVTZ
  Basis Set:

    Orbital Energies (a.u.)
    -----------------------

    Doubly Occupied:

       1A    -20.545355     2A    -11.264811     3A    -11.216583
       4A    -11.209778     5A    -11.207979     6A     -1.363023
       7A     -1.070364     8A     -0.972171     9A     -0.868796
      10A     -0.785978    11A     -0.697588    12A     -0.653793
      13A     -0.620560    14A     -0.579856    15A     -0.558069
      16A     -0.542404    17A     -0.505401    18A     -0.475734
      19A     -0.473137    20A     -0.458322    21A     -0.435177

  @DF-RHF Final Energy:  -232.23663005666185

   => Energetics <=

    Nuclear Repulsion Energy =            188.2942752786129859
    One-Electron Energy =                -688.0520599551612122
    Two-Electron Energy =                 267.5211546198863743
    DFT Exchange-Correlation Energy =       0.0000000000000000
    Empirical Dispersion Energy =           0.0000000000000000
    PCM Polarization Energy =               0.0000000000000000
    EFP Energy =                            0.0000000000000000
    Total Energy =                       -232.2366300566618520
    Molecular point group: c1
  Basis Set: CC-PVTZ
  Basis Set:

  -Total Gradient:
     Atom            X                  Y                   Z
    ------   -----------------  -----------------  -----------------
       1       -0.000014737582    -0.000000564096    -0.000007690848
       2       -0.001001366688    -0.000553376498     0.001579871745
       3        0.001185631667     0.000396047629    -0.002461851138
       4        0.000378973794     0.001650928676     0.002871531276
       5       -0.000019766779    -0.000003306030    -0.000014979118
       6       -0.000002824135     0.000012476965     0.000001273255
       7       -0.000021453718    -0.000016293817     0.000030284096
       8       -0.000521078864    -0.001490653211    -0.001985601606
       9       -0.000003696564    -0.000008223067    -0.000002826063
      10       -0.000002024925    -0.000010483899    -0.000011904965
      11        0.000011506829    -0.000002664830     0.000000555805
      12       -0.000007623766     0.000008092204    -0.000000458839
      13        0.000012170774     0.000012210186     0.000004178179
      14        0.000000726739     0.000012649616     0.000000757605
      15        0.000005563224    -0.000006839830    -0.000003139382

  **** Optimization is complete! (in 6 steps) ****
    Final optimized geometry and variables:
    Molecular point group: c1

    Geometry (in Angstrom), charge = 0, multiplicity = 1:

    H            2.701740313282    -0.073081341885     1.197408540509
    O            1.968777579808     0.468170286219     0.969433175386
    C            1.090100052999    -0.236809308704     0.131781831724
    C           -0.043450631666     0.692880738139    -0.262566946979
    H            0.704523728797    -1.109111515772     0.651366232934
    H            1.605069257173    -0.587766964523    -0.759747028611
    C           -1.209170430255    -0.012472383977    -0.960552875557
    H            0.356145696386     1.446279063296    -0.932775887741
    H           -0.394883947516     1.205213583331     0.626438877251
    C           -2.074941341164    -0.876016246022    -0.045446492410
    H           -0.828975274384    -0.619130076030    -1.778977009303
    H           -1.838883050706     0.743296390757    -1.417971397618
    H           -2.905398413380    -1.304334134735    -0.594959255587
    H           -1.518410861156    -1.696269133696     0.391736240401
    H           -2.485775458048    -0.286580528853     0.767370786085

  Mulliken Charges: (a.u.)
   Center  Symbol    Alpha    Beta     Spin     Total
       1     H     0.39675  0.39675  0.00000  0.20651
       2     O     4.19597  4.19597  0.00000 -0.39194
       3     C     2.96112  2.96112  0.00000  0.07775
       4     C     3.08987  3.08987  0.00000 -0.17973
       5     H     0.47529  0.47529  0.00000  0.04943
       6     H     0.47350  0.47350  0.00000  0.05299
       7     C     3.09887  3.09887  0.00000 -0.19774
       8     H     0.44890  0.44890  0.00000  0.10221
       9     H     0.45022  0.45022  0.00000  0.09956
      10     C     3.14872  3.14872  0.00000 -0.29745
      11     H     0.45633  0.45633  0.00000  0.08735
      12     H     0.44720  0.44720  0.00000  0.10560
      13     H     0.44746  0.44746  0.00000  0.10508
      14     H     0.45637  0.45637  0.00000  0.08725
      15     H     0.45343  0.45343  0.00000  0.09314

   Total alpha = 21.00000, Total beta = 21.00000, Total charge = -0.00000

*** Psi4 exiting successfully. Buy a developer a beer!
