  ==> Input File <==

--------------------------------------------------------------------------
set {
	reference rhf
	basis 6-31G*
}

set_num_threads( 4 )
memory 2 gb

molecule MOL {
0 1

H	 -3.135461	 -1.215070	 0.001379
O	 -2.310168	 -0.871793	 -0.309793
C	 -2.026376	 0.340750	 0.341611
C	 -0.673256	 0.843270	 -0.132153
H	 -2.792215	 1.080697	 0.115987
H	 -2.013526	 0.200402	 1.421792
C	 0.486613	 -0.083066	 0.235839
H	 -0.715586	 0.970948	 -1.210718
H	 -0.508072	 1.829858	 0.297090
C	 1.840406	 0.433480	 -0.254303
H	 0.300215	 -1.068318	 -0.178947
H	 0.519509	 -0.203625	 1.318070
C	 2.926452	 -0.641744	 -0.245895
H	 1.731171	 0.826770	 -1.262821
H	 2.156578	 1.269751	 0.366285
H	 2.654942	 -1.476685	 -0.885461
H	 3.874174	 -0.247760	 -0.600218
H	 3.084268	 -1.031848	 0.755816

	symmetry c1
}
set optking {
	frozen_dihedral = ("
		14 10 7 11
	")
}

ee = optimize('scf')
oeprop('DIPOLE', 'QUADRUPOLE', 'MULLIKEN_CHARGES')
f=open( 'psi4out.xyz', 'w' )
f.write( "18  " )
f.write( str(ee) + "\n" )
f.write( MOL.save_string_xyz() )
f.close()
--------------------------------------------------------------------------

    Molecular point group: c1
  Charge       = 0
  Multiplicity = 1
  Basis Set: 6-31G*
  Basis Set:
  @DF-RHF Final Energy:  -271.17895786139263
    Total Energy =                       -271.1789578613925187
    Molecular point group: c1
  Basis Set: 6-31G*
  Basis Set:
  Basis Set: 6-31G*
  Basis Set:
  @DF-RHF Final Energy:  -271.17907049270696
    Total Energy =                       -271.1790704927070692
  Basis Set: 6-31G*
  Basis Set:
  Basis Set: 6-31G*
  Basis Set:
  @DF-RHF Final Energy:  -271.17911026653519
    Total Energy =                       -271.1791102665350195
  Basis Set: 6-31G*
  Basis Set:
  Basis Set: 6-31G*
  Basis Set:
  @DF-RHF Final Energy:  -271.17911310088436
    Total Energy =                       -271.1791131008843649
  Basis Set: 6-31G*
  Basis Set:
  Charge       = 0
  Multiplicity = 1
  Basis Set: 6-31G*
  Basis Set:

    Orbital Energies (a.u.)
    -----------------------

    Doubly Occupied:

       1A    -20.553039     2A    -11.268085     3A    -11.212288
       4A    -11.210656     5A    -11.206311     6A    -11.204559
       7A     -1.359775     8A     -1.074413     9A     -1.008772
      10A     -0.913111    11A     -0.818117    12A     -0.784064
      13A     -0.704657    14A     -0.642094    15A     -0.623811
      16A     -0.578064    17A     -0.570882    18A     -0.560692
      19A     -0.520689    20A     -0.501170    21A     -0.489155
      22A     -0.467722    23A     -0.455697    24A     -0.447902
      25A     -0.429161

  @DF-RHF Final Energy:  -271.17911380797290

   => Energetics <=

    Nuclear Repulsion Energy =            249.0703829644317580
    One-Electron Energy =                -861.2892225123603112
    Two-Electron Energy =                 341.0397257399555997
    DFT Exchange-Correlation Energy =       0.0000000000000000
    Empirical Dispersion Energy =           0.0000000000000000
    PCM Polarization Energy =               0.0000000000000000
    EFP Energy =                            0.0000000000000000
    Total Energy =                       -271.1791138079730104
    Molecular point group: c1
  Basis Set: 6-31G*
  Basis Set:

  -Total Gradient:
     Atom            X                  Y                   Z
    ------   -----------------  -----------------  -----------------
       1        0.000001674767     0.000002893590     0.000002396197
       2        0.000011275075    -0.000004113332     0.000004918097
       3       -0.000019637144     0.000011632842    -0.000025757468
       4        0.000025030112    -0.000025430651     0.000012239676
       5       -0.000011918276     0.000000482385     0.000003318760
       6        0.000008671103    -0.000000140613    -0.000010531399
       7       -0.001699409722     0.002211703855    -0.002613742024
       8       -0.000000167764    -0.000002461155     0.000008934395
       9        0.000002084474    -0.000005137521     0.000004391150
      10        0.001058642487    -0.003590281459    -0.000830828382
      11        0.001273765548    -0.001252729701     0.002302568710
      12       -0.000004998156     0.000018949107     0.000031403156
      13       -0.000010406742     0.000017501315    -0.000002610830
      14       -0.000648664314     0.002604826188     0.001089844216
      15        0.000018490275     0.000001648239     0.000026879918
      16        0.000006034243     0.000017782579    -0.000006779525
      17        0.000001068851    -0.000000807194     0.000006656346
      18       -0.000011534819    -0.000006318472    -0.000003300993

  **** Optimization is complete! (in 5 steps) ****
    Final optimized geometry and variables:
    Molecular point group: c1

    Geometry (in Angstrom), charge = 0, multiplicity = 1:

    H           -3.140374239901    -1.170222970900     0.108219013463
    O           -2.317653145778    -0.836967794487    -0.220231592892
    C           -2.009649466985     0.376080942107     0.418965738875
    C           -0.661694022662     0.863128097407    -0.084299724092
    H           -2.772789511525     1.122234393567     0.204750912288
    H           -1.976439296029     0.241150408390     1.499346528257
    C            0.494955794827    -0.075932778794     0.255978694177
    H           -0.725525344968     0.993056869712    -1.161370480153
    H           -0.475025748057     1.847085468239     0.342593234359
    C            1.856311019574     0.451472572595    -0.207675066274
    H            0.311982771614    -1.056840517027    -0.170670683097
    H            0.526991617476    -0.226858318796     1.334794084381
    C            2.957653022424    -0.605575777076    -0.165409253128
    H            1.768124449644     0.858689390457    -1.212865144660
    H            2.142660637340     1.293400993003     0.420332862821
    H            2.731343501096    -1.432502924028    -0.832151085980
    H            3.915303910168    -0.190299875518    -0.464227925205
    H            3.071414850057    -1.011657338862     0.836029594017

  Mulliken Charges: (a.u.)
   Center  Symbol    Alpha    Beta     Spin     Total
       1     H     0.28059  0.28059  0.00000  0.43883
       2     O     4.36953  4.36953  0.00000 -0.73906
       3     C     2.99744  2.99744  0.00000  0.00511
       4     C     3.16060  3.16060  0.00000 -0.32120
       5     H     0.42927  0.42927  0.00000  0.14147
       6     H     0.43255  0.43255  0.00000  0.13490
       7     C     3.15325  3.15325  0.00000 -0.30650
       8     H     0.41484  0.41484  0.00000  0.17032
       9     H     0.42403  0.42403  0.00000  0.15194
      10     C     3.15213  3.15213  0.00000 -0.30427
      11     H     0.40814  0.40814  0.00000  0.18372
      12     H     0.42733  0.42733  0.00000  0.14535
      13     C     3.23900  3.23900  0.00000 -0.47801
      14     H     0.42305  0.42305  0.00000  0.15391
      15     H     0.42494  0.42494  0.00000  0.15013
      16     H     0.42042  0.42042  0.00000  0.15917
      17     H     0.42053  0.42053  0.00000  0.15894
      18     H     0.42238  0.42238  0.00000  0.15525

   Total alpha = 25.00000, Total beta = 25.00000, Total charge =  0.00000
