  ==> Input File <==

--------------------------------------------------------------------------
set {
	reference rhf
	basis 6-31G*
}

set_num_threads( 4 )
memory 2 gb

molecule MOL {
0 1

H	 -1.892424	 -0.328139	 -0.980784
O	 -1.422729	 -0.573567	 -0.196946
C	 -0.731407	 0.539437	 0.309156
C	 0.680193	 0.672443	 -0.251532
H	 -1.319765	 1.404033	 0.030086
H	 -0.700012	 0.506517	 1.397677
C	 1.599139	 -0.492137	 0.118598
H	 0.616402	 0.758534	 -1.332349
H	 1.107032	 1.602637	 0.117369
H	 1.239738	 -1.428634	 -0.297334
H	 2.601428	 -0.335055	 -0.265730
H	 1.674954	 -0.608418	 1.197020

	symmetry c1
}
set optking {
	frozen_dihedral = ("
		1 2 3 4
	")
}

ee = optimize('scf')
oeprop('DIPOLE', 'QUADRUPOLE', 'MULLIKEN_CHARGES')
f=open( 'psi4out.xyz', 'w' )
f.write( "12  " )
f.write( str(ee) + "\n" )
f.write( MOL.save_string_xyz() )
f.close()
--------------------------------------------------------------------------

    Molecular point group: c1
  Charge       = 0
  Multiplicity = 1
  Basis Set: 6-31G*
  Basis Set:
  @DF-RHF Final Energy:  -193.10784735790693
    Total Energy =                       -193.1078473579070192
    Molecular point group: c1
  Basis Set: 6-31G*
  Basis Set:
  Basis Set: 6-31G*
  Basis Set:
  @DF-RHF Final Energy:  -193.10925242273905
    Total Energy =                       -193.1092524227390754
  Basis Set: 6-31G*
  Basis Set:
  Basis Set: 6-31G*
  Basis Set:
  @DF-RHF Final Energy:  -193.10967375153348
    Total Energy =                       -193.1096737515335917
  Basis Set: 6-31G*
  Basis Set:
  Basis Set: 6-31G*
  Basis Set:
  @DF-RHF Final Energy:  -193.10967759283162
    Total Energy =                       -193.1096775928317015
  Basis Set: 6-31G*
  Basis Set:
  Basis Set: 6-31G*
  Basis Set:
  @DF-RHF Final Energy:  -193.10968218203354
    Total Energy =                       -193.1096821820335947
  Basis Set: 6-31G*
  Basis Set:
  Charge       = 0
  Multiplicity = 1
  Basis Set: 6-31G*
  Basis Set:

    Orbital Energies (a.u.)
    -----------------------

    Doubly Occupied:

       1A    -20.553446     2A    -11.268499     3A    -11.216318
       4A    -11.204462     5A     -1.359873     6A     -1.046871
       7A     -0.919053     8A     -0.808634     9A     -0.690524
      10A     -0.638058    11A     -0.611441    12A     -0.564846
      13A     -0.527651    14A     -0.517358    15A     -0.481684
      16A     -0.466715    17A     -0.428707

  @DF-RHF Final Energy:  -193.10968252376415

   => Energetics <=

    Nuclear Repulsion Energy =            133.0372360094568194
    One-Electron Energy =                -525.6855554715625658
    Two-Electron Energy =                 199.5386369383417673
    DFT Exchange-Correlation Energy =       0.0000000000000000
    Empirical Dispersion Energy =           0.0000000000000000
    PCM Polarization Energy =               0.0000000000000000
    EFP Energy =                            0.0000000000000000
    Total Energy =                       -193.1096825237639791
    Molecular point group: c1
  Basis Set: 6-31G*
  Basis Set:

  -Total Gradient:
     Atom            X                  Y                   Z
    ------   -----------------  -----------------  -----------------
       1       -0.001501603450     0.000440871026     0.000972483373
       2        0.002025211651    -0.000758556546    -0.000830984012
       3       -0.000901962378     0.000918141026    -0.001067992088
       4        0.000392754429    -0.000600456032     0.000960466275
       5       -0.000022030337    -0.000035689814    -0.000031348497
       6        0.000018082453     0.000028695893     0.000008648608
       7        0.000014901759     0.000010520434    -0.000010480362
       8       -0.000027959353     0.000000067781     0.000020010546
       9        0.000028421196     0.000015218013    -0.000004843944
      10       -0.000020702460    -0.000014960738    -0.000031320689
      11       -0.000009345114    -0.000018712877     0.000008561654
      12        0.000004231608     0.000014861833     0.000006799136

  **** Optimization is complete! (in 6 steps) ****
    Final optimized geometry and variables:
    Molecular point group: c1

    Geometry (in Angstrom), charge = 0, multiplicity = 1:

    H           -1.835432364782    -0.408183387469    -0.969030405261
    O           -1.377000548595    -0.613385447349    -0.167543243009
    C           -0.725440903950     0.536991578317     0.313893992121
    C            0.691389943433     0.671935150745    -0.231323579926
    H           -1.304464384077     1.428756402598     0.084935263161
    H           -0.695510776114     0.442598935624     1.393505518714
    C            1.586356477358    -0.509570810730     0.137048946954
    H            0.645924725060     0.774417020062    -1.314021279129
    H            1.120183770594     1.596829422079     0.149718457629
    H            1.170685559432    -1.438108524225    -0.235256377651
    H            2.581019717774    -0.390051931219    -0.281001227400
    H            1.688555869211    -0.598496873683     1.215212814625

  Mulliken Charges: (a.u.)
   Center  Symbol    Alpha    Beta     Spin     Total
       1     H     0.28122  0.28122  0.00000  0.43756
       2     O     4.36948  4.36948  0.00000 -0.73896
       3     C     3.00023  3.00023  0.00000 -0.00047
       4     C     3.15936  3.15936  0.00000 -0.31871
       5     H     0.42869  0.42869  0.00000  0.14263
       6     H     0.41820  0.41820  0.00000  0.16361
       7     C     3.24106  3.24106  0.00000 -0.48211
       8     H     0.42581  0.42581  0.00000  0.14838
       9     H     0.42431  0.42431  0.00000  0.15137
      10     H     0.40802  0.40802  0.00000  0.18395
      11     H     0.42092  0.42092  0.00000  0.15817
      12     H     0.42270  0.42270  0.00000  0.15460

   Total alpha = 17.00000, Total beta = 17.00000, Total charge =  0.00000
