                              Psi4 1.0.54 Driver

  ==> Input File <==

--------------------------------------------------------------------------
set {
	reference rhf
	basis cc-pvtz
}

set_num_threads( 4 )
memory 2 gb

molecule MOL {
0 1

H	 -2.698799	 -0.000846	 0.036018
C	 -1.694291	 -0.000483	 0.434279
O	 -0.828718	 -0.000608	 -0.655022
H	 -1.576855	 0.881100	 1.056504
H	 -1.576401	 -0.881658	 1.057001
C	 0.213634	 -0.943951	 -0.693543
C	 1.221238	 -0.749723	 0.433968
C	 -0.297138	 -2.378204	 -0.772779
H	 0.715417	 -0.720300	 -1.626716
H	 1.533948	 0.285933	 0.485809
H	 2.097667	 -1.361147	 0.252918
H	 0.817538	 -1.035626	 1.398265
H	 -1.037351	 -2.471920	 -1.557856
H	 0.524108	 -3.048866	 -0.997590
H	 -0.741216	 -2.707266	 0.159451

	symmetry c1
}
set optking {
	frozen_dihedral = ("
		6 3 2 1
	")
}

ee,wfn = optimize('scf', return_wfn=True)
oeprop( wfn, 'DIPOLE', 'QUADRUPOLE', 'MULLIKEN_CHARGES')
f=open( 'psi4out.xyz', 'w' )
f.write( "15  " )
f.write( str(ee) + "\n" )
f.write( MOL.save_string_xyz() )
f.close()
--------------------------------------------------------------------------

    Molecular point group: c1
  Charge       = 0
  Multiplicity = 1
  Basis Set: CC-PVTZ
  Basis Set:
  @DF-RHF Final Energy:  -232.22349702059725
    Total Energy =                       -232.2234970205973354
    Molecular point group: c1
  Basis Set: CC-PVTZ
  Basis Set:
  Basis Set: CC-PVTZ
  Basis Set:
  @DF-RHF Final Energy:  -231.72473076704080
    Total Energy =                       -231.7247307670410237
  Basis Set: CC-PVTZ
  Basis Set:
  Basis Set: CC-PVTZ
  Basis Set:
  @DF-RHF Final Energy:  -231.89386932223155
    Total Energy =                       -231.8938693222315521
  Basis Set: CC-PVTZ
  Basis Set:
  Basis Set: CC-PVTZ
  Basis Set:
  @DF-RHF Final Energy:  -231.81140786125616
    Total Energy =                       -231.8114078612560718
  Basis Set: CC-PVTZ
  Basis Set:
  @DF-RHF Final Energy:  -231.89609882197482
    Total Energy =                       -231.8960988219748174
  @DF-RHF Final Energy:  -232.10947377560532
    Total Energy =                       -232.1094737756053519
  @DF-RHF Final Energy:  -232.21799098834890
    Total Energy =                       -232.2179909883490723
  @DF-RHF Final Energy:  -232.22371655489420
    Total Energy =                       -232.2237165548941107
  @DF-RHF Final Energy:  -232.22224189428331
    Total Energy =                       -232.2222418942833997
  @DF-RHF Final Energy:  -231.67040408996922
    Total Energy =                       -231.6704040899693382
  @DF-RHF Final Energy:  -231.75968058538788
    Total Energy =                       -231.7596805853875424
  @DF-RHF Final Energy:  -231.71547290384896
    Total Energy =                       -231.7154729038489052
  @DF-RHF Final Energy:  -231.90385018154680
    Total Energy =                       -231.9038501815467157
  @DF-RHF Final Energy:  -231.81243570893099
    Total Energy =                       -231.8124357089310479
  @DF-RHF Final Energy:  -231.76453395669802
    Total Energy =                       -231.7645339566979885
  @DF-RHF Final Energy:  -231.93731014556954
    Total Energy =                       -231.9373101455693700
  @DF-RHF Final Energy:  -231.85372051386187
    Total Energy =                       -231.8537205138619868
  @DF-RHF Final Energy:  -231.80973334826945
    Total Energy =                       -231.8097333482695603
  @DF-RHF Final Energy:  -231.97527810571333
    Total Energy =                       -231.9752781057133575
  @DF-RHF Final Energy:  -231.89554404824324
    Total Energy =                       -231.8955440482433232
  @DF-RHF Final Energy:  -231.85329881074327
    Total Energy =                       -231.8532988107432402
  @DF-RHF Final Energy:  -232.01090367779105
    Total Energy =                       -232.0109036777911342
  @DF-RHF Final Energy:  -231.93540283008093
    Total Energy =                       -231.9354028300809603
  @DF-RHF Final Energy:  -231.89507068397447
    Total Energy =                       -231.8950706839748079
  @DF-RHF Final Energy:  -232.04397883460206
    Total Energy =                       -232.0439788346023420
  @DF-RHF Final Energy:  -231.97309176657811
    Total Energy =                       -231.9730917665779089
  @DF-RHF Final Energy:  -231.93486160315322
    Total Energy =                       -231.9348616031535357
  @DF-RHF Final Energy:  -232.07431352355172
    Total Energy =                       -232.0743135235517798
  @DF-RHF Final Energy:  -232.00842191670023
    Total Energy =                       -232.0084219167000583
  @DF-RHF Final Energy:  -231.97248339920600
    Total Energy =                       -231.9724833992059416
  @DF-RHF Final Energy:  -232.10173299861407
    Total Energy =                       -232.1017329986139544
  @DF-RHF Final Energy:  -232.21528698867991
    Total Energy =                       -232.2152869886797362
  @DF-RHF Final Energy:  -232.22378551945673
    Total Energy =                       -232.2237855194567260
  Basis Set: CC-PVTZ
  Basis Set:
  @DF-RHF Final Energy:  -232.22376007262415
    Total Energy =                       -232.2237600726242022
  Basis Set: CC-PVTZ
  Basis Set:
  Basis Set: CC-PVTZ
  Basis Set:
  @DF-RHF Final Energy:  -232.22396057888244
    Total Energy =                       -232.2239605788822132
  Basis Set: CC-PVTZ
  Basis Set:
  Basis Set: CC-PVTZ
  Basis Set:
  @DF-RHF Final Energy:  -232.22400686359208
    Total Energy =                       -232.2240068635921375
  Basis Set: CC-PVTZ
  Basis Set:
  Charge       = 0
  Multiplicity = 1
  Basis Set: CC-PVTZ
  Basis Set:

    Orbital Energies (a.u.)
    -----------------------

    Doubly Occupied:

       1A    -20.539462     2A    -11.273232     3A    -11.258868
       4A    -11.208835     5A    -11.208424     6A     -1.371212
       7A     -1.051084     8A     -0.940366     9A     -0.931704
      10A     -0.781803    11A     -0.677055    12A     -0.640678
      13A     -0.633705    14A     -0.570292    15A     -0.563918
      16A     -0.552097    17A     -0.538056    18A     -0.501134
      19A     -0.498573    20A     -0.443432    21A     -0.406220

  @DF-RHF Final Energy:  -232.22400832438694

   => Energetics <=

    Nuclear Repulsion Energy =            198.9037537656195695
    One-Electron Energy =                -709.0752287226746375
    Two-Electron Energy =                 277.9474666326682382
    DFT Exchange-Correlation Energy =       0.0000000000000000
    Empirical Dispersion Energy =           0.0000000000000000
    PCM Polarization Energy =               0.0000000000000000
    EFP Energy =                            0.0000000000000000
    Total Energy =                       -232.2240083243868298
    Molecular point group: c1
  Basis Set: CC-PVTZ
  Basis Set:

  -Total Gradient:
     Atom            X                  Y                   Z
    ------   -----------------  -----------------  -----------------
       1        0.000304541122    -0.000828410903    -0.000634917234
       2       -0.000043171113     0.001089504471     0.000600644086
       3       -0.000765773661    -0.000154706692     0.000862835873
       4       -0.000000869717     0.000003987557    -0.000041247853
       5        0.000057720947    -0.000086200275    -0.000005946451
       6        0.000495708563    -0.000105051944    -0.000548263063
       7        0.000041320885     0.000136108520    -0.000334726518
       8       -0.000136756448     0.000076298077    -0.000092615416
       9       -0.000021481851     0.000006261190     0.000032484005
      10        0.000012354564     0.000087109107     0.000082366679
      11        0.000089063664    -0.000108484195     0.000039068364
      12       -0.000039047380     0.000000376326    -0.000036165589
      13       -0.000045172509    -0.000009018316     0.000056549077
      14        0.000074961380    -0.000113078020     0.000035147293
      15       -0.000023398443     0.000005305098    -0.000015213255

  **** Optimization is complete! (in 22 steps) ****
    Final optimized geometry and variables:
    Molecular point group: c1

    Geometry (in Angstrom), charge = 0, multiplicity = 1:

    H           -1.143305009023     1.861482928864    -1.355173052472
    C           -1.212174359671     1.148266000471    -0.543061857667
    O            0.033817282377     1.047935675878     0.076863307512
    H           -1.957784101708     1.495831484036     0.163752420370
    H           -1.555032279203     0.209125504155    -0.958729384753
    C            0.593301999903    -0.222506243053     0.300043975679
    C           -0.266173499197    -1.082365658242     1.218874352656
    C            0.957496254614    -0.931258445725    -0.999698527849
    H            1.515371487347    -0.000802184048     0.822758384878
    H           -0.497001549457    -0.542341003706     2.129117943503
    H            0.265050701556    -1.988949298256     1.485955175156
    H           -1.198726419167    -1.374397043857     0.749452120605
    H            1.560204624171    -0.281709786944    -1.622098832716
    H            1.529819209725    -1.827126043710    -0.786272207441
    H            0.082044074768    -1.229599795449    -1.564755745333

  Mulliken Charges: (a.u.)
   Center  Symbol    Alpha    Beta     Spin     Total
       1     H     0.45056  0.45056  0.00000  0.09888
       2     C     3.03827  3.03827  0.00000 -0.07655
       3     O     4.18766  4.18766  0.00000 -0.37531
       4     H     0.45672  0.45672  0.00000  0.08656
       5     H     0.46971  0.46971  0.00000  0.06059
       6     C     2.93940  2.93940  0.00000  0.12120
       7     C     3.15489  3.15489  0.00000 -0.30978
       8     C     3.15479  3.15479  0.00000 -0.30958
       9     H     0.44601  0.44601  0.00000  0.10799
      10     H     0.44503  0.44503  0.00000  0.10993
      11     H     0.45026  0.45026  0.00000  0.09948
      12     H     0.45566  0.45566  0.00000  0.08868
      13     H     0.44480  0.44480  0.00000  0.11039
      14     H     0.45087  0.45087  0.00000  0.09825
      15     H     0.45537  0.45537  0.00000  0.08926

   Total alpha = 21.00000, Total beta = 21.00000, Total charge = -0.00000

*** Psi4 exiting successfully. Buy a developer a beer!
