  ==> Input File <==

--------------------------------------------------------------------------
set {
	reference rhf
	basis 6-31G*
}

set_num_threads( 4 )
memory 2 gb

molecule MOL {
0 1

O	 -0.131698	 -0.605612	 -2.941090
C	 -0.758734	 0.017575	 -2.139280
C	 -0.889235	 -0.467034	 -0.705952
C	 -1.423781	 1.328169	 -2.496255
C	 0.379448	 -0.143569	 0.099626
H	 -1.035919	 -1.541277	 -0.734072
H	 -1.756367	 -0.019550	 -0.228598
C	 1.631333	 -0.777471	 -0.511575
H	 0.482768	 0.934507	 0.149241
H	 0.263088	 -0.495696	 1.123449
C	 2.915987	 -0.544314	 0.291766
H	 1.766672	 -0.399098	 -1.523130
H	 1.471257	 -1.849544	 -0.605828
C	 3.373361	 0.914346	 0.347591
H	 3.708709	 -1.142521	 -0.150311
H	 2.780642	 -0.921148	 1.303579
H	 3.506512	 1.320010	 -0.651625
H	 4.322697	 0.999599	 0.867103
H	 2.660624	 1.545032	 0.868198
H	 -2.503456	 1.217519	 -2.438611
H	 -1.146217	 1.623280	 -3.498578
H	 -1.143704	 2.105866	 -1.791594

	symmetry c1
}
set optking {
	frozen_dihedral = ("
		6 3 5 8
	")
}

ee = optimize('scf')
oeprop('DIPOLE', 'QUADRUPOLE', 'MULLIKEN_CHARGES')
f=open( 'psi4out.xyz', 'w' )
f.write( "22  " )
f.write( str(ee) + "\n" )
f.write( MOL.save_string_xyz() )
f.close()
--------------------------------------------------------------------------

    Molecular point group: c1
  Charge       = 0
  Multiplicity = 1
  Basis Set: 6-31G*
  Basis Set:
  @DF-RHF Final Energy:  -348.09505921059241
    Total Energy =                       -348.0950592105922965
    Molecular point group: c1
  Basis Set: 6-31G*
  Basis Set:
  Basis Set: 6-31G*
  Basis Set:
  @DF-RHF Final Energy:  -348.09650692049354
    Total Energy =                       -348.0965069204937663
  Basis Set: 6-31G*
  Basis Set:
  Basis Set: 6-31G*
  Basis Set:
  @DF-RHF Final Energy:  -348.09657169091417
    Total Energy =                       -348.0965716909142884
  Basis Set: 6-31G*
  Basis Set:
  Basis Set: 6-31G*
  Basis Set:
  @DF-RHF Final Energy:  -348.09663998585887
    Total Energy =                       -348.0966399858590421
  Basis Set: 6-31G*
  Basis Set:
  @DF-RHF Final Energy:  -348.09714703537719
    Total Energy =                       -348.0971470353773611
  @DF-RHF Final Energy:  -348.09724107330720
    Total Energy =                       -348.0972410733072593
  @DF-RHF Final Energy:  -348.09725582380781
    Total Energy =                       -348.0972558238077568
  @DF-RHF Final Energy:  -348.09726619969888
    Total Energy =                       -348.0972661996987654
  Basis Set: 6-31G*
  Basis Set:
  @DF-RHF Final Energy:  -348.09727513932290
    Total Energy =                       -348.0972751393230737
  Basis Set: 6-31G*
  Basis Set:
  Basis Set: 6-31G*
  Basis Set:
  @DF-RHF Final Energy:  -348.09729386547758
    Total Energy =                       -348.0972938654771269
  Basis Set: 6-31G*
  Basis Set:
  Basis Set: 6-31G*
  Basis Set:
  @DF-RHF Final Energy:  -348.09730189402939
    Total Energy =                       -348.0973018940295560
  Basis Set: 6-31G*
  Basis Set:
  Charge       = 0
  Multiplicity = 1
  Basis Set: 6-31G*
  Basis Set:

    Orbital Energies (a.u.)
    -----------------------

    Doubly Occupied:

       1A    -20.548202     2A    -11.324300     3A    -11.231833
       4A    -11.229717     5A    -11.227807     6A    -11.219263
       7A    -11.217877     8A    -11.212342     9A     -1.393339
      10A     -1.095410    11A     -1.043652    12A     -0.997309
      13A     -0.937566    14A     -0.860450    15A     -0.788927
      16A     -0.729961    17A     -0.657899    18A     -0.644508
      19A     -0.627073    20A     -0.616438    21A     -0.598794
      22A     -0.577657    23A     -0.570062    24A     -0.543095
      25A     -0.534569    26A     -0.513132    27A     -0.509887
      28A     -0.487397    29A     -0.469557    30A     -0.461707
      31A     -0.453742    32A     -0.397424

  @DF-RHF Final Energy:  -348.09730255027750

   => Energetics <=

    Nuclear Repulsion Energy =            381.4376406460170301
    One-Electron Energy =               -1227.6280953241093812
    Two-Electron Energy =                 498.0931521278151308
    DFT Exchange-Correlation Energy =       0.0000000000000000
    Empirical Dispersion Energy =           0.0000000000000000
    PCM Polarization Energy =               0.0000000000000000
    EFP Energy =                            0.0000000000000000
    Total Energy =                       -348.0973025502772202
    Molecular point group: c1
  Basis Set: 6-31G*
  Basis Set:

  -Total Gradient:
     Atom            X                  Y                   Z
    ------   -----------------  -----------------  -----------------
       1       -0.000008920243     0.000002361195     0.000008549345
       2        0.000006813278    -0.000016746537     0.000008626987
       3        0.000442157365     0.000098479295    -0.000837555901
       4        0.000064664724     0.000019731041     0.000022601452
       5       -0.000140937765    -0.000523100262     0.000533465153
       6       -0.000347025317     0.000033862068     0.000577154660
       7        0.000013031022     0.000007720462     0.000000380203
       8        0.000026912583     0.000413404400    -0.000296371826
       9       -0.000001395970    -0.000002740549    -0.000008653170
      10        0.000004741679    -0.000007292755     0.000003308792
      11       -0.000003937884    -0.000018185792     0.000010382883
      12       -0.000001697375     0.000000433075    -0.000020016611
      13       -0.000007375538    -0.000002795480     0.000013223963
      14       -0.000011400991     0.000010915067     0.000003630116
      15       -0.000005772836     0.000002401023    -0.000006661757
      16        0.000011535425    -0.000006313507     0.000000183599
      17        0.000005860961    -0.000001693708     0.000001218219
      18       -0.000005329034    -0.000001296110     0.000003697987
      19        0.000001887378     0.000002555337    -0.000005394432
      20       -0.000016087258    -0.000018150649    -0.000014188419
      21       -0.000007752868     0.000002380097    -0.000003209883
      22       -0.000019971332     0.000004072287     0.000005628645

  **** Optimization is complete! (in 12 steps) ****
    Final optimized geometry and variables:
    Molecular point group: c1

    Geometry (in Angstrom), charge = 0, multiplicity = 1:

    O           -1.248895150872    -0.802345429672    -2.022085683207
    C           -1.488719138187    -0.045042989207    -1.131270568178
    C           -1.482565888229    -0.499978652337     0.317004483836
    C           -1.819339626966     1.407923606106    -1.403012553906
    C           -0.204266399237    -0.099013815881     1.077120563844
    H           -1.592047603373    -1.578016780449     0.322150341923
    H           -2.342729202679    -0.073179959885     0.827331088014
    C            1.078049601166    -0.684301041924     0.477022286727
    H           -0.137043518390     0.983805448195     1.128174271180
    H           -0.309597912026    -0.443104585153     2.102789450709
    C            2.334342884499    -0.431438543427     1.318156135814
    H            1.232977842436    -0.290622641797    -0.524405262543
    H            0.946872923328    -1.756875697252     0.358098556983
    C            2.745359082754     1.038651327414     1.421966739280
    H            3.155838008551    -0.992672522138     0.880690822522
    H            2.187988947872    -0.837586649661     2.317044066358
    H            2.886735687316     1.474565981675     0.436579984693
    H            3.680663853290     1.139527662798     1.963609111295
    H            2.003275671338     1.633687915906     1.944498415251
    H           -2.862894710158     1.593122375889    -1.162354807893
    H           -1.650841782399     1.631002217563    -2.447358930205
    H           -1.224306804574     2.072542811882    -0.785209352480

  Mulliken Charges: (a.u.)
   Center  Symbol    Alpha    Beta     Spin     Total
       1     O     4.26174  4.26174  0.00000 -0.52348
       2     C     2.73567  2.73567  0.00000  0.52866
       3     C     3.20215  3.20215  0.00000 -0.40429
       4     C     3.28993  3.28993  0.00000 -0.57986
       5     C     3.16535  3.16535  0.00000 -0.33070
       6     H     0.40040  0.40040  0.00000  0.19920
       7     H     0.41409  0.41409  0.00000  0.17181
       8     C     3.15512  3.15512  0.00000 -0.31023
       9     H     0.41865  0.41865  0.00000  0.16271
      10     H     0.41451  0.41451  0.00000  0.17098
      11     C     3.15384  3.15384  0.00000 -0.30767
      12     H     0.41633  0.41633  0.00000  0.16734
      13     H     0.41510  0.41510  0.00000  0.16979
      14     C     3.24214  3.24214  0.00000 -0.48428
      15     H     0.41797  0.41797  0.00000  0.16407
      16     H     0.42326  0.42326  0.00000  0.15348
      17     H     0.42127  0.42127  0.00000  0.15747
      18     H     0.41775  0.41775  0.00000  0.16450
      19     H     0.42186  0.42186  0.00000  0.15628
      20     H     0.40685  0.40685  0.00000  0.18630
      21     H     0.39673  0.39673  0.00000  0.20655
      22     H     0.40930  0.40930  0.00000  0.18141

   Total alpha = 32.00000, Total beta = 32.00000, Total charge =  0.00000
