                              Psi4 1.0.54 Driver

  ==> Input File <==

--------------------------------------------------------------------------
set {
	reference rhf
	basis cc-pvtz
}

set_num_threads( 4 )
memory 2 gb

molecule MOL {
0 1

O	 -2.817697	 1.304178	 0.001046
C	 -2.664672	 0.129869	 0.003507
C	 -3.797908	 -0.860100	 -0.001145
O	 -1.481217	 -0.452708	 0.001092
H	 -4.408836	 -0.679689	 -0.875387
H	 -3.443486	 -1.878443	 -0.002770
H	 -4.412123	 -0.683688	 0.871605
C	 -0.332055	 0.384012	 -0.000250
C	 0.892252	 -0.506059	 -0.000295
H	 -0.360822	 1.020205	 -0.874146
H	 -0.359817	 1.021310	 0.872861
C	 2.188199	 0.299473	 -0.001416
H	 0.857046	 -1.152781	 -0.871031
H	 0.857910	 -1.151798	 0.871202
C	 3.417468	 -0.545478	 0.321201
H	 2.322524	 0.768837	 -0.972823
H	 2.112301	 1.109306	 0.719960
C	 4.712564	 0.259340	 0.321348
H	 3.495381	 -1.354053	 -0.400043
H	 3.284460	 -1.014898	 1.291789
H	 4.891222	 0.713637	 -0.647436
H	 5.564499	 -0.368937	 0.553687
H	 4.678531	 1.055633	 1.057291

	symmetry c1
}
set optking {
	frozen_dihedral = ("
		16 12 9 13
	")
}

ee,wfn = optimize('scf', return_wfn=True)
oeprop( wfn, 'DIPOLE', 'QUADRUPOLE', 'MULLIKEN_CHARGES')
f=open( 'psi4out.xyz', 'w' )
f.write( "23  " )
f.write( str(ee) + "\n" )
f.write( MOL.save_string_xyz() )
f.close()
--------------------------------------------------------------------------

    Molecular point group: c1
  Charge       = 0
  Multiplicity = 1
  Basis Set: CC-PVTZ
  Basis Set:
  @DF-RHF Final Energy:  -423.13422938777819
    Total Energy =                       -423.1342293877780776
    Molecular point group: c1
  Basis Set: CC-PVTZ
  Basis Set:
  Basis Set: CC-PVTZ
  Basis Set:
  @DF-RHF Final Energy:  -423.13407356590864
    Total Energy =                       -423.1340735659091479
  Basis Set: CC-PVTZ
  Basis Set:
  Basis Set: CC-PVTZ
  Basis Set:
  @DF-RHF Final Energy:  -423.13404647987892
    Total Energy =                       -423.1340464798790890
  Basis Set: CC-PVTZ
  Basis Set:
  Basis Set: CC-PVTZ
  Basis Set:
  @DF-RHF Final Energy:  -423.13431707785503
    Total Energy =                       -423.1343170778548028
  Basis Set: CC-PVTZ
  Basis Set:
  Basis Set: CC-PVTZ
  Basis Set:
  @DF-RHF Final Energy:  -423.13432758530246
    Total Energy =                       -423.1343275853022305
  Basis Set: CC-PVTZ
  Basis Set:
  Charge       = 0
  Multiplicity = 1
  Basis Set: CC-PVTZ
  Basis Set:

    Orbital Energies (a.u.)
    -----------------------

    Doubly Occupied:

       1A    -20.595854     2A    -20.529488     3A    -11.366358
       4A    -11.279336     5A    -11.230635     6A    -11.222359
       7A    -11.221385     8A    -11.219351     9A    -11.210791
      10A     -1.471122    11A     -1.363973    12A     -1.095185
      13A     -1.043216    14A     -1.004195    15A     -0.931538
      16A     -0.842334    17A     -0.802844    18A     -0.776137
      19A     -0.694771    20A     -0.688256    21A     -0.671292
      22A     -0.647948    23A     -0.607653    24A     -0.588765
      25A     -0.583841    26A     -0.567909    27A     -0.559373
      28A     -0.538325    29A     -0.524621    30A     -0.505058
      31A     -0.492379    32A     -0.478204    33A     -0.471405
      34A     -0.466116    35A     -0.455184    36A     -0.438811

  @DF-RHF Final Energy:  -423.13432819335128

   => Energetics <=

    Nuclear Repulsion Energy =            450.5140540045996431
    One-Electron Energy =               -1468.9247504428522006
    Two-Electron Energy =                 595.2763682449010503
    DFT Exchange-Correlation Energy =       0.0000000000000000
    Empirical Dispersion Energy =           0.0000000000000000
    PCM Polarization Energy =               0.0000000000000000
    EFP Energy =                            0.0000000000000000
    Total Energy =                       -423.1343281933515073
    Molecular point group: c1
  Basis Set: CC-PVTZ
  Basis Set:

  -Total Gradient:
     Atom            X                  Y                   Z
    ------   -----------------  -----------------  -----------------
       1        0.000011445297    -0.000060463891    -0.000043221640
       2        0.000008275839     0.000040930265     0.000100642263
       3       -0.000009694455     0.000008045730    -0.000024029741
       4       -0.000049645065     0.000013280218    -0.000045569723
       5        0.000014730196    -0.000006289914     0.000023765319
       6       -0.000003604585     0.000000724770    -0.000001769207
       7        0.000024456842     0.000003371351    -0.000026687738
       8        0.000015782573     0.000043937895     0.000089924253
       9        0.001465120793    -0.002286860418     0.001142722492
      10       -0.000011735487    -0.000021780303     0.000004250694
      11       -0.000016131320     0.000005628966    -0.000021328128
      12       -0.001523115349     0.002437775511     0.000556858149
      13       -0.000957989128     0.001517478875    -0.001108872860
      14        0.000016365321     0.000016938042    -0.000016876835
      15        0.000009589344    -0.000004304076     0.000094295683
      16        0.001039641264    -0.001687487872    -0.000679708153
      17       -0.000011540854    -0.000029275676    -0.000013655107
      18       -0.000000928403     0.000008477440    -0.000038902063
      19        0.000005268130     0.000047352177     0.000048018582
      20        0.000033417304     0.000010086529    -0.000043656439
      21       -0.000016159907    -0.000009340167     0.000059609314
      22       -0.000027142730     0.000000924417    -0.000015862391
      23       -0.000016405630    -0.000049149872    -0.000039946726

  **** Optimization is complete! (in 6 steps) ****
    Final optimized geometry and variables:
    Molecular point group: c1

    Geometry (in Angstrom), charge = 0, multiplicity = 1:

    O           -2.814851985075     1.295540958327    -0.080013866685
    C           -2.661543359779     0.121282268288    -0.087745889951
    C           -3.794340648344    -0.868797493016    -0.121847034652
    O           -1.478172885966    -0.460902301591    -0.068006637645
    H           -4.388684149610    -0.681065514666    -1.005933979022
    H           -3.439732954215    -1.887104525115    -0.125249194078
    H           -4.424893182013    -0.699652787074     0.740659149375
    C           -0.329765126229     0.375808863703    -0.034132711261
    C            0.895619898304    -0.513968034453    -0.016599529803
    H           -0.338610627978     1.021853313835    -0.901525754484
    H           -0.377189852359     1.003663538938     0.844874860608
    C            2.188888616408     0.298341071111    -0.033830338319
    H            0.856811638564    -1.163782825942    -0.884522816918
    H            0.858862797095    -1.147240509894     0.863408440247
    C            3.426143626032    -0.547911986002     0.257062789744
    H            2.307884381954     0.762119807009    -1.009397045827
    H            2.129710696263     1.104767973887     0.692516547534
    C            4.724294873703     0.248857375290     0.190351635660
    H            3.471303054770    -1.370897802323    -0.450850887026
    H            3.329098534689    -0.997821281226     1.240904383245
    H            4.868585574495     0.681065230698    -0.794090275632
    H            5.581128508013    -0.379346477293     0.404175935476
    H            4.722118034130     1.061189984708     0.909395734490

  Mulliken Charges: (a.u.)
   Center  Symbol    Alpha    Beta     Spin     Total
       1     O     4.20241  4.20241  0.00000 -0.40482
       2     C     2.81514  2.81514  0.00000  0.36971
       3     C     3.14004  3.14004  0.00000 -0.28007
       4     O     4.14491  4.14491  0.00000 -0.28981
       5     H     0.44210  0.44210  0.00000  0.11580
       6     H     0.44186  0.44186  0.00000  0.11629
       7     H     0.44215  0.44215  0.00000  0.11569
       8     C     2.97891  2.97891  0.00000  0.04217
       9     C     3.08123  3.08123  0.00000 -0.16245
      10     H     0.45415  0.45415  0.00000  0.09169
      11     H     0.45387  0.45387  0.00000  0.09227
      12     C     3.09794  3.09794  0.00000 -0.19589
      13     H     0.45019  0.45019  0.00000  0.09961
      14     H     0.45119  0.45119  0.00000  0.09763
      15     C     3.08498  3.08498  0.00000 -0.16996
      16     H     0.45218  0.45218  0.00000  0.09564
      17     H     0.45331  0.45331  0.00000  0.09338
      18     C     3.14954  3.14954  0.00000 -0.29909
      19     H     0.45356  0.45356  0.00000  0.09287
      20     H     0.45347  0.45347  0.00000  0.09305
      21     H     0.45462  0.45462  0.00000  0.09077
      22     H     0.44771  0.44771  0.00000  0.10459
      23     H     0.45454  0.45454  0.00000  0.09091

   Total alpha = 36.00000, Total beta = 36.00000, Total charge = -0.00000

*** Psi4 exiting successfully. Buy a developer a beer!
