  ==> Input File <==

--------------------------------------------------------------------------
set {
	reference rhf
	basis cc-pvtz
}

set_num_threads( 4 )
memory 2 gb

molecule MOL {
0 1

H	 2.342730	 0.877684	 -1.045694
C	 2.360424	 0.000000	 -0.411793
C	 1.173749	 0.000000	 0.526870
H	 3.286567	 0.000000	 0.151574
H	 2.342730	 -0.877684	 -1.045694
O	 -0.000000	 0.000000	 -0.223739
H	 1.203779	 0.876757	 1.172538
H	 1.203779	 -0.876757	 1.172538
C	 -1.173749	 0.000000	 0.526870
C	 -1.008867	 0.939111	 1.701676
H	 -1.392380	 -1.007804	 0.877616
H	 -2.012742	 0.314660	 -0.092462
H	 -0.184969	 0.621606	 2.328459
H	 -1.912001	 0.955098	 2.301023
H	 -0.805987	 1.945469	 1.357355

	symmetry c1
}
set optking {
	frozen_dihedral = ("
		11 9 6 3
	")
}

ee = optimize('scf')
oeprop('DIPOLE', 'QUADRUPOLE', 'MULLIKEN_CHARGES')
f=open( 'psi4out.xyz', 'w' )
f.write( "15  " )
f.write( str(ee) + "\n" )
f.write( MOL.save_string_xyz() )
f.close()
--------------------------------------------------------------------------

    Molecular point group: c1
  Charge       = 0
  Multiplicity = 1
  Basis Set: CC-PVTZ
  Basis Set:
  @DF-RHF Final Energy:  -232.21884781530599
    Total Energy =                       -232.2188478153060487
    Molecular point group: c1
  Basis Set: CC-PVTZ
  Basis Set:
  Basis Set: CC-PVTZ
  Basis Set:
  @DF-RHF Final Energy:  -232.21914279824557
    Total Energy =                       -232.2191427982453433
  Basis Set: CC-PVTZ
  Basis Set:
  Basis Set: CC-PVTZ
  Basis Set:
  @DF-RHF Final Energy:  -232.22555757051427
    Total Energy =                       -232.2255575705142974
  Basis Set: CC-PVTZ
  Basis Set:
  Basis Set: CC-PVTZ
  Basis Set:
  @DF-RHF Final Energy:  -232.22774356759956
    Total Energy =                       -232.2277435675997594
  Basis Set: CC-PVTZ
  Basis Set:
  Basis Set: CC-PVTZ
  Basis Set:
  @DF-RHF Final Energy:  -232.22811630852473
    Total Energy =                       -232.2281163085245907
  Basis Set: CC-PVTZ
  Basis Set:
  Basis Set: CC-PVTZ
  Basis Set:
  @DF-RHF Final Energy:  -232.22824132000821
    Total Energy =                       -232.2282413200081805
  Basis Set: CC-PVTZ
  Basis Set:
  Basis Set: CC-PVTZ
  Basis Set:
  @DF-RHF Final Energy:  -232.22824656990326
    Total Energy =                       -232.2282465699032628
  Basis Set: CC-PVTZ
  Basis Set:
  Charge       = 0
  Multiplicity = 1
  Basis Set: CC-PVTZ
  Basis Set:

    Orbital Energies (a.u.)
    -----------------------

    Doubly Occupied:

       1A    -20.542629     2A    -11.266299     3A    -11.264898
       4A    -11.212949     5A    -11.205855     6A     -1.375832
       7A     -1.040884     8A     -0.990305     9A     -0.870424
      10A     -0.801826    11A     -0.676032    12A     -0.658755
      13A     -0.628239    14A     -0.592055    15A     -0.548061
      16A     -0.538598    17A     -0.524650    18A     -0.504503
      19A     -0.491990    20A     -0.452983    21A     -0.409176

  @DF-RHF Final Energy:  -232.22824705483788

   => Energetics <=

    Nuclear Repulsion Energy =            193.4189555636536966
    One-Electron Energy =                -698.1005159199355603
    Two-Electron Energy =                 272.4533133014438704
    DFT Exchange-Correlation Energy =       0.0000000000000000
    Empirical Dispersion Energy =           0.0000000000000000
    PCM Polarization Energy =               0.0000000000000000
    EFP Energy =                            0.0000000000000000
    Total Energy =                       -232.2282470548379933
    Molecular point group: c1
  Basis Set: CC-PVTZ
  Basis Set:

  -Total Gradient:
     Atom            X                  Y                   Z
    ------   -----------------  -----------------  -----------------
       1       -0.000001441590    -0.000003461951     0.000003014901
       2        0.000017092328     0.000001005660     0.000011301302
       3        0.000006153185     0.003741884162     0.000254604831
       4        0.000010310965    -0.000002254359    -0.000005532497
       5       -0.000000665757     0.000001507977     0.000001601588
       6       -0.000573158821    -0.005574927488    -0.001370582733
       7        0.000002959439    -0.000005173189     0.000001914928
       8       -0.000010995990    -0.000005969022    -0.000000126764
       9        0.002939155819     0.002338823655     0.004830960602
      10       -0.000008439892    -0.000014908832    -0.000001044647
      11       -0.002367575594    -0.000469174355    -0.003740424925
      12       -0.000030664633    -0.000000277701     0.000027276693
      13        0.000003786475    -0.000007305890    -0.000001170440
      14        0.000006923934    -0.000000092009    -0.000007012542
      15        0.000006560132     0.000000323340    -0.000004780297

  **** Optimization is complete! (in 8 steps) ****
    Final optimized geometry and variables:
    Molecular point group: c1

    Geometry (in Angstrom), charge = 0, multiplicity = 1:

    H            2.095638330503     0.557508313847    -1.620937398774
    C            2.103899350390    -0.288278951181    -0.944601441206
    C            0.985391968319    -0.164756372437     0.067878563387
    H            3.064952199545    -0.319434563059    -0.443466819121
    H            1.989745665524    -1.191939295210    -1.530085721196
    O           -0.226774801228    -0.111766898623    -0.619839796516
    H            1.128321822355     0.728930850948     0.667752235280
    H            1.000464694404    -1.018081777115     0.745772637547
    C           -1.406778472708    -0.170690146851     0.128028071809
    C           -1.463248303768     0.727020989991     1.353027250740
    H           -1.619213559708    -1.205296832615     0.394963828479
    H           -2.188757935658     0.127665492270    -0.558747787885
    H           -0.773352237328     0.419023684784     2.128324604410
    H           -2.463349579357     0.690022023067     1.769599337178
    H           -1.246114079160     1.755501836727     1.088449574042

  Mulliken Charges: (a.u.)
   Center  Symbol    Alpha    Beta     Spin     Total
       1     H     0.45143  0.45143  0.00000  0.09714
       2     C     3.13616  3.13616  0.00000 -0.27233
       3     C     2.96680  2.96680  0.00000  0.06641
       4     H     0.45949  0.45949  0.00000  0.08101
       5     H     0.45159  0.45159  0.00000  0.09681
       6     O     4.18044  4.18044  0.00000 -0.36087
       7     H     0.46988  0.46988  0.00000  0.06025
       8     H     0.47409  0.47409  0.00000  0.05183
       9     C     2.98019  2.98019  0.00000  0.03962
      10     C     3.15898  3.15898  0.00000 -0.31795
      11     H     0.46778  0.46778  0.00000  0.06444
      12     H     0.45440  0.45440  0.00000  0.09120
      13     H     0.45228  0.45228  0.00000  0.09544
      14     H     0.44695  0.44695  0.00000  0.10610
      15     H     0.44955  0.44955  0.00000  0.10090

   Total alpha = 21.00000, Total beta = 21.00000, Total charge = -0.00000
