  ==> Input File <==

--------------------------------------------------------------------------
set {
	reference rhf
	basis cc-pvtz
}

set_num_threads( 4 )
memory 2 gb

molecule MOL {
0 1

H	 2.370153	 -0.769701	 -0.518787
C	 1.637382	 0.012513	 -0.623754
O	 0.462329	 -0.453336	 -0.000137
H	 1.470417	 0.204509	 -1.676123
H	 2.004324	 0.910436	 -0.142790
C	 -0.590565	 0.341382	 0.000062
O	 -1.693898	 -0.053880	 0.000252
H	 -0.340426	 1.403822	 0.000200

	symmetry c1
}
set optking {
	frozen_dihedral = ("
		2 3 6 7
	")
}

ee = optimize('scf')
oeprop('DIPOLE', 'QUADRUPOLE', 'MULLIKEN_CHARGES')
f=open( 'psi4out.xyz', 'w' )
f.write( "8  " )
f.write( str(ee) + "\n" )
f.write( MOL.save_string_xyz() )
f.close()
--------------------------------------------------------------------------

    Molecular point group: c1
  Charge       = 0
  Multiplicity = 1
  Basis Set: CC-PVTZ
  Basis Set:
  @DF-RHF Final Energy:  -227.86756796954339
    Total Energy =                       -227.8675679695433303
    Molecular point group: c1
  Basis Set: CC-PVTZ
  Basis Set:
  Basis Set: CC-PVTZ
  Basis Set:
  @DF-RHF Final Energy:  -227.86758020121556
    Total Energy =                       -227.8675802012156453
  Basis Set: CC-PVTZ
  Basis Set:
  Basis Set: CC-PVTZ
  Basis Set:
  @DF-RHF Final Energy:  -227.86779858025801
    Total Energy =                       -227.8677985802580395
  Basis Set: CC-PVTZ
  Basis Set:
  Basis Set: CC-PVTZ
  Basis Set:
  @DF-RHF Final Energy:  -227.86784894222109
    Total Energy =                       -227.8678489422209736
  Basis Set: CC-PVTZ
  Basis Set:
  Basis Set: CC-PVTZ
  Basis Set:
  @DF-RHF Final Energy:  -227.86785581225354
    Total Energy =                       -227.8678558122535094
  Basis Set: CC-PVTZ
  Basis Set:
  Charge       = 0
  Multiplicity = 1
  Basis Set: CC-PVTZ
  Basis Set:

    Orbital Energies (a.u.)
    -----------------------

    Doubly Occupied:

       1A    -20.606749     2A    -20.550418     3A    -11.374922
       4A    -11.301839     5A     -1.478799     6A     -1.387192
       7A     -0.992873     8A     -0.848451     9A     -0.740717
      10A     -0.688424    11A     -0.684320    12A     -0.612594
      13A     -0.572530    14A     -0.536364    15A     -0.468836
      16A     -0.458107

  @DF-RHF Final Energy:  -227.86785639103351

   => Energetics <=

    Nuclear Repulsion Energy =            121.5564422635183632
    One-Electron Energy =                -552.2423317275969339
    Two-Electron Energy =                 202.8180330730450294
    DFT Exchange-Correlation Energy =       0.0000000000000000
    Empirical Dispersion Energy =           0.0000000000000000
    PCM Polarization Energy =               0.0000000000000000
    EFP Energy =                            0.0000000000000000
    Total Energy =                       -227.8678563910335413
    Molecular point group: c1
  Basis Set: CC-PVTZ
  Basis Set:

  -Total Gradient:
     Atom            X                  Y                   Z
    ------   -----------------  -----------------  -----------------
       1       -0.000050033923    -0.000022855822     0.000030512293
       2       -0.001171869963    -0.000803482519    -0.003460591179
       3        0.001876753033     0.001624551226     0.002812451467
       4       -0.000005745502    -0.000017258105     0.000000093545
       5        0.000003336959    -0.000018152202     0.000006557187
       6       -0.000783990876    -0.001487172702     0.005312886120
       7        0.000113594961     0.000760019144    -0.004696623837
       8        0.000017955317    -0.000035649023    -0.000005285597

  **** Optimization is complete! (in 6 steps) ****
    Final optimized geometry and variables:
    Molecular point group: c1

    Geometry (in Angstrom), charge = 0, multiplicity = 1:

    H            2.442255623468    -0.671477551433    -0.214476851583
    C            1.666033426926     0.036145325103    -0.453973687458
    O            0.469317564494    -0.465204236090     0.093133680273
    H            1.579470897469     0.126587528000    -1.528668212433
    H            1.921041417065     1.000126277260    -0.028515623898
    C           -0.546467970264     0.372302228054     0.223638852689
    O           -1.668637041341     0.041416217245     0.167172174761
    H           -0.239171608406     1.407272098909     0.382975286699

  Mulliken Charges: (a.u.)
   Center  Symbol    Alpha    Beta     Spin     Total
       1     H     0.44186  0.44186  0.00000  0.11628
       2     C     3.02884  3.02884  0.00000 -0.05767
       3     O     4.12628  4.12628  0.00000 -0.25256
       4     H     0.45574  0.45574  0.00000  0.08852
       5     H     0.46474  0.46474  0.00000  0.07051
       6     C     2.83495  2.83495  0.00000  0.33010
       7     O     4.17066  4.17066  0.00000 -0.34132
       8     H     0.47693  0.47693  0.00000  0.04614

   Total alpha = 16.00000, Total beta = 16.00000, Total charge =  0.00000
