                              Psi4 1.0.54 Driver

  ==> Input File <==

--------------------------------------------------------------------------
set {
	reference rhf
	basis cc-pvtz
}

set_num_threads( 4 )
memory 2 gb

molecule MOL {
0 1

H	 1.225346	 4.026353	 -1.957835
N	 0.454417	 3.396259	 -2.023163
C	 0.529141	 2.368753	 -0.996466
H	 0.481797	 2.991005	 -2.935505
C	 -0.690336	 1.460467	 -1.047626
H	 0.564995	 2.865425	 -0.032652
H	 1.432269	 1.761273	 -1.069162
C	 -0.678115	 0.376691	 0.025731
H	 -1.580958	 2.072500	 -0.949579
H	 -0.744181	 0.994021	 -2.029467
C	 -1.900706	 -0.535531	 -0.022488
H	 -0.620101	 0.842874	 1.006681
H	 0.220912	 -0.226690	 -0.077004
C	 -3.220513	 0.226854	 0.028039
H	 -1.865036	 -1.134397	 -0.928236
H	 -1.857948	 -1.236381	 0.806820
H	 -3.309098	 0.911849	 -0.808725
H	 -4.066838	 -0.449485	 -0.008086
H	 -3.301685	 0.809374	 0.939860

	symmetry c1
}
set optking {
	frozen_dihedral = ("
		12 8 11 15
	")
}

ee,wfn = optimize('scf', return_wfn=True)
oeprop( wfn, 'DIPOLE', 'QUADRUPOLE', 'MULLIKEN_CHARGES')
f=open( 'psi4out.xyz', 'w' )
f.write( "19  " )
f.write( str(ee) + "\n" )
f.write( MOL.save_string_xyz() )
f.close()
--------------------------------------------------------------------------

    Molecular point group: c1
  Charge       = 0
  Multiplicity = 1
  Basis Set: CC-PVTZ
  Basis Set:
  @DF-RHF Final Energy:  -251.44495396973679
    Total Energy =                       -251.4449539697365026
    Molecular point group: c1
  Basis Set: CC-PVTZ
  Basis Set:
  Basis Set: CC-PVTZ
  Basis Set:
  @DF-RHF Final Energy:  -251.44514101577283
    Total Energy =                       -251.4451410157730038
  Basis Set: CC-PVTZ
  Basis Set:
  Basis Set: CC-PVTZ
  Basis Set:
  @DF-RHF Final Energy:  -251.44612739175946
    Total Energy =                       -251.4461273917594895
  Basis Set: CC-PVTZ
  Basis Set:
  Basis Set: CC-PVTZ
  Basis Set:
  @DF-RHF Final Energy:  -251.44618709802168
    Total Energy =                       -251.4461870980220510
  Basis Set: CC-PVTZ
  Basis Set:
  Basis Set: CC-PVTZ
  Basis Set:
  @DF-RHF Final Energy:  -251.44619147256751
    Total Energy =                       -251.4461914725674205
  Basis Set: CC-PVTZ
  Basis Set:
  Charge       = 0
  Multiplicity = 1
  Basis Set: CC-PVTZ
  Basis Set:

    Orbital Energies (a.u.)
    -----------------------

    Doubly Occupied:

       1A    -15.526398     2A    -11.237881     3A    -11.212262
       4A    -11.210688     5A    -11.207211     6A    -11.204022
       7A     -1.178162     8A     -1.073401     9A     -0.996042
      10A     -0.904856    11A     -0.823900    12A     -0.776015
      13A     -0.663848    14A     -0.642785    15A     -0.604970
      16A     -0.595801    17A     -0.588216    18A     -0.537531
      19A     -0.521833    20A     -0.507936    21A     -0.486584
      22A     -0.458748    23A     -0.456349    24A     -0.451002
      25A     -0.383947

  @DF-RHF Final Energy:  -251.44619185428465

   => Energetics <=

    Nuclear Repulsion Energy =            249.3777202574226237
    One-Electron Energy =                -833.1470515682523228
    Two-Electron Energy =                 332.3231394565450501
    DFT Exchange-Correlation Energy =       0.0000000000000000
    Empirical Dispersion Energy =           0.0000000000000000
    PCM Polarization Energy =               0.0000000000000000
    EFP Energy =                            0.0000000000000000
    Total Energy =                       -251.4461918542846206
    Molecular point group: c1
  Basis Set: CC-PVTZ
  Basis Set:

  -Total Gradient:
     Atom            X                  Y                   Z
    ------   -----------------  -----------------  -----------------
       1       -0.000002518081    -0.000001438362     0.000000985547
       2       -0.000004535396     0.000018326869     0.000009476912
       3        0.000010905825    -0.000025289632    -0.000023741715
       4        0.000001443153    -0.000006157051     0.000012020275
       5        0.000003059515     0.000002748410    -0.000009984771
       6       -0.000002909549     0.000004706652    -0.000011224625
       7       -0.000000173416     0.000003562980     0.000004789549
       8       -0.001129099232     0.001413377411    -0.000537900683
       9       -0.000004185089    -0.000006456978    -0.000002808209
      10        0.000007154357     0.000011542343    -0.000004399251
      11       -0.000978057616     0.001276322390    -0.000987890968
      12        0.001094915032    -0.001394094831     0.000625931359
      13       -0.000011137849    -0.000002076174     0.000001745131
      14        0.000002894426    -0.000005733444    -0.000000863112
      15        0.000998695374    -0.001288252371     0.000920176756
      16       -0.000009269323     0.000003330212    -0.000006623647
      17        0.000008397244    -0.000014291974     0.000011748429
      18        0.000015362464     0.000008293070    -0.000000059880
      19       -0.000000941841     0.000001580477    -0.000001377098

  **** Optimization is complete! (in 6 steps) ****
    Final optimized geometry and variables:
    Molecular point group: c1

    Geometry (in Angstrom), charge = 0, multiplicity = 1:

    H            2.228320328491     2.741974731366    -1.277821371787
    N            1.425206235477     2.152354282722    -1.332660388587
    C            1.470035631448     1.110170412980    -0.319168621984
    H            1.412490570545     1.757053585380    -2.249705105082
    C            0.204106228614     0.266138168562    -0.351966904677
    H            1.552173960030     1.592859937906     0.649026146983
    H            2.339142835498     0.458703091254    -0.418731056617
    C            0.184911799286    -0.812319402746     0.727624975979
    H           -0.646582428633     0.928816170234    -0.250147286794
    H            0.116166730016    -0.203233750260    -1.330617384527
    C           -1.002060211669    -1.775732177127     0.662901413929
    H            0.214800462700    -0.348302800847     1.710979089166
    H            1.096877787648    -1.399423580779     0.653463441810
    C           -2.375829740784    -1.116991775418     0.748031119513
    H           -0.933218095122    -2.368778200844    -0.245332079412
    H           -0.904748456765    -2.483042177284     1.481382360906
    H           -2.576080862593    -0.484214939736    -0.107742741986
    H           -3.157761264426    -1.866608777951     0.789723209027
    H           -2.459372667133    -0.503521593329     1.639630850670

  Mulliken Charges: (a.u.)
   Center  Symbol    Alpha    Beta     Spin     Total
       1     H     0.43027  0.43027  0.00000  0.13946
       2     N     3.68898  3.68898  0.00000 -0.37796
       3     C     3.02741  3.02741  0.00000 -0.05482
       4     H     0.43117  0.43117  0.00000  0.13766
       5     C     3.08606  3.08606  0.00000 -0.17213
       6     H     0.45708  0.45708  0.00000  0.08583
       7     H     0.46730  0.46730  0.00000  0.06539
       8     C     3.10017  3.10017  0.00000 -0.20035
       9     H     0.44650  0.44650  0.00000  0.10699
      10     H     0.45965  0.45965  0.00000  0.08071
      11     C     3.08973  3.08973  0.00000 -0.17945
      12     H     0.45304  0.45304  0.00000  0.09392
      13     H     0.45225  0.45225  0.00000  0.09551
      14     C     3.15361  3.15361  0.00000 -0.30723
      15     H     0.45444  0.45444  0.00000  0.09111
      16     H     0.44966  0.44966  0.00000  0.10067
      17     H     0.45166  0.45166  0.00000  0.09669
      18     H     0.44663  0.44663  0.00000  0.10673
      19     H     0.45437  0.45437  0.00000  0.09126

   Total alpha = 25.00000, Total beta = 25.00000, Total charge = -0.00000

*** Psi4 exiting successfully. Buy a developer a beer!
