  ==> Input File <==

--------------------------------------------------------------------------
set {
	reference rhf
	basis 6-31G*
}

set_num_threads( 4 )
memory 2 gb

molecule MOL {
0 1

H	 -0.000158	 1.970498	 0.756846
O	 -0.000074	 1.880206	 -0.189275
C	 -0.000015	 0.544847	 -0.545111
C	 0.077379	 0.412096	 -2.062468
C	 -1.201597	 -0.158249	 0.077670
H	 0.890424	 0.093666	 -0.133216
F	 1.183632	 0.974755	 -2.499692
F	 0.077142	 -0.844515	 -2.453986
F	 -0.943216	 1.024786	 -2.640909
F	 -1.140162	 -0.061225	 1.388528
F	 -1.248939	 -1.436011	 -0.234518
F	 -2.332513	 0.405055	 -0.316405

	symmetry c1
}
set optking {
	frozen_dihedral = ("
		6 3 2 1
	")
}

ee = optimize('scf')
oeprop('DIPOLE', 'QUADRUPOLE', 'MULLIKEN_CHARGES')
f=open( 'psi4out.xyz', 'w' )
f.write( "12  " )
f.write( str(ee) + "\n" )
f.write( MOL.save_string_xyz() )
f.close()
--------------------------------------------------------------------------

    Molecular point group: c1
  Charge       = 0
  Multiplicity = 1
  Basis Set: 6-31G*
  Basis Set:
  @DF-RHF Final Energy:  -786.27377631804256
    Total Energy =                       -786.2737763180430193
    Molecular point group: c1
  Basis Set: 6-31G*
  Basis Set:
  Basis Set: 6-31G*
  Basis Set:
  @DF-RHF Final Energy:  -786.27590165645063
    Total Energy =                       -786.2759016564505146
  Basis Set: 6-31G*
  Basis Set:
  Basis Set: 6-31G*
  Basis Set:
  @DF-RHF Final Energy:  -786.27638683679527
    Total Energy =                       -786.2763868367948135
  Basis Set: 6-31G*
  Basis Set:
  Basis Set: 6-31G*
  Basis Set:
  @DF-RHF Final Energy:  -786.27644364031062
    Total Energy =                       -786.2764436403101627
  Basis Set: 6-31G*
  Basis Set:
  Basis Set: 6-31G*
  Basis Set:
  @DF-RHF Final Energy:  -786.27645509922809
    Total Energy =                       -786.2764550992276327
  Basis Set: 6-31G*
  Basis Set:
  Basis Set: 6-31G*
  Basis Set:
  @DF-RHF Final Energy:  -786.27645722823593
    Total Energy =                       -786.2764572282354720
  Basis Set: 6-31G*
  Basis Set:
  Charge       = 0
  Multiplicity = 1
  Basis Set: 6-31G*
  Basis Set:

    Orbital Energies (a.u.)
    -----------------------

    Doubly Occupied:

       1A    -26.364962     2A    -26.361549     3A    -26.359332
       4A    -26.355662     5A    -26.352080     6A    -26.351238
       7A    -20.616124     8A    -11.525990     9A    -11.521813
      10A    -11.349236    11A     -1.763356    12A     -1.753892
      13A     -1.659968    14A     -1.658689    15A     -1.650982
      16A     -1.649394    17A     -1.434841    18A     -1.102593
      19A     -0.995152    20A     -0.933661    21A     -0.866291
      22A     -0.856871    23A     -0.852371    24A     -0.840329
      25A     -0.829662    26A     -0.782879    27A     -0.756122
      28A     -0.729811    29A     -0.720213    30A     -0.716513
      31A     -0.713128    32A     -0.683065    33A     -0.679877
      34A     -0.666387    35A     -0.666153    36A     -0.660627
      37A     -0.651312    38A     -0.636231    39A     -0.616934
      40A     -0.548698    41A     -0.505785

  @DF-RHF Final Energy:  -786.27645763157693

   => Energetics <=

    Nuclear Repulsion Energy =            670.4067836217386684
    One-Electron Energy =               -2427.8869410217862423
    Two-Electron Energy =                 971.2036997684707558
    DFT Exchange-Correlation Energy =       0.0000000000000000
    Empirical Dispersion Energy =           0.0000000000000000
    PCM Polarization Energy =               0.0000000000000000
    EFP Energy =                            0.0000000000000000
    Total Energy =                       -786.2764576315768181
    Molecular point group: c1
  Basis Set: 6-31G*
  Basis Set:

  -Total Gradient:
     Atom            X                  Y                   Z
    ------   -----------------  -----------------  -----------------
       1       -0.000736248974     0.000009751304     0.000027621061
       2        0.001008393447     0.000045710477    -0.000190834241
       3       -0.000602798042    -0.000216106651     0.000672447815
       4        0.000008543570     0.000018235440     0.000061353726
       5        0.000057995980     0.000056767930    -0.000021971656
       6        0.000316628547     0.000137856733    -0.000554759786
       7        0.000004762774     0.000016276338    -0.000037977005
       8       -0.000013135515     0.000016950464    -0.000013546940
       9        0.000033414416    -0.000031090418    -0.000010456980
      10       -0.000028046917    -0.000039523525     0.000027724271
      11       -0.000059940628     0.000054627329     0.000019805104
      12        0.000010431335    -0.000069455424     0.000020594631

  **** Optimization is complete! (in 7 steps) ****
    Final optimized geometry and variables:
    Molecular point group: c1

    Geometry (in Angstrom), charge = 0, multiplicity = 1:

    H            0.620431876058     1.700131766486     1.700826441063
    O            0.595681187327     1.597080969803     0.758295966614
    C            0.586806179389     0.257134256634     0.419326693771
    C            0.634337633066     0.195122454435    -1.101254043994
    C           -0.629976139095    -0.435884614651     1.022081680982
    H            1.463756812655    -0.270766986813     0.779286908005
    F            1.769814640286     0.707507256257    -1.528126313318
    F            0.574972151104    -1.058959722978    -1.511793481114
    F           -0.351592991431     0.857061285347    -1.660080690451
    F           -0.638162116214    -0.191406164070     2.327661745666
    F           -0.574347875509    -1.741194911370     0.860350277554
    F           -1.766155014600    -0.003769486367     0.527155615114

  Mulliken Charges: (a.u.)
   Center  Symbol    Alpha    Beta     Spin     Total
       1     H     0.26385  0.26385  0.00000  0.47230
       2     O     4.36497  4.36497  0.00000 -0.72993
       3     C     3.04721  3.04721  0.00000 -0.09442
       4     C     2.43371  2.43371  0.00000  1.13258
       5     C     2.44544  2.44544  0.00000  1.10912
       6     H     0.38777  0.38777  0.00000  0.22446
       7     F     4.67681  4.67681  0.00000 -0.35362
       8     F     4.67896  4.67896  0.00000 -0.35791
       9     F     4.67034  4.67034  0.00000 -0.34067
      10     F     4.68774  4.68774  0.00000 -0.37549
      11     F     4.67392  4.67392  0.00000 -0.34783
      12     F     4.66929  4.66929  0.00000 -0.33858

   Total alpha = 41.00000, Total beta = 41.00000, Total charge =  0.00000
