  ==> Input File <==

--------------------------------------------------------------------------
set {
	reference rhf
	basis 6-31G*
}

set_num_threads( 1 )
memory 2 gb

molecule MOL {
0 1

O	 0.625848	 1.349995	 -0.000749
C	 0.486307	 0.169203	 0.000779
C	 1.608116	 -0.841643	 0.000302
O	 -0.698257	 -0.426125	 0.001050
C	 2.990107	 -0.200498	 -0.000684
H	 1.468623	 -1.481519	 -0.865924
H	 1.469683	 -1.481289	 0.866878
H	 3.129736	 0.423364	 -0.875135
H	 3.757882	 -0.966877	 -0.001197
H	 3.130964	 0.423383	 0.873533
C	 -1.480346	 -0.335460	 -1.185338
C	 -2.770724	 -1.087441	 -0.936819
H	 -0.922400	 -0.760190	 -2.008675
H	 -1.661777	 0.706905	 -1.409277
H	 -2.571613	 -2.128321	 -0.708604
H	 -3.399772	 -1.043691	 -1.820014
H	 -3.315155	 -0.653233	 -0.105968

	symmetry c1
}
set optking {
	frozen_dihedral = ("
		2 4 11 13,
		4 2 3 6
	")
}

ee = energy('scf')
oeprop('DIPOLE', 'QUADRUPOLE', 'MULLIKEN_CHARGES')
f=open( 'psi4out.xyz', 'w' )
f.write( "17  " )
f.write( str(ee) + "\n" )
f.write( MOL.save_string_xyz() )
f.close()
--------------------------------------------------------------------------

    Molecular point group: c1

    Geometry (in Angstrom), charge = 0, multiplicity = 1:

       Center              X                  Y                   Z               Mass
    ------------   -----------------  -----------------  -----------------  -----------------
           O          0.528481471766     1.543873321471     0.308437421533    15.994914619560
           C          0.388940471766     0.363081321471     0.309965421533    12.000000000000
           C          1.510749471766    -0.647764678529     0.309488421533    12.000000000000
           O         -0.795623528234    -0.232246678529     0.310236421533    15.994914619560
           C          2.892740471766    -0.006619678529     0.308502421533    12.000000000000
           H          1.371256471766    -1.287640678529    -0.556737578467     1.007825032070
           H          1.372316471766    -1.287410678529     1.176064421533     1.007825032070
           H          3.032369471766     0.617242321471    -0.565948578467     1.007825032070
           H          3.660515471766    -0.772998678529     0.307989421533     1.007825032070
           H          3.033597471766     0.617261321471     1.182719421533     1.007825032070
           C         -1.577712528234    -0.141581678529    -0.876151578467    12.000000000000
           C         -2.868090528234    -0.893562678529    -0.627632578467    12.000000000000
           H         -1.019766528234    -0.566311678529    -1.699488578467     1.007825032070
           H         -1.759143528234     0.900783321471    -1.100090578467     1.007825032070
           H         -2.668979528234    -1.934442678529    -0.399417578467     1.007825032070
           H         -3.497138528234    -0.849812678529    -1.510827578467     1.007825032070
           H         -3.412521528234    -0.459354678529     0.203218421533     1.007825032070

  Charge       = 0
  Multiplicity = 1
  Basis Set: 6-31G*
  Basis Set:

    Orbital Energies (a.u.)
    -----------------------

    Doubly Occupied:

       1A    -20.585370     2A    -20.552068     3A    -11.372143
       4A    -11.295722     5A    -11.238165     6A    -11.226017
       7A    -11.215696     8A     -1.462769     9A     -1.364569
      10A     -1.067160    11A     -1.036709    12A     -0.906614
      13A     -0.861209    14A     -0.773243    15A     -0.699978
      16A     -0.684592    17A     -0.659557    18A     -0.632611
      19A     -0.601963    20A     -0.563698    21A     -0.556945
      22A     -0.529205    23A     -0.523995    24A     -0.519225
      25A     -0.504485    26A     -0.488382    27A     -0.451117
      28A     -0.433134

  @DF-RHF Final Energy:  -344.89479814508638

   => Energetics <=

    Nuclear Repulsion Energy =            315.0487610549232613
    One-Electron Energy =               -1094.2743125968952427
    Two-Electron Energy =                 434.3307533968848588
    DFT Exchange-Correlation Energy =       0.0000000000000000
    Empirical Dispersion Energy =           0.0000000000000000
    PCM Polarization Energy =               0.0000000000000000
    EFP Energy =                            0.0000000000000000
    Total Energy =                       -344.8947981450871225

  Mulliken Charges: (a.u.)
   Center  Symbol    Alpha    Beta     Spin     Total
       1     O     4.26546  4.26546  0.00000 -0.53093
       2     C     2.61055  2.61055  0.00000  0.77890
       3     C     3.20732  3.20732  0.00000 -0.41464
       4     O     4.31727  4.31727  0.00000 -0.63454
       5     C     3.23987  3.23987  0.00000 -0.47975
       6     H     0.40698  0.40698  0.00000  0.18605
       7     H     0.39910  0.39910  0.00000  0.20179
       8     H     0.41127  0.41127  0.00000  0.17745
       9     H     0.41886  0.41886  0.00000  0.16227
      10     H     0.40897  0.40897  0.00000  0.18205
      11     C     3.00410  3.00410  0.00000 -0.00821
      12     C     3.24772  3.24772  0.00000 -0.49543
      13     H     0.42187  0.42187  0.00000  0.15627
      14     H     0.40596  0.40596  0.00000  0.18807
      15     H     0.41122  0.41122  0.00000  0.17756
      16     H     0.41688  0.41688  0.00000  0.16625
      17     H     0.40659  0.40659  0.00000  0.18682

   Total alpha = 28.00000, Total beta = 28.00000, Total charge =  0.00000
