                              Psi4 1.0.54 Driver

  ==> Input File <==

--------------------------------------------------------------------------
set {
	reference rhf
	basis cc-pvtz
}

set_num_threads( 4 )
memory 2 gb

molecule MOL {
0 1

O	 -1.909576	 -0.220861	 2.271251
C	 -0.900240	 0.401376	 2.197131
C	 0.361713	 -0.220117	 1.632093
C	 -0.824201	 1.842822	 2.641225
C	 0.376695	 -0.140025	 0.100361
H	 0.383226	 -1.257284	 1.941826
H	 1.238414	 0.275023	 2.035945
C	 1.630207	 -0.772146	 -0.501001
H	 -0.512714	 -0.630935	 -0.274055
H	 0.316172	 0.899441	 -0.212923
C	 2.907848	 -0.545876	 0.309149
H	 1.772784	 -0.391628	 -1.509394
H	 1.468529	 -1.842059	 -0.599744
C	 3.373802	 0.906639	 0.372125
H	 3.699140	 -1.146831	 -0.127906
H	 2.764321	 -0.923458	 1.318191
H	 3.519798	 1.311927	 -0.623875
H	 4.316899	 0.983758	 0.900700
H	 2.661122	 1.540651	 0.885346
H	 -0.189595	 1.912686	 3.518945
H	 -1.810159	 2.211231	 2.879407
H	 -0.373282	 2.457716	 1.870404

	symmetry c1
}
set optking {
	frozen_dihedral = ("
		3 5 8 12
	")
}

ee,wfn = optimize('scf', return_wfn=True)
oeprop( wfn, 'DIPOLE', 'QUADRUPOLE', 'MULLIKEN_CHARGES')
f=open( 'psi4out.xyz', 'w' )
f.write( "22  " )
f.write( str(ee) + "\n" )
f.write( MOL.save_string_xyz() )
f.close()
--------------------------------------------------------------------------

    Molecular point group: c1
  Charge       = 0
  Multiplicity = 1
  Basis Set: CC-PVTZ
  Basis Set:
  @DF-RHF Final Energy:  -348.21684518492071
    Total Energy =                       -348.2168451849209987
    Molecular point group: c1
  Basis Set: CC-PVTZ
  Basis Set:
  Basis Set: CC-PVTZ
  Basis Set:
  @DF-RHF Final Energy:  -348.18765031691794
    Total Energy =                       -348.1876503169179955
  Basis Set: CC-PVTZ
  Basis Set:
  Basis Set: CC-PVTZ
  Basis Set:
  @DF-RHF Final Energy:  -348.21764824589320
    Total Energy =                       -348.2176482458930877
  Basis Set: CC-PVTZ
  Basis Set:
  Basis Set: CC-PVTZ
  Basis Set:
  @DF-RHF Final Energy:  -348.21899123245794
    Total Energy =                       -348.2189912324583929
  Basis Set: CC-PVTZ
  Basis Set:
  @DF-RHF Final Energy:  -348.21668425813584
    Total Energy =                       -348.2166842581361266
  @DF-RHF Final Energy:  -348.21823732963861
    Total Energy =                       -348.2182373296392370
  @DF-RHF Final Energy:  -348.21889438098987
    Total Energy =                       -348.2188943809897523
  @DF-RHF Final Energy:  -348.21689187619290
    Total Energy =                       -348.2168918761930172
  @DF-RHF Final Energy:  -348.21904843811990
    Total Energy =                       -348.2190484381198985
  @DF-RHF Final Energy:  -348.21775617058358
    Total Energy =                       -348.2177561705836979
  Basis Set: CC-PVTZ
  Basis Set:
  @DF-RHF Final Energy:  -348.21917666922366
    Total Energy =                       -348.2191766692234296
  Basis Set: CC-PVTZ
  Basis Set:
  Basis Set: CC-PVTZ
  Basis Set:
  @DF-RHF Final Energy:  -348.21918211025945
    Total Energy =                       -348.2191821102599079
  Basis Set: CC-PVTZ
  Basis Set:
  Basis Set: CC-PVTZ
  Basis Set:
  @DF-RHF Final Energy:  -348.21918414513090
    Total Energy =                       -348.2191841451309529
  Basis Set: CC-PVTZ
  Basis Set:
  Charge       = 0
  Multiplicity = 1
  Basis Set: CC-PVTZ
  Basis Set:

    Orbital Energies (a.u.)
    -----------------------

    Doubly Occupied:

       1A    -20.536583     2A    -11.319260     3A    -11.228652
       4A    -11.227266     5A    -11.226990     6A    -11.221305
       7A    -11.220317     8A    -11.214491     9A     -1.396813
      10A     -1.097531    11A     -1.043972    12A     -0.999749
      13A     -0.944052    14A     -0.865166    15A     -0.779070
      16A     -0.735227    17A     -0.664764    18A     -0.655891
      19A     -0.623354    20A     -0.616297    21A     -0.607388
      22A     -0.576166    23A     -0.565415    24A     -0.552425
      25A     -0.534564    26A     -0.522443    27A     -0.510942
      28A     -0.492109    29A     -0.467828    30A     -0.462080
      31A     -0.458152    32A     -0.399433

  @DF-RHF Final Energy:  -348.21918434144618

   => Energetics <=

    Nuclear Repulsion Energy =            381.2937398475429518
    One-Electron Energy =               -1227.4944664548966102
    Two-Electron Energy =                 497.9815422659076489
    DFT Exchange-Correlation Energy =       0.0000000000000000
    Empirical Dispersion Energy =           0.0000000000000000
    PCM Polarization Energy =               0.0000000000000000
    EFP Energy =                            0.0000000000000000
    Total Energy =                       -348.2191843414460095
    Molecular point group: c1
  Basis Set: CC-PVTZ
  Basis Set:

  -Total Gradient:
     Atom            X                  Y                   Z
    ------   -----------------  -----------------  -----------------
       1       -0.000007496945    -0.000023837521    -0.000002003293
       2       -0.000008323599     0.000023264740    -0.000030582995
       3        0.000188396386     0.004534726661    -0.001023950932
       4        0.000002170250     0.000001021853     0.000053697579
       5       -0.000131795784    -0.005145586969     0.001620414667
       6        0.000003707015     0.000001795252     0.000001956845
       7        0.000001831207    -0.000003236745    -0.000001953438
       8       -0.000612024408    -0.005534855013    -0.001364195222
       9       -0.000003906473     0.000007760883     0.000006187481
      10       -0.000002753470     0.000002565029     0.000005098682
      11        0.000001492039    -0.000000890340     0.000002118992
      12        0.000565732373     0.006149162692     0.000773694835
      13        0.000004896844     0.000001856224    -0.000001527096
      14       -0.000003181435    -0.000001790053    -0.000006230347
      15        0.000002862065    -0.000003984609     0.000000330435
      16       -0.000004271884    -0.000000787268    -0.000007107121
      17       -0.000000026681     0.000000573196     0.000007709236
      18       -0.000001259859    -0.000002395085    -0.000000922293
      19       -0.000000052000     0.000002411536    -0.000000897558
      20        0.000001005533     0.000003204127    -0.000016784909
      21       -0.000002818985    -0.000003120448    -0.000004660808
      22        0.000005817811    -0.000007858140    -0.000010392740

  **** Optimization is complete! (in 14 steps) ****
    Final optimized geometry and variables:
    Molecular point group: c1

    Geometry (in Angstrom), charge = 0, multiplicity = 1:

    O           -2.313969347657    -1.333137804109     0.968734957659
    C           -1.748813395284    -0.308040309351     0.766615772656
    C           -0.238926927916    -0.258066421776     0.635490120582
    C           -2.500368343105     0.993240440475     0.615231498669
    C            0.184863756975    -0.598029399049    -0.800704559160
    H            0.169645583034    -0.986287203469     1.325596421719
    H            0.124216849305     0.721071985165     0.918287175718
    C            1.701285334315    -0.708924841074    -1.031173810698
    H           -0.279834190028    -1.533232042610    -1.087536343463
    H           -0.220922149214     0.158794557125    -1.466043299657
    C            2.581818992812     0.328974516466    -0.327075913923
    H            1.883153998399    -0.592775429656    -2.095562111728
    H            2.034708045075    -1.700295902283    -0.745025610026
    C            2.372441225808     1.760433730279    -0.815746875133
    H            3.617941376413     0.054731447090    -0.498527555557
    H            2.438337388288     0.282706736378     0.747136370588
    H            2.562918405625     1.837024489111    -1.881222438521
    H            3.045254169605     2.444236833264    -0.311312012006
    H            1.361349457149     2.109564636323    -0.639933508608
    H           -2.273484336512     1.636593340441     1.459367813398
    H           -3.562712121985     0.806980792386     0.579863371512
    H           -2.184640497601     1.516396434236    -0.280448683315

  Mulliken Charges: (a.u.)
   Center  Symbol    Alpha    Beta     Spin     Total
       1     O     4.17714  4.17714  0.00000 -0.35429
       2     C     2.85728  2.85728  0.00000  0.28543
       3     C     3.10378  3.10378  0.00000 -0.20755
       4     C     3.15685  3.15685  0.00000 -0.31370
       5     C     3.11707  3.11707  0.00000 -0.23413
       6     H     0.43736  0.43736  0.00000  0.12528
       7     H     0.44563  0.44563  0.00000  0.10874
       8     C     3.09810  3.09810  0.00000 -0.19621
       9     H     0.43141  0.43141  0.00000  0.13717
      10     H     0.44873  0.44873  0.00000  0.10255
      11     C     3.10213  3.10213  0.00000 -0.20425
      12     H     0.44901  0.44901  0.00000  0.10199
      13     H     0.44276  0.44276  0.00000  0.11448
      14     C     3.15136  3.15136  0.00000 -0.30272
      15     H     0.44193  0.44193  0.00000  0.11614
      16     H     0.45051  0.45051  0.00000  0.09898
      17     H     0.45224  0.45224  0.00000  0.09552
      18     H     0.44498  0.44498  0.00000  0.11004
      19     H     0.45723  0.45723  0.00000  0.08554
      20     H     0.44848  0.44848  0.00000  0.10304
      21     H     0.43544  0.43544  0.00000  0.12911
      22     H     0.45058  0.45058  0.00000  0.09884

   Total alpha = 32.00000, Total beta = 32.00000, Total charge = -0.00000

*** Psi4 exiting successfully. Buy a developer a beer!
