  ==> Input File <==

--------------------------------------------------------------------------
set {
	reference rhf
	basis 6-31G*
}

set_num_threads( 4 )
memory 2 gb

molecule MOL {
0 1

H	 -0.509752	 4.157325	 2.001880
O	 0.171264	 3.558965	 1.729691
C	 -0.406965	 2.375242	 1.242822
C	 0.711784	 1.441435	 0.816027
H	 -1.015180	 1.901381	 2.012132
H	 -1.058884	 2.587232	 0.396417
C	 0.198102	 0.111031	 0.262842
H	 1.356772	 1.266644	 1.672862
H	 1.315535	 1.950022	 0.069501
C	 1.331804	 -0.827780	 -0.158768
H	 -0.422881	 -0.372110	 1.013260
H	 -0.446755	 0.298576	 -0.594773
C	 2.723619	 -0.410569	 0.329459
H	 1.342964	 -0.912588	 -1.244120
H	 1.116806	 -1.824343	 0.220779
C	 3.243875	 0.895854	 -0.272975
H	 3.424222	 -1.207124	 0.091250
H	 2.714788	 -0.329854	 1.414619
H	 3.251977	 0.848779	 -1.358681
H	 2.637085	 1.747371	 0.016682
H	 4.259473	 1.094070	 0.055697

	symmetry c1
}
set optking {
	frozen_dihedral = ("
		4 7 10 14
	")
}

ee = optimize('scf')
oeprop('DIPOLE', 'QUADRUPOLE', 'MULLIKEN_CHARGES')
f=open( 'psi4out.xyz', 'w' )
f.write( "21  " )
f.write( str(ee) + "\n" )
f.write( MOL.save_string_xyz() )
f.close()
--------------------------------------------------------------------------

    Molecular point group: c1
  Charge       = 0
  Multiplicity = 1
  Basis Set: 6-31G*
  Basis Set:
  @DF-RHF Final Energy:  -310.17355710996998
    Total Energy =                       -310.1735571099698063
    Molecular point group: c1
  Basis Set: 6-31G*
  Basis Set:
  Basis Set: 6-31G*
  Basis Set:
  @DF-RHF Final Energy:  -310.19442454016007
    Total Energy =                       -310.1944245401601279
  Basis Set: 6-31G*
  Basis Set:
  Basis Set: 6-31G*
  Basis Set:
  @DF-RHF Final Energy:  -310.19923606798534
    Total Energy =                       -310.1992360679853959
  Basis Set: 6-31G*
  Basis Set:
  Basis Set: 6-31G*
  Basis Set:
  @DF-RHF Final Energy:  -310.20057645617669
    Total Energy =                       -310.2005764561767478
  Basis Set: 6-31G*
  Basis Set:
  @DF-RHF Final Energy:  -310.20110456915910
    Total Energy =                       -310.2011045691588151
  @DF-RHF Final Energy:  -310.20107575119221
    Total Energy =                       -310.2010757511919792
  Basis Set: 6-31G*
  Basis Set:
  @DF-RHF Final Energy:  -310.20127179921161
    Total Energy =                       -310.2012717992116677
  Basis Set: 6-31G*
  Basis Set:
  Basis Set: 6-31G*
  Basis Set:
  @DF-RHF Final Energy:  -310.20128172996925
    Total Energy =                       -310.2012817299691960
  Basis Set: 6-31G*
  Basis Set:
  Basis Set: 6-31G*
  Basis Set:
  @DF-RHF Final Energy:  -310.20128417451872
    Total Energy =                       -310.2012841745187757
  Basis Set: 6-31G*
  Basis Set:
  Charge       = 0
  Multiplicity = 1
  Basis Set: 6-31G*
  Basis Set:

    Orbital Energies (a.u.)
    -----------------------

    Doubly Occupied:

       1A    -20.552083     2A    -11.267135     3A    -11.217084
       4A    -11.214583     5A    -11.213887     6A    -11.210388
       7A    -11.204234     8A     -1.358896     9A     -1.081144
      10A     -1.029305    11A     -0.956398    12A     -0.874302
      13A     -0.817533    14A     -0.767081    15A     -0.688934
      16A     -0.659730    17A     -0.623777    18A     -0.610738
      19A     -0.577892    20A     -0.566232    21A     -0.539850
      22A     -0.523765    23A     -0.503941    24A     -0.492849
      25A     -0.481868    26A     -0.450574    27A     -0.445209
      28A     -0.443767    29A     -0.433964

  @DF-RHF Final Energy:  -310.20128461985519

   => Energetics <=

    Nuclear Repulsion Energy =            319.0587951655838879
    One-Electron Energy =               -1052.9058736844388022
    Two-Electron Energy =                 423.6457938989996705
    DFT Exchange-Correlation Energy =       0.0000000000000000
    Empirical Dispersion Energy =           0.0000000000000000
    PCM Polarization Energy =               0.0000000000000000
    EFP Energy =                            0.0000000000000000
    Total Energy =                       -310.2012846198552438
    Molecular point group: c1
  Basis Set: 6-31G*
  Basis Set:

  -Total Gradient:
     Atom            X                  Y                   Z
    ------   -----------------  -----------------  -----------------
       1       -0.000001940763     0.000004680349     0.000001281644
       2       -0.000004957859    -0.000001886242    -0.000005649951
       3        0.000002691354    -0.000002071425    -0.000003395188
       4        0.000018391578    -0.001201064269     0.002765175109
       5        0.000009860063    -0.000002788331    -0.000004401110
       6        0.000004040530     0.000006780577     0.000006121898
       7       -0.000637868526     0.001055699586    -0.004001880709
       8        0.000009030062     0.000010260265     0.000001640644
       9        0.000010120716    -0.000015741399     0.000013357574
      10        0.003070203431     0.003175467601     0.001041956157
      11        0.000005478324     0.000000174971    -0.000001217586
      12        0.000000378264    -0.000014013948    -0.000012842565
      13       -0.000008536448     0.000015530300     0.000037228221
      14       -0.002486685435    -0.003033844829     0.000168466086
      15        0.000000067861     0.000010480121     0.000010127479
      16        0.000029307471    -0.000004025942    -0.000020981344
      17       -0.000003275553    -0.000008231104     0.000003674735
      18        0.000009424938     0.000007999782    -0.000000242126
      19       -0.000011653888     0.000007174026    -0.000000640744
      20        0.000000019600    -0.000012616273     0.000001773652
      21       -0.000014095721     0.000002036183     0.000000448119

  **** Optimization is complete! (in 10 steps) ****
    Final optimized geometry and variables:
    Molecular point group: c1

    Geometry (in Angstrom), charge = 0, multiplicity = 1:

    H           -2.033113630238     2.984565670129     1.574480993884
    O           -1.285609922849     2.499716066255     1.254938949161
    C           -1.707992117303     1.258694223861     0.750763054879
    C           -0.483812385073     0.511558822477     0.248582270112
    H           -2.206600319166     0.679741469675     1.526908320477
    H           -2.420551812349     1.397692843216    -0.061159339018
    C           -0.857310080634    -0.852527542483    -0.340291742311
    H            0.205859017037     0.403793903966     1.078447951989
    H            0.004211783698     1.137362497677    -0.490466908230
    C            0.287963191857    -1.809458095505    -0.777076511687
    H           -1.454558225487    -1.371162021622     0.406738394739
    H           -1.521448693189    -0.698188180954    -1.186559582609
    C            1.717577960550    -1.554430964709    -0.273797810805
    H            0.301190694911    -1.884075367776    -1.861769893175
    H            0.004004670802    -2.804224006225    -0.444372199219
    C            2.505820910106    -0.495482792730    -1.048013096212
    H            2.259924470903    -2.493514546291    -0.351311915626
    H            1.706518591692    -1.308475214454     0.784336116810
    H            2.554883890460    -0.750031928405    -2.103294124713
    H            2.067695524640     0.491419241348    -0.966943481294
    H            3.524816224439    -0.431533204386    -0.677971325436

  Mulliken Charges: (a.u.)
   Center  Symbol    Alpha    Beta     Spin     Total
       1     H     0.28112  0.28112  0.00000  0.43777
       2     O     4.37221  4.37221  0.00000 -0.74442
       3     C     2.98890  2.98890  0.00000  0.02220
       4     C     3.16355  3.16355  0.00000 -0.32710
       5     H     0.43283  0.43283  0.00000  0.13434
       6     H     0.43290  0.43290  0.00000  0.13420
       7     C     3.16342  3.16342  0.00000 -0.32683
       8     H     0.41293  0.41293  0.00000  0.17413
       9     H     0.41303  0.41303  0.00000  0.17393
      10     C     3.15586  3.15586  0.00000 -0.31173
      11     H     0.42333  0.42333  0.00000  0.15333
      12     H     0.42041  0.42041  0.00000  0.15917
      13     C     3.15616  3.15616  0.00000 -0.31231
      14     H     0.42149  0.42149  0.00000  0.15703
      15     H     0.42014  0.42014  0.00000  0.15973
      16     C     3.24085  3.24085  0.00000 -0.48170
      17     H     0.42096  0.42096  0.00000  0.15808
      18     H     0.42059  0.42059  0.00000  0.15883
      19     H     0.42314  0.42314  0.00000  0.15373
      20     H     0.41597  0.41597  0.00000  0.16806
      21     H     0.42021  0.42021  0.00000  0.15957

   Total alpha = 29.00000, Total beta = 29.00000, Total charge = -0.00000
