  ==> Input File <==

--------------------------------------------------------------------------
set {
	reference rhf
	basis 6-31G*
}

set_num_threads( 4 )
memory 2 gb

molecule MOL {
0 1

O	 -2.821601	 1.309235	 -0.001213
C	 -2.668563	 0.129746	 -0.000350
C	 -3.801572	 -0.864014	 -0.000442
O	 -1.481751	 -0.454642	 0.000584
H	 -4.417280	 -0.689587	 -0.874708
H	 -3.443784	 -1.883046	 -0.000565
H	 -4.417179	 -0.689832	 0.873954
C	 -0.334255	 0.388708	 0.000906
C	 0.891947	 -0.504646	 0.000751
H	 -0.365390	 1.025305	 -0.873475
H	 -0.365484	 1.024911	 0.875569
C	 2.191998	 0.301789	 0.000897
H	 0.855148	 -1.151283	 -0.871571
H	 0.855132	 -1.151660	 0.872805
C	 2.656889	 0.682584	 1.407737
H	 2.975537	 -0.271118	 -0.491984
H	 2.058708	 1.206895	 -0.589101
C	 3.956097	 1.486900	 1.407900
H	 2.790923	 -0.220750	 1.998581
H	 1.876010	 1.257123	 1.900893
H	 4.765517	 0.924739	 0.950921
H	 4.259828	 1.741513	 2.418422
H	 3.843641	 2.413850	 0.852808

	symmetry c1
}
set optking {
	frozen_dihedral = ("
		16 12 9 13
	")
}

ee = optimize('scf')
oeprop('DIPOLE', 'QUADRUPOLE', 'MULLIKEN_CHARGES')
f=open( 'psi4out.xyz', 'w' )
f.write( "23  " )
f.write( str(ee) + "\n" )
f.write( MOL.save_string_xyz() )
f.close()
--------------------------------------------------------------------------

    Molecular point group: c1
  Charge       = 0
  Multiplicity = 1
  Basis Set: 6-31G*
  Basis Set:
  @DF-RHF Final Energy:  -422.97669774550405
    Total Energy =                       -422.9766977455041115
    Molecular point group: c1
  Basis Set: 6-31G*
  Basis Set:
  Basis Set: 6-31G*
  Basis Set:
  @DF-RHF Final Energy:  -422.97690825404590
    Total Energy =                       -422.9769082540457248
  Basis Set: 6-31G*
  Basis Set:
  Basis Set: 6-31G*
  Basis Set:
  @DF-RHF Final Energy:  -422.97694858363627
    Total Energy =                       -422.9769485836364993
  Basis Set: 6-31G*
  Basis Set:
  Basis Set: 6-31G*
  Basis Set:
  @DF-RHF Final Energy:  -422.97694058857303
    Total Energy =                       -422.9769405885726883
  Basis Set: 6-31G*
  Basis Set:
  Basis Set: 6-31G*
  Basis Set:
  @DF-RHF Final Energy:  -422.97694446152559
    Total Energy =                       -422.9769444615258180
  Basis Set: 6-31G*
  Basis Set:
  Basis Set: 6-31G*
  Basis Set:
  @DF-RHF Final Energy:  -422.97695772645096
    Total Energy =                       -422.9769577264510190
  Basis Set: 6-31G*
  Basis Set:
  Charge       = 0
  Multiplicity = 1
  Basis Set: 6-31G*
  Basis Set:

    Orbital Energies (a.u.)
    -----------------------

    Doubly Occupied:

       1A    -20.603081     2A    -20.540660     3A    -11.374205
       4A    -11.281556     5A    -11.232442     6A    -11.224329
       7A    -11.223747     8A    -11.221787     9A    -11.212887
      10A     -1.468096    11A     -1.360852    12A     -1.093543
      13A     -1.041034    14A     -1.002782    15A     -0.930963
      16A     -0.847122    17A     -0.796023    18A     -0.779339
      19A     -0.688170    20A     -0.684806    21A     -0.672500
      22A     -0.633234    23A     -0.615843    24A     -0.586990
      25A     -0.578101    26A     -0.572471    27A     -0.561423
      28A     -0.530104    29A     -0.526747    30A     -0.506205
      31A     -0.495709    32A     -0.477423    33A     -0.468933
      34A     -0.462882    35A     -0.449140    36A     -0.435816

  @DF-RHF Final Energy:  -422.97695776872274

   => Energetics <=

    Nuclear Repulsion Energy =            454.5398037006984850
    One-Electron Energy =               -1476.6716327063634253
    Two-Electron Energy =                 599.1548712369421992
    DFT Exchange-Correlation Energy =       0.0000000000000000
    Empirical Dispersion Energy =           0.0000000000000000
    PCM Polarization Energy =               0.0000000000000000
    EFP Energy =                            0.0000000000000000
    Total Energy =                       -422.9769577687227411
    Molecular point group: c1
  Basis Set: 6-31G*
  Basis Set:

  -Total Gradient:
     Atom            X                  Y                   Z
    ------   -----------------  -----------------  -----------------
       1       -0.000007230983     0.000001788594    -0.000013889812
       2        0.000007613259     0.000006532795     0.000014606881
       3        0.000003466213     0.000000855060     0.000000971986
       4        0.000013777391    -0.000006541440    -0.000026803308
       5        0.000001835449     0.000000753280    -0.000000219133
       6        0.000000591330    -0.000000180478    -0.000000299152
       7        0.000000270675     0.000000471398     0.000000130754
       8       -0.000006227151     0.000009406476     0.000071926728
       9       -0.001425424735     0.002420090763    -0.002065313918
      10       -0.000011469880    -0.000002976463    -0.000013873233
      11        0.000003416855     0.000000682167    -0.000010899987
      12        0.000928329237    -0.001660204495     0.002875907921
      13        0.001032593261    -0.001783649906     0.001251793308
      14       -0.000004316732     0.000000344241    -0.000005207749
      15        0.000015373930     0.000000159305     0.000011829485
      16       -0.000555520436     0.001015170583    -0.002087553616
      17        0.000007817933    -0.000002103905    -0.000007114862
      18       -0.000008479526     0.000003475084     0.000002072177
      19       -0.000000457515    -0.000002809532     0.000000842367
      20        0.000004698859     0.000001158118     0.000004206289
      21        0.000001983131    -0.000003969113     0.000002837472
      22       -0.000004184577     0.000000786303    -0.000002183843
      23        0.000001544026     0.000000761162    -0.000003766756

  **** Optimization is complete! (in 7 steps) ****
    Final optimized geometry and variables:
    Molecular point group: c1

    Geometry (in Angstrom), charge = 0, multiplicity = 1:

    O           -2.647965512935     1.028809702812    -0.317089318699
    C           -2.494926340774    -0.150707114706    -0.311729518965
    C           -3.627894855867    -1.144316508307    -0.294916280905
    O           -1.308167738190    -0.735135276094    -0.319791002669
    H           -4.252620599295    -0.974354436507    -1.163639810493
    H           -3.270135752670    -2.163357851551    -0.293471191374
    H           -4.234394335125    -0.965553322065     0.584903669612
    C           -0.160924609004     0.108233427666    -0.336410090305
    C            1.064508836419    -0.787026267865    -0.342004468561
    H           -0.197732900354     0.734477153248    -1.217993595058
    H           -0.188818838696     0.754392809450     0.530372109437
    C            2.380045875808     0.006387682507    -0.302197463018
    H            1.034704450729    -1.422554703486    -1.221489384143
    H            1.011184124119    -1.457075865948     0.511912328770
    C            2.833851078630     0.397263432737     1.106492610220
    H            3.160599533246    -0.574460000540    -0.785991781066
    H            2.277712012988     0.906370361993    -0.907649522788
    C            4.124796756727     1.214743610649     1.106682093462
    H            2.976987657360    -0.504949021997     1.696753501864
    H            2.050731273608     0.965205610632     1.603291700796
    H            4.938121033829     0.662229513138     0.644680910461
    H            4.428995493123     1.467821609206     2.117384436106
    H            4.001706741496     2.142927614827     0.556004417303

  Mulliken Charges: (a.u.)
   Center  Symbol    Alpha    Beta     Spin     Total
       1     O     4.28397  4.28397  0.00000 -0.56794
       2     C     2.61542  2.61542  0.00000  0.76917
       3     C     3.28779  3.28779  0.00000 -0.57558
       4     O     4.31228  4.31228  0.00000 -0.62456
       5     H     0.39748  0.39748  0.00000  0.20505
       6     H     0.39984  0.39984  0.00000  0.20032
       7     H     0.39750  0.39750  0.00000  0.20500
       8     C     2.99750  2.99750  0.00000  0.00499
       9     C     3.16677  3.16677  0.00000 -0.33354
      10     H     0.41045  0.41045  0.00000  0.17911
      11     H     0.40984  0.40984  0.00000  0.18032
      12     C     3.16374  3.16374  0.00000 -0.32748
      13     H     0.41195  0.41195  0.00000  0.17609
      14     H     0.41368  0.41368  0.00000  0.17264
      15     C     3.15285  3.15285  0.00000 -0.30571
      16     H     0.41642  0.41642  0.00000  0.16715
      17     H     0.42117  0.42117  0.00000  0.15765
      18     C     3.23997  3.23997  0.00000 -0.47994
      19     H     0.42082  0.42082  0.00000  0.15835
      20     H     0.42139  0.42139  0.00000  0.15722
      21     H     0.42106  0.42106  0.00000  0.15789
      22     H     0.41772  0.41772  0.00000  0.16457
      23     H     0.42039  0.42039  0.00000  0.15921

   Total alpha = 36.00000, Total beta = 36.00000, Total charge = -0.00000
