  ==> Input File <==

--------------------------------------------------------------------------
set {
	reference rhf
	basis 6-31G*
}

set_num_threads( 4 )
memory 2 gb

molecule MOL {
0 1

O	 0.749854	 1.307668	 -0.000040
C	 0.576249	 0.131685	 -0.000108
C	 -0.766779	 -0.556801	 -0.000461
O	 1.568443	 -0.749345	 -0.000005
C	 -1.945214	 0.412366	 0.000161
H	 -0.796911	 -1.211249	 -0.867467
H	 -0.796854	 -1.212390	 0.865687
C	 -1.984451	 1.268521	 -1.264761
H	 -1.884692	 1.048998	 0.876311
H	 -2.869147	 -0.147624	 0.096767
H	 -1.081477	 1.863884	 -1.367886
H	 -2.828281	 1.950388	 -1.244519
H	 -2.077979	 0.654103	 -2.155949
C	 2.886820	 -0.232538	 0.000322
H	 3.059106	 0.369571	 -0.880203
H	 3.540187	 -1.091012	 0.000050
H	 3.059019	 0.368956	 0.881266

	symmetry c1
}
set optking {
	frozen_dihedral = ("
		9 5 3 6
	")
}

ee = optimize('scf')
oeprop('DIPOLE', 'QUADRUPOLE', 'MULLIKEN_CHARGES')
f=open( 'psi4out.xyz', 'w' )
f.write( "17  " )
f.write( str(ee) + "\n" )
f.write( MOL.save_string_xyz() )
f.close()
--------------------------------------------------------------------------

    Molecular point group: c1
  Charge       = 0
  Multiplicity = 1
  Basis Set: 6-31G*
  Basis Set:
  @DF-RHF Final Energy:  -344.90485369767504
    Total Energy =                       -344.9048536976750370
    Molecular point group: c1
  Basis Set: 6-31G*
  Basis Set:
  Basis Set: 6-31G*
  Basis Set:
  @DF-RHF Final Energy:  -344.90596720286288
    Total Energy =                       -344.9059672028628825
  Basis Set: 6-31G*
  Basis Set:
  Basis Set: 6-31G*
  Basis Set:
  @DF-RHF Final Energy:  -344.90459139579082
    Total Energy =                       -344.9045913957907032
  Basis Set: 6-31G*
  Basis Set:
  Basis Set: 6-31G*
  Basis Set:
  @DF-RHF Final Energy:  -344.90625521973976
    Total Energy =                       -344.9062552197397622
  Basis Set: 6-31G*
  Basis Set:
  Basis Set: 6-31G*
  Basis Set:
  @DF-RHF Final Energy:  -344.90634421802002
    Total Energy =                       -344.9063442180204220
  Basis Set: 6-31G*
  Basis Set:
  Basis Set: 6-31G*
  Basis Set:
  @DF-RHF Final Energy:  -344.90637065798711
    Total Energy =                       -344.9063706579867130
  Basis Set: 6-31G*
  Basis Set:
  Basis Set: 6-31G*
  Basis Set:
  @DF-RHF Final Energy:  -344.90637256701046
    Total Energy =                       -344.9063725670104077
  Basis Set: 6-31G*
  Basis Set:
  Charge       = 0
  Multiplicity = 1
  Basis Set: 6-31G*
  Basis Set:

    Orbital Energies (a.u.)
    -----------------------

    Doubly Occupied:

       1A    -20.605075     2A    -20.546083     3A    -11.373444
       4A    -11.281569     5A    -11.236111     6A    -11.222925
       7A    -11.207774     8A     -1.470563     9A     -1.363637
      10A     -1.079063    11A     -0.999545    12A     -0.938875
      13A     -0.829823    14A     -0.766109    15A     -0.700683
      16A     -0.681900    17A     -0.671685    18A     -0.621544
      19A     -0.614250    20A     -0.567526    21A     -0.563816
      22A     -0.534354    23A     -0.523854    24A     -0.489129
      25A     -0.484032    26A     -0.481390    27A     -0.456801
      28A     -0.436627

  @DF-RHF Final Energy:  -344.90637320142412

   => Energetics <=

    Nuclear Repulsion Energy =            318.1562257811384598
    One-Electron Energy =               -1100.6288213801808524
    Two-Electron Energy =                 437.5662223976180485
    DFT Exchange-Correlation Energy =       0.0000000000000000
    Empirical Dispersion Energy =           0.0000000000000000
    PCM Polarization Energy =               0.0000000000000000
    EFP Energy =                            0.0000000000000000
    Total Energy =                       -344.9063732014243442
    Molecular point group: c1
  Basis Set: 6-31G*
  Basis Set:

  -Total Gradient:
     Atom            X                  Y                   Z
    ------   -----------------  -----------------  -----------------
       1       -0.000033917245     0.000013399987     0.000007678144
       2        0.000008931828     0.000079921892     0.000017210617
       3        0.000635806514     0.000744229464    -0.000649528299
       4        0.000075197042    -0.000092419833    -0.000018885554
       5        0.000595331415     0.000672203444    -0.000572509606
       6       -0.000632307247    -0.000698328475     0.000613339319
       7        0.000004805847    -0.000010914518     0.000010774051
       8        0.000018852901    -0.000018152020     0.000001304418
       9       -0.000612149331    -0.000702123247     0.000598575225
      10       -0.000006719314     0.000007697323    -0.000008441160
      11       -0.000001235824     0.000003799016     0.000004124997
      12       -0.000007817508     0.000001759078     0.000000585180
      13       -0.000005749591    -0.000004428777    -0.000003399548
      14       -0.000034891860     0.000010473369     0.000000678570
      15        0.000003529134     0.000000113167    -0.000000300899
      16       -0.000009680815    -0.000007290850    -0.000001246742
      17        0.000002014053     0.000000060978     0.000000041284

  **** Optimization is complete! (in 8 steps) ****
    Final optimized geometry and variables:
    Molecular point group: c1

    Geometry (in Angstrom), charge = 0, multiplicity = 1:

    O            0.590472143435     1.048131822000     0.511776469474
    C            0.392463143332    -0.097186325165     0.259697821872
    C           -0.962829062112    -0.761224211547     0.205329613532
    O            1.365897368369    -0.966395079108     0.023581426679
    C           -2.135806388151     0.214721824154     0.125561218762
    H           -0.973421935000    -1.464173980086    -0.620883986250
    H           -1.036506062739    -1.365225310839     1.107221189544
    C           -2.198495692488     0.998270031623    -1.185150651964
    H           -2.089214896955     0.897966903002     0.966085053363
    H           -3.051105202938    -0.359356518785     0.242784426511
    H           -1.322718383133     1.623113249615    -1.312449319117
    H           -3.071610254859     1.642649988544    -1.204225935426
    H           -2.266175992315     0.327600267185    -2.038002022087
    C            2.693886284708    -0.479332022143     0.093900563971
    H            2.849976147531     0.303650498661    -0.634044406189
    H            3.329421303328    -1.323737028047    -0.122722371074
    H            2.905750556481    -0.094324244117     1.081008980232

  Mulliken Charges: (a.u.)
   Center  Symbol    Alpha    Beta     Spin     Total
       1     O     4.28720  4.28720  0.00000 -0.57439
       2     C     2.60619  2.60619  0.00000  0.78762
       3     C     3.20802  3.20802  0.00000 -0.41605
       4     O     4.30584  4.30584  0.00000 -0.61168
       5     C     3.15277  3.15277  0.00000 -0.30554
       6     H     0.40116  0.40116  0.00000  0.19768
       7     H     0.39846  0.39846  0.00000  0.20309
       8     C     3.24671  3.24671  0.00000 -0.49341
       9     H     0.40775  0.40775  0.00000  0.18450
      10     H     0.41885  0.41885  0.00000  0.16230
      11     H     0.40618  0.40618  0.00000  0.18763
      12     H     0.41770  0.41770  0.00000  0.16460
      13     H     0.42459  0.42459  0.00000  0.15082
      14     C     3.09258  3.09258  0.00000 -0.18516
      15     H     0.40870  0.40870  0.00000  0.18260
      16     H     0.40826  0.40826  0.00000  0.18348
      17     H     0.40904  0.40904  0.00000  0.18191

   Total alpha = 28.00000, Total beta = 28.00000, Total charge = -0.00000
