                              Psi4 1.0.54 Driver

  ==> Input File <==

--------------------------------------------------------------------------
set {
	reference rhf
	basis cc-pvtz
}

set_num_threads( 4 )
memory 2 gb

molecule MOL {
0 1

O	 -1.510865	 1.240890	 -0.054939
C	 -1.081605	 0.147601	 0.122714
C	 0.326934	 -0.063927	 0.641884
C	 -1.903123	 -1.084042	 -0.174662
C	 1.349365	 -0.016989	 -0.500221
H	 0.398934	 -1.014527	 1.159944
H	 0.537926	 0.727007	 1.350465
C	 2.779687	 -0.208935	 -0.009221
H	 1.114912	 -0.782880	 -1.233897
H	 1.258976	 0.936786	 -1.006650
H	 3.481765	 -0.160191	 -0.833078
H	 2.903376	 -1.171456	 0.475553
H	 3.052474	 0.559663	 0.705422
H	 -1.341986	 -1.779128	 -0.789265
H	 -2.820544	 -0.808084	 -0.671334
H	 -2.133409	 -1.592977	 0.755825

	symmetry c1
}
ee,wfn = energy('scf', return_wfn=True)
oeprop( wfn, 'DIPOLE', 'QUADRUPOLE', 'MULLIKEN_CHARGES')
oeprop( wfn, 'GRID_ESP')
f=open( 'psi4out.xyz', 'w' )
f.write( "16  " )
f.write( str(ee) + "\n" )
f.write( MOL.save_string_xyz() )
f.close()
--------------------------------------------------------------------------

    Molecular point group: c1

    Geometry (in Angstrom), charge = 0, multiplicity = 1:

       Center              X                  Y                   Z               Mass
    ------------   -----------------  -----------------  -----------------  -----------------
           O         -1.510770356658     1.240810507676    -0.054933045653    15.994914619560
           C         -1.081510356658     0.147521507676     0.122719954347    12.000000000000
           C          0.327028643342    -0.064006492324     0.641889954347    12.000000000000
           C         -1.903028356658    -1.084121492324    -0.174656045653    12.000000000000
           C          1.349459643342    -0.017068492324    -0.500215045653    12.000000000000
           H          0.399028643342    -1.014606492324     1.159949954347     1.007825032070
           H          0.538020643342     0.726927507676     1.350470954347     1.007825032070
           C          2.779781643342    -0.209014492324    -0.009215045653    12.000000000000
           H          1.115006643342    -0.782959492324    -1.233891045653     1.007825032070
           H          1.259070643342     0.936706507676    -1.006644045653     1.007825032070
           H          3.481859643342    -0.160270492324    -0.833072045653     1.007825032070
           H          2.903470643342    -1.171535492324     0.475558954347     1.007825032070
           H          3.052568643342     0.559583507676     0.705427954347     1.007825032070
           H         -1.341891356658    -1.779207492324    -0.789259045653     1.007825032070
           H         -2.820449356658    -0.808163492324    -0.671328045653     1.007825032070
           H         -2.133314356658    -1.593056492324     0.755830954347     1.007825032070

  Charge       = 0
  Multiplicity = 1
  Basis Set: CC-PVTZ
  Basis Set:

    Orbital Energies (a.u.)
    -----------------------

    Doubly Occupied:

       1A    -20.537413     2A    -11.319866     3A    -11.231458
       4A    -11.228467     5A    -11.227385     6A    -11.217574
       7A     -1.397538     8A     -1.083848     9A     -1.014245
      10A     -0.950521    11A     -0.829550    12A     -0.736610
      13A     -0.661221    14A     -0.651223    15A     -0.613753
      16A     -0.609757    17A     -0.576761    18A     -0.559755
      19A     -0.538009    20A     -0.519734    21A     -0.505012
      22A     -0.484978    23A     -0.474454    24A     -0.400586

  @DF-RHF Final Energy:  -270.12945270232615

   => Energetics <=

    Nuclear Repulsion Energy =            237.5380561806097717
    One-Electron Energy =                -836.5953842804824490
    Two-Electron Energy =                 328.9278753975464724
    DFT Exchange-Correlation Energy =       0.0000000000000000
    Empirical Dispersion Energy =           0.0000000000000000
    PCM Polarization Energy =               0.0000000000000000
    EFP Energy =                            0.0000000000000000
    Total Energy =                       -270.1294527023261480

  Mulliken Charges: (a.u.)
   Center  Symbol    Alpha    Beta     Spin     Total
       1     O     4.17699  4.17699  0.00000 -0.35397
       2     C     2.85765  2.85765  0.00000  0.28469
       3     C     3.09826  3.09826  0.00000 -0.19652
       4     C     3.15488  3.15488  0.00000 -0.30975
       5     C     3.09151  3.09151  0.00000 -0.18303
       6     H     0.45015  0.45015  0.00000  0.09969
       7     H     0.43935  0.43935  0.00000  0.12131
       8     C     3.14894  3.14894  0.00000 -0.29789
       9     H     0.45268  0.45268  0.00000  0.09463
      10     H     0.44121  0.44121  0.00000  0.11759
      11     H     0.44616  0.44616  0.00000  0.10769
      12     H     0.45501  0.45501  0.00000  0.08998
      13     H     0.45177  0.45177  0.00000  0.09646
      14     H     0.45096  0.45096  0.00000  0.09808
      15     H     0.43606  0.43606  0.00000  0.12788
      16     H     0.44843  0.44843  0.00000  0.10315

   Total alpha = 24.00000, Total beta = 24.00000, Total charge =  0.00000

*** Psi4 exiting successfully. Buy a developer a beer!
