                              Psi4 1.0.54 Driver

  ==> Input File <==

--------------------------------------------------------------------------
set {
	reference rhf
	basis cc-pvtz
}

set_num_threads( 4 )
memory 2 gb

molecule MOL {
0 1

H	 -0.694871	 1.803243	 -1.744713
C	 -1.353153	 1.205423	 -1.122684
O	 -0.775228	 0.000056	 -0.739966
H	 -2.231625	 0.959501	 -1.702304
H	 -1.665827	 1.804650	 -0.273687
C	 0.406133	 -0.000384	 0.036994
C	 1.526415	 -0.003194	 -0.997339
C	 0.498772	 1.259027	 0.900673
C	 0.495883	 -1.257378	 0.904465
H	 1.452279	 0.872071	 -1.630204
H	 1.451276	 -0.881020	 -1.626529
H	 2.497919	 -0.002741	 -0.517601
H	 0.368981	 2.144239	 0.289753
H	 1.470064	 1.313479	 1.377660
H	 -0.248448	 1.271586	 1.684297
H	 0.363971	 -2.144195	 0.296316
H	 1.467114	 -1.312636	 1.381470
H	 -0.251246	 -1.265768	 1.688235

	symmetry c1
}
set optking {
	frozen_dihedral = ("
		2 3 6 7
	")
}

ee,wfn = optimize('scf', return_wfn=True)
oeprop( wfn, 'DIPOLE', 'QUADRUPOLE', 'MULLIKEN_CHARGES')
f=open( 'psi4out.xyz', 'w' )
f.write( "18  " )
f.write( str(ee) + "\n" )
f.write( MOL.save_string_xyz() )
f.close()
--------------------------------------------------------------------------

    Molecular point group: c1
  Charge       = 0
  Multiplicity = 1
  Basis Set: CC-PVTZ
  Basis Set:
  @DF-RHF Final Energy:  -271.26989732722490
    Total Energy =                       -271.2698973272249532
    Molecular point group: c1
  Basis Set: CC-PVTZ
  Basis Set:
  Basis Set: CC-PVTZ
  Basis Set:
  @DF-RHF Final Energy:  -271.25923580843158
    Total Energy =                       -271.2592358084315833
  Basis Set: CC-PVTZ
  Basis Set:
  Basis Set: CC-PVTZ
  Basis Set:
  @DF-RHF Final Energy:  -271.27443321533207
    Total Energy =                       -271.2744332153322375
  Basis Set: CC-PVTZ
  Basis Set:
  Basis Set: CC-PVTZ
  Basis Set:
  @DF-RHF Final Energy:  -271.27511120109767
    Total Energy =                       -271.2751112010973884
  Basis Set: CC-PVTZ
  Basis Set:
  @DF-RHF Final Energy:  -271.27516372754951
    Total Energy =                       -271.2751637275495682
  Basis Set: CC-PVTZ
  Basis Set:
  @DF-RHF Final Energy:  -271.27527651073410
    Total Energy =                       -271.2752765107341020
  Basis Set: CC-PVTZ
  Basis Set:
  Basis Set: CC-PVTZ
  Basis Set:
  @DF-RHF Final Energy:  -271.27528019345567
    Total Energy =                       -271.2752801934557283
  Basis Set: CC-PVTZ
  Basis Set:
  Basis Set: CC-PVTZ
  Basis Set:
  @DF-RHF Final Energy:  -271.27528435458186
    Total Energy =                       -271.2752843545817996
  Basis Set: CC-PVTZ
  Basis Set:
  Charge       = 0
  Multiplicity = 1
  Basis Set: CC-PVTZ
  Basis Set:

    Orbital Energies (a.u.)
    -----------------------

    Doubly Occupied:

       1A    -20.539463     2A    -11.280234     3A    -11.259010
       4A    -11.210629     5A    -11.204106     6A    -11.201611
       7A     -1.372305     8A     -1.074965     9A     -0.950257
      10A     -0.937366    11A     -0.912617    12A     -0.753042
      13A     -0.657309    14A     -0.647752    15A     -0.639573
      16A     -0.588829    17A     -0.575242    18A     -0.552226
      19A     -0.537042    20A     -0.526322    21A     -0.515291
      22A     -0.491094    23A     -0.486101    24A     -0.442866
      25A     -0.403251

  @DF-RHF Final Energy:  -271.27528444039166

   => Energetics <=

    Nuclear Repulsion Energy =            272.5266086809969579
    One-Electron Energy =                -908.0867821443181356
    Two-Electron Energy =                 364.2848890229294057
    DFT Exchange-Correlation Energy =       0.0000000000000000
    Empirical Dispersion Energy =           0.0000000000000000
    PCM Polarization Energy =               0.0000000000000000
    EFP Energy =                            0.0000000000000000
    Total Energy =                       -271.2752844403918289
    Molecular point group: c1
  Basis Set: CC-PVTZ
  Basis Set:

  -Total Gradient:
     Atom            X                  Y                   Z
    ------   -----------------  -----------------  -----------------
       1       -0.000000171201     0.000005572111    -0.000004543718
       2       -0.001596825551     0.000788882102     0.002577550300
       3        0.002535873118    -0.002005361332    -0.003519396290
       4       -0.000003461689    -0.000002425084    -0.000001642519
       5       -0.000001349748     0.000003280992     0.000003128742
       6       -0.001295776552     0.003607633073    -0.000013046026
       7        0.000354282870    -0.002391443396     0.000962748308
       8        0.000008774018    -0.000003836436    -0.000005508795
       9        0.000008225991    -0.000006850826    -0.000001700556
      10       -0.000002067702     0.000001982951     0.000001141904
      11        0.000000753329     0.000001575580    -0.000004412745
      12       -0.000001780145    -0.000001581315     0.000002407771
      13        0.000000050268     0.000001767823    -0.000007975331
      14        0.000007680955    -0.000001175119     0.000001586808
      15       -0.000019255503     0.000003735786     0.000009328862
      16       -0.000000645079    -0.000006774596     0.000006373019
      17        0.000006779152    -0.000002062114     0.000000650411
      18       -0.000001086531     0.000007079801    -0.000006690145

  **** Optimization is complete! (in 9 steps) ****
    Final optimized geometry and variables:
    Molecular point group: c1

    Geometry (in Angstrom), charge = 0, multiplicity = 1:

    H           -1.053030204567     0.869480697226    -1.935386406876
    C           -1.626469316125     0.398797682024    -1.140918753168
    O           -0.868121131661    -0.491817977110    -0.390052473606
    H           -2.421057927664    -0.175182502523    -1.596425388060
    H           -2.074443801713     1.176499560591    -0.531992969136
    C            0.333127745346    -0.064305210685     0.228026222982
    C            1.488562857259    -0.286997858791    -0.748519390216
    C            0.283421553774     1.389525338890     0.696230419208
    C            0.492760611110    -0.986509588039     1.433397430434
    H            1.372517353001     0.321444978199    -1.638463564947
    H            1.519398380236    -1.325386931507    -1.052396793517
    H            2.438676342509    -0.031450251801    -0.293279725937
    H            0.216400856135     2.085770427352    -0.130134359870
    H            1.187927243940     1.620152144344     1.245196531176
    H           -0.559291251474     1.556834290188     1.356176529560
    H            0.468995651368    -2.020538550010     1.114170467997
    H            1.432247651810    -0.803663025282     1.942099246572
    H           -0.316962432287    -0.832602353747     2.135885386827

  Mulliken Charges: (a.u.)
   Center  Symbol    Alpha    Beta     Spin     Total
       1     H     0.47028  0.47028  0.00000  0.05943
       2     C     3.04340  3.04340  0.00000 -0.08680
       3     O     4.19429  4.19429  0.00000 -0.38859
       4     H     0.44236  0.44236  0.00000  0.11529
       5     H     0.46694  0.46694  0.00000  0.06611
       6     C     2.87370  2.87370  0.00000  0.25260
       7     C     3.14985  3.14985  0.00000 -0.29970
       8     C     3.17362  3.17362  0.00000 -0.34724
       9     C     3.14109  3.14109  0.00000 -0.28219
      10     H     0.45040  0.45040  0.00000  0.09919
      11     H     0.44794  0.44794  0.00000  0.10412
      12     H     0.45357  0.45357  0.00000  0.09286
      13     H     0.44508  0.44508  0.00000  0.10984
      14     H     0.44404  0.44404  0.00000  0.11191
      15     H     0.44499  0.44499  0.00000  0.11002
      16     H     0.44759  0.44759  0.00000  0.10481
      17     H     0.45940  0.45940  0.00000  0.08120
      18     H     0.45144  0.45144  0.00000  0.09713

   Total alpha = 25.00000, Total beta = 25.00000, Total charge = -0.00000

*** Psi4 exiting successfully. Buy a developer a beer!
