  ==> Input File <==

--------------------------------------------------------------------------
set {
	reference rhf
	basis 6-31G*
}

set_num_threads( 4 )
memory 2 gb

molecule MOL {
0 1

O	 3.225979	 0.970355	 -0.599647
C	 2.701189	 0.057885	 -0.047330
C	 1.245376	 -0.013843	 0.345420
O	 3.347903	 -1.046386	 0.304773
C	 0.850614	 1.037882	 1.379901
H	 0.664865	 0.074923	 -0.566896
H	 1.060502	 -1.018052	 0.718358
C	 -0.596963	 0.911712	 1.866828
H	 1.014194	 2.027988	 0.965111
H	 1.519648	 0.955205	 2.229596
C	 -1.662399	 1.192608	 0.803318
H	 -0.736927	 1.607390	 2.690942
H	 -0.754485	 -0.082725	 2.281907
C	 -3.085560	 1.161950	 1.364275
H	 -1.473176	 2.167322	 0.356163
H	 -1.587260	 0.466743	 -0.003184
C	 -4.158915	 1.436153	 0.309357
H	 -3.172986	 1.895667	 2.163807
H	 -3.271731	 0.191192	 1.821078
C	 -5.577018	 1.407521	 0.878447
H	 -3.973799	 2.405400	 -0.148831
H	 -4.075924	 0.701123	 -0.488530
H	 -6.314934	 1.605165	 0.107069
H	 -5.702665	 2.155985	 1.655757
H	 -5.805252	 0.438751	 1.313956
C	 4.728119	 -1.109107	 -0.004993
H	 4.882018	 -1.033965	 -1.071845
H	 5.068212	 -2.067527	 0.355250
H	 5.265056	 -0.311663	 0.488280

	symmetry c1
}
set optking {
	frozen_dihedral = ("
		6 3 2 1
	")
}

ee = optimize('scf')
oeprop('DIPOLE', 'QUADRUPOLE', 'MULLIKEN_CHARGES')
f=open( 'psi4out.xyz', 'w' )
f.write( "29  " )
f.write( str(ee) + "\n" )
f.write( MOL.save_string_xyz() )
f.close()
--------------------------------------------------------------------------

    Molecular point group: c1
  Charge       = 0
  Multiplicity = 1
  Basis Set: 6-31G*
  Basis Set:
  @DF-RHF Final Energy:  -501.04183046524520
    Total Energy =                       -501.0418304652457664
    Molecular point group: c1
  Basis Set: 6-31G*
  Basis Set:
  Basis Set: 6-31G*
  Basis Set:
  @DF-RHF Final Energy:  -501.04251438227425
    Total Energy =                       -501.0425143822742484
  Basis Set: 6-31G*
  Basis Set:
  Basis Set: 6-31G*
  Basis Set:
  @DF-RHF Final Energy:  -501.04167433838779
    Total Energy =                       -501.0416743383882476
  Basis Set: 6-31G*
  Basis Set:
  Basis Set: 6-31G*
  Basis Set:
  @DF-RHF Final Energy:  -501.04259918587559
    Total Energy =                       -501.0425991858758152
  Basis Set: 6-31G*
  Basis Set:
  Basis Set: 6-31G*
  Basis Set:
  @DF-RHF Final Energy:  -501.04255479177004
    Total Energy =                       -501.0425547917699305
  Basis Set: 6-31G*
  Basis Set:
  Basis Set: 6-31G*
  Basis Set:
  @DF-RHF Final Energy:  -501.04260820752108
    Total Energy =                       -501.0426082075207432
  Basis Set: 6-31G*
  Basis Set:
  Charge       = 0
  Multiplicity = 1
  Basis Set: 6-31G*
  Basis Set:

    Orbital Energies (a.u.)
    -----------------------

    Doubly Occupied:

       1A    -20.605570     2A    -20.541542     3A    -11.370910
       4A    -11.280492     5A    -11.232837     6A    -11.226157
       7A    -11.220052     8A    -11.216588     9A    -11.215918
      10A    -11.214934    11A    -11.209084    12A     -1.469070
      13A     -1.360783    14A     -1.099458    15A     -1.067220
      16A     -1.019009    17A     -0.976755    18A     -0.929949
      19A     -0.862776    20A     -0.799162    21A     -0.790805
      22A     -0.769041    23A     -0.698971    24A     -0.679494
      25A     -0.672159    26A     -0.651689    27A     -0.627613
      28A     -0.604085    29A     -0.594652    30A     -0.579280
      31A     -0.571867    32A     -0.543634    33A     -0.542098
      34A     -0.529987    35A     -0.518648    36A     -0.510859
      37A     -0.496419    38A     -0.480110    39A     -0.470357
      40A     -0.463183    41A     -0.461613    42A     -0.452070
      43A     -0.445296    44A     -0.429314

  @DF-RHF Final Energy:  -501.04260845818021

   => Energetics <=

    Nuclear Repulsion Energy =            610.5942392845934137
    One-Electron Energy =               -1892.2706697208554942
    Two-Electron Energy =                 780.6338219780816416
    DFT Exchange-Correlation Energy =       0.0000000000000000
    Empirical Dispersion Energy =           0.0000000000000000
    PCM Polarization Energy =               0.0000000000000000
    EFP Energy =                            0.0000000000000000
    Total Energy =                       -501.0426084581804389
    Molecular point group: c1
  Basis Set: 6-31G*
  Basis Set:

  -Total Gradient:
     Atom            X                  Y                   Z
    ------   -----------------  -----------------  -----------------
       1       -0.000120316470    -0.000141906878    -0.000338940390
       2        0.000115023007     0.000361146704     0.000455224458
       3        0.000008725505    -0.000508700182    -0.000222099185
       4        0.000008724828    -0.000061952860     0.000032530948
       5        0.000023804144    -0.000025349740     0.000029719099
       6       -0.000025436225     0.000355957288     0.000052379384
       7        0.000005191216    -0.000013907828    -0.000004968806
       8       -0.000005773965     0.000019363219    -0.000021642848
       9        0.000007574491    -0.000001759660     0.000007765240
      10       -0.000007498259     0.000012584850     0.000002570135
      11        0.000001117666    -0.000010108832     0.000013655184
      12       -0.000002395810     0.000002098318     0.000001979246
      13        0.000011298629     0.000001311437    -0.000012068173
      14       -0.000000168065     0.000008762105    -0.000000392635
      15        0.000005264571     0.000001418783     0.000002910121
      16        0.000004234122    -0.000004096040    -0.000003990437
      17       -0.000004070681    -0.000007213397     0.000002563920
      18       -0.000000841690     0.000001621487    -0.000001527562
      19        0.000002524240     0.000003591458     0.000000562567
      20       -0.000004276672     0.000000370961    -0.000004971277
      21       -0.000001410798    -0.000000970290     0.000002392524
      22       -0.000000635704     0.000000363824    -0.000002256622
      23       -0.000003498303     0.000000400005     0.000000978622
      24        0.000001076863    -0.000000860568    -0.000000206883
      25        0.000000506955     0.000000672033    -0.000001018462
      26       -0.000025360995     0.000015569764     0.000009995189
      27        0.000004246649    -0.000001628346    -0.000000174146
      28       -0.000006502016    -0.000003527973     0.000002022590
      29        0.000008872761    -0.000003249635    -0.000002991800

  **** Optimization is complete! (in 7 steps) ****
    Final optimized geometry and variables:
    Molecular point group: c1

    Geometry (in Angstrom), charge = 0, multiplicity = 1:

    O            3.007697212233     0.453220689803    -1.135959216704
    C            2.548160722056    -0.508195757124    -0.606234995278
    C            1.101652334588    -0.638027441701    -0.194467119876
    O            3.262712069495    -1.584584768731    -0.311464973557
    C            0.716059259249     0.454231734242     0.813749362488
    H            0.511600124321    -0.537122287496    -1.098531359835
    H            0.926579400135    -1.624033810437     0.216954683065
    C           -0.736265301922     0.368451686016     1.294451263887
    H            0.903397485385     1.424862777910     0.366777689639
    H            1.372257719198     0.377859133014     1.677347757831
    C           -1.788012518206     0.639464699736     0.215154846229
    H           -0.867185308268     1.090427233361     2.097278887837
    H           -0.913999344480    -0.610476589834     1.736410100684
    C           -3.214700079099     0.655929369721     0.767981096520
    H           -1.574891951981     1.595257166602    -0.260537262764
    H           -1.723606826780    -0.112542838016    -0.567694631658
    C           -4.275826469595     0.916830688777    -0.302573544216
    H           -3.291961063789     1.417314646555     1.542307723096
    H           -3.423353572984    -0.295287002245     1.255186160267
    C           -5.697578063312     0.935459805464     0.257758406346
    H           -4.068193711203     1.866452529454    -0.791038823373
    H           -4.202945438193     0.154415618518    -1.075297683442
    H           -6.426610024178     1.122330957430    -0.524645220371
    H           -5.812712514107     1.711582324887     1.009147004057
    H           -5.948088975808    -0.013631522760     0.723337524302
    C            4.635393862252    -1.557659086345    -0.659602312673
    H            4.753823500821    -1.433736515842    -1.726329941209
    H            5.037807379848    -2.508194174992    -0.345832390064
    H            5.140249009761    -0.749736948630    -0.149982063738

  Mulliken Charges: (a.u.)
   Center  Symbol    Alpha    Beta     Spin     Total
       1     O     4.28755  4.28755  0.00000 -0.57509
       2     C     2.60945  2.60945  0.00000  0.78110
       3     C     3.20388  3.20388  0.00000 -0.40776
       4     O     4.30332  4.30332  0.00000 -0.60664
       5     C     3.16390  3.16390  0.00000 -0.32780
       6     H     0.39927  0.39927  0.00000  0.20145
       7     H     0.40160  0.40160  0.00000  0.19680
       8     C     3.15489  3.15489  0.00000 -0.30977
       9     H     0.40449  0.40449  0.00000  0.19102
      10     H     0.41543  0.41543  0.00000  0.16913
      11     C     3.15533  3.15533  0.00000 -0.31067
      12     H     0.41829  0.41829  0.00000  0.16342
      13     H     0.42253  0.42253  0.00000  0.15494
      14     C     3.15055  3.15055  0.00000 -0.30111
      15     H     0.42083  0.42083  0.00000  0.15834
      16     H     0.42301  0.42301  0.00000  0.15399
      17     C     3.15157  3.15157  0.00000 -0.30314
      18     H     0.42343  0.42343  0.00000  0.15313
      19     H     0.42400  0.42400  0.00000  0.15200
      20     C     3.23941  3.23941  0.00000 -0.47881
      21     H     0.42230  0.42230  0.00000  0.15540
      22     H     0.42320  0.42320  0.00000  0.15360
      23     H     0.41904  0.41904  0.00000  0.16193
      24     H     0.42161  0.42161  0.00000  0.15678
      25     H     0.42190  0.42190  0.00000  0.15620
      26     C     3.09354  3.09354  0.00000 -0.18708
      27     H     0.40852  0.40852  0.00000  0.18296
      28     H     0.40852  0.40852  0.00000  0.18296
      29     H     0.40864  0.40864  0.00000  0.18272

   Total alpha = 44.00000, Total beta = 44.00000, Total charge = -0.00000
