                              Psi4 1.0.54 Driver

  ==> Input File <==

--------------------------------------------------------------------------
set {
	reference rhf
	basis cc-pvtz
}

set_num_threads( 4 )
memory 2 gb

molecule MOL {
0 1

H	 3.291742	 -0.440811	 -0.039362
C	 2.234314	 -0.257172	 -0.030022
C	 1.529952	 -0.346991	 1.161254
C	 1.583565	 0.066934	 -1.203477
H	 2.042717	 -0.599367	 2.069093
C	 0.173339	 -0.112177	 1.177608
H	 2.130963	 0.135669	 -2.123317
C	 0.221080	 0.302480	 -1.185462
H	 -0.388307	 -0.176746	 2.088125
C	 -0.486398	 0.214248	 0.000000
H	 -0.291734	 0.555177	 -2.095045
C	 -1.946525	 0.470130	 0.000000
O	 -2.779618	 -0.371226	 0.000000
H	 -2.227127	 1.528393	 0.000000

	symmetry c1
}
set optking {
	frozen_dihedral = ("
		8 10 12 14
	")
}

ee,wfn = optimize('scf', return_wfn=True)
oeprop( wfn, 'DIPOLE', 'QUADRUPOLE', 'MULLIKEN_CHARGES')
f=open( 'psi4out.xyz', 'w' )
f.write( "14  " )
f.write( str(ee) + "\n" )
f.write( MOL.save_string_xyz() )
f.close()
--------------------------------------------------------------------------

    Molecular point group: c1
  Charge       = 0
  Multiplicity = 1
  Basis Set: CC-PVTZ
  Basis Set:
  @DF-RHF Final Energy:  -343.53707474406195
    Total Energy =                       -343.5370747440620107
    Molecular point group: c1
  Basis Set: CC-PVTZ
  Basis Set:
  Basis Set: CC-PVTZ
  Basis Set:
  @DF-RHF Final Energy:  -343.53669285262418
    Total Energy =                       -343.5366928526240713
  Basis Set: CC-PVTZ
  Basis Set:
  Basis Set: CC-PVTZ
  Basis Set:
  @DF-RHF Final Energy:  -343.53716531129953
    Total Energy =                       -343.5371653112991908
  Basis Set: CC-PVTZ
  Basis Set:
  Basis Set: CC-PVTZ
  Basis Set:
  @DF-RHF Final Energy:  -343.53751460946182
    Total Energy =                       -343.5375146094618231
  Basis Set: CC-PVTZ
  Basis Set:
  Charge       = 0
  Multiplicity = 1
  Basis Set: CC-PVTZ
  Basis Set:

    Orbital Energies (a.u.)
    -----------------------

    Doubly Occupied:

       1A    -20.563853     2A    -11.332856     3A    -11.251032
       4A    -11.245829     5A    -11.244934     6A    -11.242687
       7A    -11.242027     8A    -11.240525     9A     -1.418100
      10A     -1.174588    11A     -1.048923    12A     -1.033189
      13A     -0.890192    14A     -0.844877    15A     -0.798390
      16A     -0.725516    17A     -0.681140    18A     -0.656923
      19A     -0.645872    20A     -0.620579    21A     -0.603950
      22A     -0.540361    23A     -0.532102    24A     -0.518021
      25A     -0.505844    26A     -0.426256    27A     -0.352006
      28A     -0.351234

  @DF-RHF Final Energy:  -343.53752147782006

   => Energetics <=

    Nuclear Repulsion Energy =            323.2299823979815301
    One-Electron Energy =               -1106.0714026786840805
    Two-Electron Energy =                 439.3038988028823155
    DFT Exchange-Correlation Energy =       0.0000000000000000
    Empirical Dispersion Energy =           0.0000000000000000
    PCM Polarization Energy =               0.0000000000000000
    EFP Energy =                            0.0000000000000000
    Total Energy =                       -343.5375214778202348
    Molecular point group: c1
  Basis Set: CC-PVTZ
  Basis Set:

  -Total Gradient:
     Atom            X                  Y                   Z
    ------   -----------------  -----------------  -----------------
       1       -0.000003887320     0.000001669048     0.000028856286
       2        0.000011428230     0.000060667742    -0.000341769389
       3       -0.000317126546     0.000041506310     0.000151362060
       4        0.000279182155    -0.000124117856     0.000144516650
       5        0.000026035176    -0.000008646117    -0.000012712505
       6        0.000287503406    -0.000099724551     0.000145828254
       7       -0.000008585600     0.000005797270    -0.000009844963
       8       -0.000689786502    -0.002398910102    -0.000299267595
       9       -0.000019155180     0.000024574694    -0.000031078485
      10        0.000434934022     0.003668582770     0.001423699311
      11        0.000011251772    -0.000000775603     0.000010138588
      12       -0.000034956954    -0.001056229611    -0.004237441394
      13       -0.000018577582    -0.000077267996    -0.000027294302
      14        0.000041740914    -0.000037126000     0.003055007485

  **** Optimization is complete! (in 5 steps) ****
    Final optimized geometry and variables:
    Molecular point group: c1

    Geometry (in Angstrom), charge = 0, multiplicity = 1:

    H            3.295069964917    -0.447914032398    -0.027267629889
    C            2.239444549454    -0.255700946154    -0.020825552506
    C            1.528138750850    -0.340363420784     1.161460470564
    C            1.588568055857     0.072292203951    -1.194615574923
    H            2.030093804319    -0.600648240635     2.073402362261
    C            0.167824782983    -0.100260390793     1.171106065079
    H            2.135712504323     0.130389893286    -2.115793565320
    C            0.229719478997     0.324068936774    -1.185702147481
    H           -0.386809187293    -0.183115128525     2.086281752334
    C           -0.482367033400     0.240118215766    -0.002410551261
    H           -0.272841515868     0.578607933291    -2.100175556607
    C           -1.961928272421     0.481693837580     0.005186994435
    O           -2.767987885884    -0.380010376582     0.054683564692
    H           -2.275711706659     1.530842956088    -0.000842364417

  Mulliken Charges: (a.u.)
   Center  Symbol    Alpha    Beta     Spin     Total
       1     H     0.42088  0.42088  0.00000  0.15825
       2     C     3.08364  3.08364  0.00000 -0.16729
       3     C     3.06314  3.06314  0.00000 -0.12627
       4     C     3.06428  3.06428  0.00000 -0.12855
       5     H     0.42111  0.42111  0.00000  0.15779
       6     C     3.09699  3.09699  0.00000 -0.19399
       7     H     0.42099  0.42099  0.00000  0.15802
       8     C     3.09723  3.09723  0.00000 -0.19447
       9     H     0.42105  0.42105  0.00000  0.15790
      10     C     2.94019  2.94019  0.00000  0.11962
      11     H     0.42412  0.42412  0.00000  0.15175
      12     C     2.93350  2.93350  0.00000  0.13301
      13     O     4.15530  4.15530  0.00000 -0.31060
      14     H     0.45758  0.45758  0.00000  0.08483

   Total alpha = 28.00000, Total beta = 28.00000, Total charge = -0.00000

*** Psi4 exiting successfully. Buy a developer a beer!
