                              Psi4 1.0.54 Driver

  ==> Input File <==

--------------------------------------------------------------------------
set {
	reference rhf
	basis cc-pvtz
}

set_num_threads( 4 )
memory 2 gb

molecule MOL {
0 1

H	 -2.816458	 -0.841657	 -0.064679
N	 -1.878861	 -0.711874	 0.250184
C	 -1.341419	 0.551458	 -0.220231
H	 -1.333674	 -1.468530	 -0.105118
C	 0.082190	 0.731516	 0.254705
H	 -1.357065	 0.652078	 -1.304747
H	 -1.939897	 1.357530	 0.189797
O	 0.881195	 -0.248324	 -0.336237
H	 0.440901	 1.722476	 -0.020063
H	 0.119896	 0.643586	 1.338114
C	 0.200022	 -1.114223	 -1.182075
H	 0.913084	 -1.824448	 -1.575152
H	 -0.578317	 -1.658379	 -0.651248
H	 -0.257971	 -0.581371	 -2.012059

	symmetry c1
}
set optking {
	frozen_dihedral = ("
		11 8 5 3
	")
}

ee,wfn = optimize('scf', return_wfn=True)
oeprop( wfn, 'DIPOLE', 'QUADRUPOLE', 'MULLIKEN_CHARGES')
f=open( 'psi4out.xyz', 'w' )
f.write( "14  " )
f.write( str(ee) + "\n" )
f.write( MOL.save_string_xyz() )
f.close()
--------------------------------------------------------------------------

    Molecular point group: c1
  Charge       = 0
  Multiplicity = 1
  Basis Set: CC-PVTZ
  Basis Set:
  @DF-RHF Final Energy:  -248.13363584880244
    Total Energy =                       -248.1336358488024416
    Molecular point group: c1
  Basis Set: CC-PVTZ
  Basis Set:
  Basis Set: CC-PVTZ
  Basis Set:
  @DF-RHF Final Energy:  -248.19095383767279
    Total Energy =                       -248.1909538376726232
  Basis Set: CC-PVTZ
  Basis Set:
  Basis Set: CC-PVTZ
  Basis Set:
  @DF-RHF Final Energy:  -248.20419754840412
    Total Energy =                       -248.2041975484041814
  Basis Set: CC-PVTZ
  Basis Set:
  Basis Set: CC-PVTZ
  Basis Set:
  @DF-RHF Final Energy:  -248.20722876358940
    Total Energy =                       -248.2072287635893986
  Basis Set: CC-PVTZ
  Basis Set:
  @DF-RHF Final Energy:  -248.20899504321849
    Total Energy =                       -248.2089950432184082
  @DF-RHF Final Energy:  -248.21000400749060
    Total Energy =                       -248.2100040074907383
  @DF-RHF Final Energy:  -248.21028054946751
    Total Energy =                       -248.2102805494675977
  @DF-RHF Final Energy:  -248.21042564913364
    Total Energy =                       -248.2104256491337537
  @DF-RHF Final Energy:  -248.21051484569520
    Total Energy =                       -248.2105148456949451
  @DF-RHF Final Energy:  -248.21060996768446
    Total Energy =                       -248.2106099676844906
  @DF-RHF Final Energy:  -248.21063402056009
    Total Energy =                       -248.2106340205598940
  Basis Set: CC-PVTZ
  Basis Set:
  @DF-RHF Final Energy:  -248.21073966942774
    Total Energy =                       -248.2107396694277668
  Basis Set: CC-PVTZ
  Basis Set:
  Basis Set: CC-PVTZ
  Basis Set:
  @DF-RHF Final Energy:  -248.21075912517736
    Total Energy =                       -248.2107591251773329
  Basis Set: CC-PVTZ
  Basis Set:
  Basis Set: CC-PVTZ
  Basis Set:
  @DF-RHF Final Energy:  -248.21076147582761
    Total Energy =                       -248.2107614758275531
  Basis Set: CC-PVTZ
  Basis Set:
  Charge       = 0
  Multiplicity = 1
  Basis Set: CC-PVTZ
  Basis Set:

    Orbital Energies (a.u.)
    -----------------------

    Doubly Occupied:

       1A    -20.541636     2A    -15.534627     3A    -11.264800
       4A    -11.263185     5A    -11.249188     6A     -1.370807
       7A     -1.184756     8A     -1.003573     9A     -0.923698
      10A     -0.805111    11A     -0.687895    12A     -0.676313
      13A     -0.644308    14A     -0.614812    15A     -0.611125
      16A     -0.548549    17A     -0.536315    18A     -0.520949
      19A     -0.453715    20A     -0.408424    21A     -0.392450

  @DF-RHF Final Energy:  -248.21076163126679

   => Energetics <=

    Nuclear Repulsion Energy =            196.5726163689434998
    One-Electron Energy =                -727.0942788413221933
    Two-Electron Energy =                 282.3109008411117884
    DFT Exchange-Correlation Energy =       0.0000000000000000
    Empirical Dispersion Energy =           0.0000000000000000
    PCM Polarization Energy =               0.0000000000000000
    EFP Energy =                            0.0000000000000000
    Total Energy =                       -248.2107616312669052
    Molecular point group: c1
  Basis Set: CC-PVTZ
  Basis Set:

  -Total Gradient:
     Atom            X                  Y                   Z
    ------   -----------------  -----------------  -----------------
       1        0.000035689276    -0.000014931050     0.000005679431
       2       -0.000058456272    -0.000010882113     0.000019071390
       3        0.000130424553     0.000326142231    -0.000343628692
       4        0.000006621482     0.000009183716    -0.000005252392
       5       -0.000239959520    -0.000664734783     0.000682649779
       6        0.000005746879    -0.000003511550     0.000002365073
       7       -0.000004516809    -0.000008935994    -0.000002182231
       8        0.000275696595     0.000706226267    -0.000731979233
       9        0.000001251174     0.000006200020     0.000006840987
      10       -0.000004566874     0.000004399466    -0.000000913929
      11       -0.000114676068    -0.000353176111     0.000361323766
      12        0.000007255555    -0.000002355357    -0.000001363038
      13       -0.000039538303    -0.000009861546     0.000017289267
      14       -0.000000971664     0.000016236805    -0.000009900181

  **** Optimization is complete! (in 15 steps) ****
    Final optimized geometry and variables:
    Molecular point group: c1

    Geometry (in Angstrom), charge = 0, multiplicity = 1:

    H           -2.734190615367    -0.020719215732     0.484343250917
    N           -1.767621956194    -0.225975484191     0.620966193163
    C           -0.934988513351     0.844874815249     0.096840273721
    H           -1.586309761719    -1.096934828159     0.172990558882
    C            0.519054894042     0.747051159532     0.532882612060
    H           -1.000975504043     0.960525524587    -0.983134491187
    H           -1.300082987427     1.771752262723     0.524164765149
    O            1.354933730694    -0.202804433412    -0.085022755224
    H            0.976766473943     1.716717140264     0.364577180762
    H            0.535948893800     0.550947619678     1.598019881998
    C            0.899554712113    -1.055654062642    -1.080288212403
    H            1.767464529573    -1.570820583446    -1.466893777634
    H            0.211485732089    -1.807127057079    -0.702901850382
    H            0.427676783396    -0.531202589350    -1.904910331319

  Mulliken Charges: (a.u.)
   Center  Symbol    Alpha    Beta     Spin     Total
       1     H     0.42789  0.42789  0.00000  0.14422
       2     N     3.68840  3.68840  0.00000 -0.37681
       3     C     3.06381  3.06381  0.00000 -0.12761
       4     H     0.42790  0.42790  0.00000  0.14420
       5     C     2.95772  2.95772  0.00000  0.08455
       6     H     0.45582  0.45582  0.00000  0.08836
       7     H     0.44648  0.44648  0.00000  0.10705
       8     O     4.18324  4.18324  0.00000 -0.36648
       9     H     0.46551  0.46551  0.00000  0.06897
      10     H     0.46204  0.46204  0.00000  0.07593
      11     C     3.03715  3.03715  0.00000 -0.07429
      12     H     0.43871  0.43871  0.00000  0.12259
      13     H     0.47527  0.47527  0.00000  0.04946
      14     H     0.47007  0.47007  0.00000  0.05986

   Total alpha = 21.00000, Total beta = 21.00000, Total charge =  0.00000

*** Psi4 exiting successfully. Buy a developer a beer!
