  ==> Input File <==

--------------------------------------------------------------------------
set {
	reference rhf
	basis 6-31G*
}

set_num_threads( 4 )
memory 2 gb

molecule MOL {
0 1

H	 -3.042581	 -0.665861	 0.004336
O	 -2.245037	 -1.176175	 0.000806
C	 -1.162163	 -0.365336	 0.001020
C	 0.037809	 -0.728012	 -0.583671
C	 -1.294839	 0.869812	 0.623625
H	 0.142956	 -1.686122	 -1.064236
C	 1.104486	 0.158628	 -0.539176
H	 -2.240657	 1.118021	 1.069651
C	 -0.230951	 1.753798	 0.666319
H	 2.039815	 -0.121129	 -0.990770
C	 0.979370	 1.386981	 0.077644
C	 -0.381173	 3.106808	 1.321985
H	 1.816233	 2.062394	 0.106057
H	 0.485725	 3.345765	 1.928763
H	 -1.257476	 3.143104	 1.958096
H	 -0.481773	 3.888151	 0.573835

	symmetry c1
}
set optking {
	frozen_dihedral = ("
		5 3 2 1
	")
}

ee = optimize('scf')
oeprop('DIPOLE', 'QUADRUPOLE', 'MULLIKEN_CHARGES')
f=open( 'psi4out.xyz', 'w' )
f.write( "16  " )
f.write( str(ee) + "\n" )
f.write( MOL.save_string_xyz() )
f.close()
--------------------------------------------------------------------------

    Molecular point group: c1
  Charge       = 0
  Multiplicity = 1
  Basis Set: 6-31G*
  Basis Set:
  @DF-RHF Final Energy:  -344.59203366282657
    Total Energy =                       -344.5920336628269069
    Molecular point group: c1
  Basis Set: 6-31G*
  Basis Set:
  Basis Set: 6-31G*
  Basis Set:
  @DF-RHF Final Energy:  -344.59375261637541
    Total Energy =                       -344.5937526163756388
  Basis Set: 6-31G*
  Basis Set:
  Basis Set: 6-31G*
  Basis Set:
  @DF-RHF Final Energy:  -344.59389142348431
    Total Energy =                       -344.5938914234844788
  Basis Set: 6-31G*
  Basis Set:
  Basis Set: 6-31G*
  Basis Set:
  @DF-RHF Final Energy:  -344.59390869699195
    Total Energy =                       -344.5939086969918890
  Basis Set: 6-31G*
  Basis Set:
  Basis Set: 6-31G*
  Basis Set:
  @DF-RHF Final Energy:  -344.59391399379746
    Total Energy =                       -344.5939139937975142
  Basis Set: 6-31G*
  Basis Set:
  Basis Set: 6-31G*
  Basis Set:
  @DF-RHF Final Energy:  -344.59391655954386
    Total Energy =                       -344.5939165595437998
  Basis Set: 6-31G*
  Basis Set:
  Charge       = 0
  Multiplicity = 1
  Basis Set: 6-31G*
  Basis Set:

    Orbital Energies (a.u.)
    -----------------------

    Doubly Occupied:

       1A    -20.585608     2A    -11.293826     3A    -11.243401
       4A    -11.232706     5A    -11.223272     6A    -11.222473
       7A    -11.217301     8A    -11.217129     9A     -1.403298
      10A     -1.149899    11A     -1.044017    12A     -1.003202
      13A     -0.938209    14A     -0.838228    15A     -0.799438
      16A     -0.726235    17A     -0.678912    18A     -0.648504
      19A     -0.605255    20A     -0.592445    21A     -0.576923
      22A     -0.566942    23A     -0.560971    24A     -0.531827
      25A     -0.502983    26A     -0.481912    27A     -0.466324
      28A     -0.330103    29A     -0.307406

  @DF-RHF Final Energy:  -344.59391729680755

   => Energetics <=

    Nuclear Repulsion Energy =            345.4384391206484111
    One-Electron Energy =               -1152.0872184028137326
    Two-Electron Energy =                 462.0548619853580021
    DFT Exchange-Correlation Energy =       0.0000000000000000
    Empirical Dispersion Energy =           0.0000000000000000
    PCM Polarization Energy =               0.0000000000000000
    EFP Energy =                            0.0000000000000000
    Total Energy =                       -344.5939172968073763
    Molecular point group: c1
  Basis Set: 6-31G*
  Basis Set:

  -Total Gradient:
     Atom            X                  Y                   Z
    ------   -----------------  -----------------  -----------------
       1        0.000008017561     0.000071682011    -0.002338260723
       2        0.000273144586    -0.000494041417     0.003730286637
       3       -0.000933041414     0.001152460831    -0.002899590083
       4        0.000092197773     0.000046219961     0.000008971242
       5        0.000579536140    -0.000752695505     0.001546527862
       6        0.000011259299     0.000001320741     0.000000615558
       7       -0.000038256969    -0.000091276259    -0.000021813791
       8       -0.000008892246    -0.000003461398     0.000004983510
       9        0.000063169607     0.000025311479    -0.000018225297
      10        0.000008340074     0.000007826473    -0.000003296457
      11       -0.000051841443     0.000072132724     0.000005031057
      12       -0.000021390560    -0.000002534348    -0.000004511110
      13        0.000012173195    -0.000014555943    -0.000014075040
      14       -0.000009268197    -0.000026372035     0.000025407765
      15       -0.000019630769     0.000011272865    -0.000020433468
      16        0.000034483366    -0.000003290176    -0.000001617661

  **** Optimization is complete! (in 7 steps) ****
    Final optimized geometry and variables:
    Molecular point group: c1

    Geometry (in Angstrom), charge = 0, multiplicity = 1:

    H           -2.578783264058    -1.392215092276    -0.227968454152
    O           -1.747266089684    -1.844952951141    -0.242126180933
    C           -0.721112965530    -0.956965317093    -0.212283839368
    C            0.479892089917    -1.335533635420    -0.787647914416
    C           -0.840038398342     0.272698642793     0.418352862386
    H            0.555834764918    -2.295403672867    -1.263207678506
    C            1.553188028568    -0.464325294060    -0.731635318961
    H           -1.775561176647     0.540108069479     0.881335128987
    C            0.233218042014     1.152900843128     0.463525369244
    H            2.489745269156    -0.752146775266    -1.175607623271
    C            1.437111378946     0.771348933252    -0.116739327968
    C            0.090886415067     2.505720658674     1.121747468959
    H            2.282131507397     1.436545133504    -0.085133132495
    H            0.970492909008     2.750531867172     1.707093711062
    H           -0.769417999540     2.537896302334     1.780269616519
    H           -0.033731273878     3.286585300852     0.376576335013

  Mulliken Charges: (a.u.)
   Center  Symbol    Alpha    Beta     Spin     Total
       1     H     0.27248  0.27248  0.00000  0.45504
       2     O     4.38113  4.38113  0.00000 -0.76227
       3     C     2.79337  2.79337  0.00000  0.41326
       4     C     3.12711  3.12711  0.00000 -0.25422
       5     C     3.15612  3.15612  0.00000 -0.31224
       6     H     0.39286  0.39286  0.00000  0.21428
       7     C     3.08884  3.08884  0.00000 -0.17769
       8     H     0.40555  0.40555  0.00000  0.18891
       9     C     2.96918  2.96918  0.00000  0.06164
      10     H     0.39854  0.39854  0.00000  0.20292
      11     C     3.12366  3.12366  0.00000 -0.24733
      12     C     3.25473  3.25473  0.00000 -0.50945
      13     H     0.40327  0.40327  0.00000  0.19346
      14     H     0.41071  0.41071  0.00000  0.17858
      15     H     0.41340  0.41340  0.00000  0.17319
      16     H     0.40904  0.40904  0.00000  0.18192

   Total alpha = 29.00000, Total beta = 29.00000, Total charge =  0.00000
