                              Psi4 1.0.54 Driver

  ==> Input File <==

--------------------------------------------------------------------------
set {
	reference rhf
	basis cc-pvtz
}

set_num_threads( 4 )
memory 2 gb

molecule MOL {
0 1

O	 -2.081319	 -0.951530	 -0.502732
N	 -1.613558	 0.006676	 0.014756
C	 -0.329345	 -0.171618	 0.743966
O	 -2.068523	 1.100482	 -0.024385
C	 0.835904	 0.041968	 -0.213982
H	 -0.346048	 -1.174374	 1.137184
H	 -0.333613	 0.555559	 1.538590
C	 1.406379	 1.452422	 -0.090112
H	 1.606246	 -0.689625	 0.000264
H	 0.494293	 -0.131885	 -1.227794
C	 2.570520	 1.695107	 -1.044240
H	 1.734998	 1.620481	 0.931261
H	 0.621839	 2.177527	 -0.285373
H	 3.384763	 1.005783	 -0.850488
H	 2.263813	 1.564723	 -2.076058
H	 2.955400	 2.701862	 -0.937127

	symmetry c1
}
set optking {
	frozen_dihedral = ("
		9 5 3 2
	")
}

ee,wfn = optimize('scf', return_wfn=True)
oeprop( wfn, 'DIPOLE', 'QUADRUPOLE', 'MULLIKEN_CHARGES')
f=open( 'psi4out.xyz', 'w' )
f.write( "16  " )
f.write( str(ee) + "\n" )
f.write( MOL.save_string_xyz() )
f.close()
--------------------------------------------------------------------------

    Molecular point group: c1
  Charge       = 0
  Multiplicity = 1
  Basis Set: CC-PVTZ
  Basis Set:
  @DF-RHF Final Energy:  -360.90528536414388
    Total Energy =                       -360.9052853641437650
    Molecular point group: c1
  Basis Set: CC-PVTZ
  Basis Set:
  Basis Set: CC-PVTZ
  Basis Set:
  @DF-RHF Final Energy:  -360.90494667250306
    Total Energy =                       -360.9049466725030584
  Basis Set: CC-PVTZ
  Basis Set:
  Basis Set: CC-PVTZ
  Basis Set:
  @DF-RHF Final Energy:  -360.90070073768118
    Total Energy =                       -360.9007007376815181
  Basis Set: CC-PVTZ
  Basis Set:
  Basis Set: CC-PVTZ
  Basis Set:
  @DF-RHF Final Energy:  -360.90553998881825
    Total Energy =                       -360.9055399888177931
  Basis Set: CC-PVTZ
  Basis Set:
  Basis Set: CC-PVTZ
  Basis Set:
  @DF-RHF Final Energy:  -360.90570613318579
    Total Energy =                       -360.9057061331856175
  Basis Set: CC-PVTZ
  Basis Set:
  Basis Set: CC-PVTZ
  Basis Set:
  @DF-RHF Final Energy:  -360.90595218081256
    Total Energy =                       -360.9059521808127897
  Basis Set: CC-PVTZ
  Basis Set:
  Charge       = 0
  Multiplicity = 1
  Basis Set: CC-PVTZ
  Basis Set:

    Orbital Energies (a.u.)
    -----------------------

    Doubly Occupied:

       1A    -20.590288     2A    -20.590020     3A    -15.836457
       4A    -11.296843     5A    -11.251736     6A    -11.234735
       7A    -11.222062     8A     -1.635552     9A     -1.419713
      10A     -1.134142    11A     -1.056621    12A     -0.947497
      13A     -0.848260    14A     -0.824119    15A     -0.762671
      16A     -0.736650    17A     -0.727817    18A     -0.649416
      19A     -0.637368    20A     -0.602880    21A     -0.560705
      22A     -0.555607    23A     -0.506753    24A     -0.499247
      25A     -0.496730    26A     -0.479746    27A     -0.471416
      28A     -0.453041

  @DF-RHF Final Energy:  -360.90595275133018

   => Energetics <=

    Nuclear Repulsion Energy =            317.0564213253138064
    One-Electron Energy =               -1119.8685623885244240
    Two-Electron Energy =                 441.9061883118808964
    DFT Exchange-Correlation Energy =       0.0000000000000000
    Empirical Dispersion Energy =           0.0000000000000000
    PCM Polarization Energy =               0.0000000000000000
    EFP Energy =                            0.0000000000000000
    Total Energy =                       -360.9059527513297780
    Molecular point group: c1
  Basis Set: CC-PVTZ
  Basis Set:

  -Total Gradient:
     Atom            X                  Y                   Z
    ------   -----------------  -----------------  -----------------
       1       -0.000051386893    -0.000029897945    -0.000050529720
       2        0.000120767808    -0.002454008210    -0.000725952583
       3       -0.000374967349     0.002821697901     0.000415868800
       4       -0.000021739181     0.000028720114    -0.000013829612
       5        0.001581105080     0.001668259113     0.002747019173
       6        0.000022281476    -0.000003027518     0.000008228542
       7        0.000027317396     0.000008321038     0.000019843718
       8        0.000031417866     0.000007686632     0.000055181168
       9       -0.001306352052    -0.002055415039    -0.002433461741
      10       -0.000010211187    -0.000005745382    -0.000004039197
      11       -0.000025582602    -0.000005790759    -0.000028439016
      12        0.000008254793     0.000012046660     0.000005668035
      13        0.000005294709     0.000008712847     0.000013105126
      14       -0.000003076701     0.000000593176     0.000011066775
      15        0.000008580176    -0.000001922273    -0.000018717074
      16       -0.000011703338    -0.000000230354    -0.000001012394

  **** Optimization is complete! (in 7 steps) ****
    Final optimized geometry and variables:
    Molecular point group: c1

    Geometry (in Angstrom), charge = 0, multiplicity = 1:

    O           -1.812458153444    -1.427121033702    -0.460102476980
    N           -1.391241943848    -0.492400728908     0.134263565643
    C           -0.123082700027    -0.681489080310     0.889547766217
    O           -1.881305329128     0.587564470366     0.151555222186
    C            1.077167217515    -0.360359189995    -0.011512440478
    H           -0.128509106053    -1.713999244173     1.192384493145
    H           -0.180449451533    -0.031571969789     1.746376922938
    C            1.612601596919     1.058743519872     0.150042358309
    H            1.850807596544    -1.090986072712     0.193273262170
    H            0.790026325242    -0.534334462810    -1.042705720827
    C            2.778964483974     1.350870205036    -0.786683747958
    H            1.928022127065     1.205687524284     1.179084816965
    H            0.810870071415     1.765850901627    -0.031298666897
    H            3.605878858457     0.671404759948    -0.609002994005
    H            2.482279152440     1.247434216706    -1.824643686521
    H            3.144438390947     2.360725510633    -0.646340837794

  Mulliken Charges: (a.u.)
   Center  Symbol    Alpha    Beta     Spin     Total
       1     O     4.17230  4.17230  0.00000 -0.34459
       2     N     3.27646  3.27646  0.00000  0.44708
       3     C     3.04935  3.04935  0.00000 -0.09870
       4     O     4.17424  4.17424  0.00000 -0.34849
       5     C     3.10046  3.10046  0.00000 -0.20091
       6     H     0.42614  0.42614  0.00000  0.14772
       7     H     0.43494  0.43494  0.00000  0.13012
       8     C     3.08624  3.08624  0.00000 -0.17248
       9     H     0.44377  0.44377  0.00000  0.11246
      10     H     0.44018  0.44018  0.00000  0.11965
      11     C     3.15018  3.15018  0.00000 -0.30036
      12     H     0.45365  0.45365  0.00000  0.09271
      13     H     0.44072  0.44072  0.00000  0.11855
      14     H     0.45504  0.45504  0.00000  0.08992
      15     H     0.45155  0.45155  0.00000  0.09690
      16     H     0.44479  0.44479  0.00000  0.11042

   Total alpha = 28.00000, Total beta = 28.00000, Total charge =  0.00000

*** Psi4 exiting successfully. Buy a developer a beer!
