                              Psi4 1.0.54 Driver

  ==> Input File <==

--------------------------------------------------------------------------
set {
	reference rhf
	basis cc-pvtz
}

set_num_threads( 4 )
memory 2 gb

molecule MOL {
0 1

O	 1.229482	 1.282584	 -0.222202
C	 1.121787	 0.124983	 0.000110
C	 -0.170912	 -0.649867	 -0.000147
O	 2.150595	 -0.656670	 0.284630
C	 -1.413045	 0.229353	 0.001137
H	 -0.152877	 -1.303435	 -0.866175
H	 -0.152278	 -1.305116	 0.864586
C	 -2.702562	 -0.586401	 0.000228
H	 -1.390744	 0.882001	 -0.864365
H	 -1.390549	 0.879837	 0.868264
C	 -3.953810	 0.284959	 -0.000782
H	 -2.717793	 -1.238567	 -0.869075
H	 -2.719108	 -1.238472	 0.869576
H	 -3.983727	 0.924403	 -0.876454
H	 -4.852989	 -0.320147	 -0.001515
H	 -3.985140	 0.924399	 0.874841
C	 3.430349	 -0.058040	 0.319109
H	 3.677453	 0.369311	 -0.641379
H	 4.121846	 -0.847806	 0.563997
H	 3.468638	 0.717140	 1.070010

	symmetry c1
}
set optking {
	frozen_dihedral = ("
		1 2 3 6
	")
}

ee,wfn = optimize('scf', return_wfn=True)
oeprop( wfn, 'DIPOLE', 'QUADRUPOLE', 'MULLIKEN_CHARGES')
f=open( 'psi4out.xyz', 'w' )
f.write( "20  " )
f.write( str(ee) + "\n" )
f.write( MOL.save_string_xyz() )
f.close()
--------------------------------------------------------------------------

    Molecular point group: c1
  Charge       = 0
  Multiplicity = 1
  Basis Set: CC-PVTZ
  Basis Set:
  @DF-RHF Final Energy:  -384.08307798392229
    Total Energy =                       -384.0830779839225215
    Molecular point group: c1
  Basis Set: CC-PVTZ
  Basis Set:
  Basis Set: CC-PVTZ
  Basis Set:
  @DF-RHF Final Energy:  -384.08255271747367
    Total Energy =                       -384.0825527174740728
  Basis Set: CC-PVTZ
  Basis Set:
  Basis Set: CC-PVTZ
  Basis Set:
  @DF-RHF Final Energy:  -384.08313671021131
    Total Energy =                       -384.0831367102114200
  Basis Set: CC-PVTZ
  Basis Set:
  Basis Set: CC-PVTZ
  Basis Set:
  @DF-RHF Final Energy:  -384.08316086213409
    Total Energy =                       -384.0831608621340365
  Basis Set: CC-PVTZ
  Basis Set:
  Charge       = 0
  Multiplicity = 1
  Basis Set: CC-PVTZ
  Basis Set:

    Orbital Energies (a.u.)
    -----------------------

    Doubly Occupied:

       1A    -20.596671     2A    -20.533993     3A    -11.364731
       4A    -11.278558     5A    -11.233925     6A    -11.218548
       7A    -11.217555     8A    -11.208841     9A     -1.472419
      10A     -1.365831    11A     -1.090056    12A     -1.025472
      13A     -0.970017    14A     -0.886503    15A     -0.804625
      16A     -0.769839    17A     -0.699013    18A     -0.686762
      19A     -0.675901    20A     -0.647256    21A     -0.598959
      22A     -0.592793    23A     -0.579836    24A     -0.542180
      25A     -0.537368    26A     -0.524269    27A     -0.501353
      28A     -0.478822    29A     -0.475340    30A     -0.471386
      31A     -0.459674    32A     -0.439836

  @DF-RHF Final Energy:  -384.08316152338972

   => Energetics <=

    Nuclear Repulsion Energy =            381.7281173376798620
    One-Electron Energy =               -1279.7258942251091867
    Two-Electron Energy =                 513.9146153640398325
    DFT Exchange-Correlation Energy =       0.0000000000000000
    Empirical Dispersion Energy =           0.0000000000000000
    PCM Polarization Energy =               0.0000000000000000
    EFP Energy =                            0.0000000000000000
    Total Energy =                       -384.0831615233895491
    Molecular point group: c1
  Basis Set: CC-PVTZ
  Basis Set:

  -Total Gradient:
     Atom            X                  Y                   Z
    ------   -----------------  -----------------  -----------------
       1        0.000144129435    -0.000203853350    -0.000496670206
       2       -0.000204289834     0.000318630478     0.000719718700
       3        0.000259788108    -0.000461507379     0.000028273857
       4        0.000026335082     0.000034037855     0.000021658016
       5       -0.000018695495    -0.000002207554     0.000034016653
       6       -0.000218157094     0.000325341040    -0.000266594793
       7        0.000011509357     0.000015392114    -0.000008963491
       8        0.000000901169    -0.000001190569    -0.000009545713
       9        0.000007198881    -0.000006977168    -0.000001086688
      10       -0.000000631195     0.000002460189    -0.000007209656
      11        0.000004368485     0.000000833908     0.000011870061
      12       -0.000002051972    -0.000002475421    -0.000002154814
      13       -0.000002060727    -0.000003109013    -0.000001881407
      14        0.000001499686    -0.000002489883     0.000000512030
      15       -0.000000095301    -0.000001260541     0.000002495670
      16       -0.000001459701     0.000003281530    -0.000001471301
      17        0.000012134100    -0.000026920531    -0.000041826626
      18       -0.000005574524     0.000008396676     0.000010689158
      19        0.000022537843     0.000005668407     0.000008605840
      20       -0.000037386298    -0.000002050789    -0.000000435290

  **** Optimization is complete! (in 5 steps) ****
    Final optimized geometry and variables:
    Molecular point group: c1

    Geometry (in Angstrom), charge = 0, multiplicity = 1:

    O            1.229182171661     1.283582544406    -0.206373342808
    C            1.122830413787     0.125207496516     0.012675328372
    C           -0.165845268150    -0.655935007525    -0.023282575039
    O            2.151964410842    -0.654224977512     0.301570091821
    C           -1.409845533912     0.219470311889    -0.085598817262
    H           -0.109639756000    -1.305108546406    -0.892446581958
    H           -0.183403594387    -1.311195374844     0.839573805189
    C           -2.695278722874    -0.600494741757    -0.145352808093
    H           -1.346485914589     0.869540864198    -0.950091289886
    H           -1.432607458190     0.872108110179     0.780873273496
    C           -3.948031985546     0.266758445995    -0.203822993414
    H           -2.667927848106    -1.251970490112    -1.014895337415
    H           -2.749909198555    -1.253334599223     0.721816040595
    H           -3.939412927443     0.906694249048    -1.079559598918
    H           -4.844185098864    -0.341317920512    -0.246436236160
    H           -4.022178594836     0.905482400262     0.669784296649
    C            3.431386396201    -0.054563405710     0.330851407286
    H            3.676845108322     0.367718418085    -0.632332153592
    H            4.123918173903    -0.842325656744     0.579302616055
    H            3.469700798231     0.724851415788     1.077264220790

  Mulliken Charges: (a.u.)
   Center  Symbol    Alpha    Beta     Spin     Total
       1     O     4.19727  4.19727  0.00000 -0.39454
       2     C     2.80813  2.80813  0.00000  0.38373
       3     C     3.09821  3.09821  0.00000 -0.19642
       4     O     4.14618  4.14618  0.00000 -0.29236
       5     C     3.08209  3.08209  0.00000 -0.16419
       6     H     0.44204  0.44204  0.00000  0.11592
       7     H     0.43896  0.43896  0.00000  0.12208
       8     C     3.08696  3.08696  0.00000 -0.17391
       9     H     0.44407  0.44407  0.00000  0.11186
      10     H     0.44921  0.44921  0.00000  0.10159
      11     C     3.14919  3.14919  0.00000 -0.29838
      12     H     0.45501  0.45501  0.00000  0.08997
      13     H     0.45533  0.45533  0.00000  0.08935
      14     H     0.45364  0.45364  0.00000  0.09272
      15     H     0.44837  0.44837  0.00000  0.10326
      16     H     0.45409  0.45409  0.00000  0.09182
      17     C     3.03727  3.03727  0.00000 -0.07454
      18     H     0.45439  0.45439  0.00000  0.09122
      19     H     0.44528  0.44528  0.00000  0.10945
      20     H     0.45431  0.45431  0.00000  0.09138

   Total alpha = 32.00000, Total beta = 32.00000, Total charge = -0.00000

*** Psi4 exiting successfully. Buy a developer a beer!
