                              Psi4 1.0.54 Driver

  ==> Input File <==

--------------------------------------------------------------------------
set {
	reference rhf
	basis cc-pvtz
}

set_num_threads( 4 )
memory 2 gb

molecule MOL {
0 1

H	 -3.986142	 -0.793368	 -0.722656
C	 -2.922734	 -0.650199	 -0.751685
C	 -2.365683	 0.194369	 -1.695105
C	 -2.113934	 -1.310378	 0.153847
H	 -2.994086	 0.706461	 -2.397651
C	 -0.999122	 0.377835	 -1.731785
H	 -2.546910	 -1.965130	 0.885081
C	 -0.745405	 -1.127707	 0.118390
H	 -0.551203	 1.027998	 -2.455467
C	 -0.183980	 -0.282359	 -0.825378
H	 -0.116210	 -1.637471	 0.818236
C	 1.286596	 -0.050491	 -0.906392
O	 1.968286	 -0.725612	 -0.000027
O	 1.798543	 0.665275	 -1.700601
C	 3.373556	 -0.568203	 0.000011
H	 3.695416	 -0.031588	 -0.879663
H	 3.782700	 -1.565294	 -0.000152
H	 3.695405	 -0.031851	 0.879862

	symmetry c1
}
set optking {
	frozen_dihedral = ("
		12 13 15 16
	")
}

ee,wfn = optimize('scf', return_wfn=True)
oeprop( wfn, 'DIPOLE', 'QUADRUPOLE', 'MULLIKEN_CHARGES')
f=open( 'psi4out.xyz', 'w' )
f.write( "18  " )
f.write( str(ee) + "\n" )
f.write( MOL.save_string_xyz() )
f.close()
--------------------------------------------------------------------------

    Molecular point group: c1
  Charge       = 0
  Multiplicity = 1
  Basis Set: CC-PVTZ
  Basis Set:
  @DF-RHF Final Energy:  -457.50743783566799
    Total Energy =                       -457.5074378356686111
    Molecular point group: c1
  Basis Set: CC-PVTZ
  Basis Set:
  Basis Set: CC-PVTZ
  Basis Set:
  @DF-RHF Final Energy:  -457.50772006992020
    Total Energy =                       -457.5077200699208788
  Basis Set: CC-PVTZ
  Basis Set:
  Basis Set: CC-PVTZ
  Basis Set:
  @DF-RHF Final Energy:  -457.50821018518440
    Total Energy =                       -457.5082101851844527
  Basis Set: CC-PVTZ
  Basis Set:
  Basis Set: CC-PVTZ
  Basis Set:
  @DF-RHF Final Energy:  -457.50821459046210
    Total Energy =                       -457.5082145904621029
  Basis Set: CC-PVTZ
  Basis Set:
  Basis Set: CC-PVTZ
  Basis Set:
  @DF-RHF Final Energy:  -457.50819281717952
    Total Energy =                       -457.5081928171798609
  Basis Set: CC-PVTZ
  Basis Set:
  Charge       = 0
  Multiplicity = 1
  Basis Set: CC-PVTZ
  Basis Set:

    Orbital Energies (a.u.)
    -----------------------

    Doubly Occupied:

       1A    -20.599946     2A    -20.533700     3A    -11.373206
       4A    -11.279929     5A    -11.244559     6A    -11.243188
       7A    -11.242253     8A    -11.239633     9A    -11.235694
      10A    -11.234928    11A     -1.474513    12A     -1.369106
      13A     -1.170343    14A     -1.051557    15A     -1.028662
      16A     -0.981572    17A     -0.862747    18A     -0.838042
      19A     -0.780423    20A     -0.745064    21A     -0.688385
      22A     -0.679310    23A     -0.676068    24A     -0.634293
      25A     -0.629734    26A     -0.600889    27A     -0.587595
      28A     -0.571055    29A     -0.526541    30A     -0.520020
      31A     -0.510060    32A     -0.501521    33A     -0.460313
      34A     -0.449916    35A     -0.350002    36A     -0.345862

  @DF-RHF Final Energy:  -457.50821941654158

   => Energetics <=

    Nuclear Repulsion Energy =            493.6147216878312065
    One-Electron Energy =               -1601.7246297411786600
    Two-Electron Energy =                 650.6016886368055339
    DFT Exchange-Correlation Energy =       0.0000000000000000
    Empirical Dispersion Energy =           0.0000000000000000
    PCM Polarization Energy =               0.0000000000000000
    EFP Energy =                            0.0000000000000000
    Total Energy =                       -457.5082194165419196
    Molecular point group: c1
  Basis Set: CC-PVTZ
  Basis Set:

  -Total Gradient:
     Atom            X                  Y                   Z
    ------   -----------------  -----------------  -----------------
       1       -0.000002117120     0.000001137566    -0.000001687622
       2       -0.000006891993     0.000015545205    -0.000022628616
       3       -0.000012464770    -0.000006817648     0.000007465257
       4        0.000027248638    -0.000004892737     0.000004601155
       5       -0.000001634779     0.000000880689    -0.000004022346
       6        0.000012116315     0.000003627982    -0.000000729456
       7        0.000004331895     0.000001766652    -0.000000231443
       8       -0.000003960751     0.000002720326     0.000004548159
       9       -0.000000821492     0.000004417083    -0.000003761702
      10        0.000019553908     0.000020000959     0.000042052906
      11        0.000010323548    -0.000001955228     0.000003990639
      12        0.000087552949    -0.000603230138    -0.000496544792
      13       -0.000129559433     0.000924509360     0.000716146316
      14       -0.000034891445     0.000047150411     0.000011920170
      15        0.000109004116    -0.001088637039    -0.000587994539
      16       -0.000086847572     0.000673318457     0.000313706590
      17       -0.000010407311    -0.000004755989    -0.000003315320
      18        0.000019465304     0.000015214094     0.000016484644

  **** Optimization is complete! (in 6 steps) ****
    Final optimized geometry and variables:
    Molecular point group: c1

    Geometry (in Angstrom), charge = 0, multiplicity = 1:

    H           -3.979419582879    -0.712490568960     0.202194386719
    C           -2.930371977066    -0.501209425703     0.117741447301
    C           -2.470690966507     0.316033345619    -0.899385738731
    C           -2.042462855562    -1.046364718664     1.025656196769
    H           -3.160231969961     0.739102179515    -1.603934472549
    C           -1.122580433606     0.587104019619    -1.007176426092
    H           -2.399565366181    -1.679989631057     1.814295905189
    C           -0.692155738115    -0.775875983731     0.918963153656
    H           -0.750032952504     1.217792160282    -1.788512136249
    C           -0.228096638612     0.042224879958    -0.098719085272
    H           -0.002384319887    -1.196641888523     1.620791903469
    C            1.219411187658     0.366825945970    -0.260456618129
    O            1.974132349343    -0.203388906487     0.661174637503
    O            1.640264161717     1.062382166007    -1.122515395864
    C            3.375422748682    -0.005686622157     0.635565017271
    H            3.679910033989     0.476680500940    -0.276592463942
    H            3.840051507762    -0.975725325734     0.725511516766
    H            3.651123401250     0.607058462105     1.482070141141

  Mulliken Charges: (a.u.)
   Center  Symbol    Alpha    Beta     Spin     Total
       1     H     0.42035  0.42035  0.00000  0.15931
       2     C     3.06972  3.06972  0.00000 -0.13945
       3     C     3.07553  3.07553  0.00000 -0.15107
       4     C     3.07481  3.07481  0.00000 -0.14962
       5     H     0.42049  0.42049  0.00000  0.15902
       6     C     3.07597  3.07597  0.00000 -0.15194
       7     H     0.42199  0.42199  0.00000  0.15602
       8     C     3.08187  3.08187  0.00000 -0.16374
       9     H     0.40636  0.40636  0.00000  0.18728
      10     C     3.01860  3.01860  0.00000 -0.03719
      11     H     0.41124  0.41124  0.00000  0.17752
      12     C     2.77447  2.77447  0.00000  0.45107
      13     O     4.15019  4.15019  0.00000 -0.30038
      14     O     4.21147  4.21147  0.00000 -0.42294
      15     C     3.04245  3.04245  0.00000 -0.08489
      16     H     0.43988  0.43988  0.00000  0.12024
      17     H     0.45075  0.45075  0.00000  0.09850
      18     H     0.45387  0.45387  0.00000  0.09225

   Total alpha = 36.00000, Total beta = 36.00000, Total charge = -0.00000

*** Psi4 exiting successfully. Buy a developer a beer!
