                              Psi4 1.0.54 Driver

  ==> Input File <==

--------------------------------------------------------------------------
set {
	reference rhf
	basis cc-pvtz
}

set_num_threads( 4 )
memory 2 gb

molecule MOL {
0 1

H	 -2.816458	 -0.841657	 -0.064679
N	 -1.878861	 -0.711874	 0.250184
C	 -1.341419	 0.551458	 -0.220231
H	 -1.333674	 -1.468530	 -0.105118
C	 0.082190	 0.731516	 0.254705
H	 -1.357065	 0.652078	 -1.304747
H	 -1.939897	 1.357530	 0.189797
O	 0.235439	 2.033070	 0.734475
H	 0.302127	 0.013716	 1.043732
H	 0.768067	 0.552251	 -0.570137
C	 1.525598	 2.349306	 1.140314
H	 1.522505	 3.370993	 1.491786
H	 1.857603	 1.702651	 1.949822
H	 2.233331	 2.263193	 0.319180

	symmetry c1
}
set optking {
	frozen_dihedral = ("
		8 5 3 6
	")
}

ee,wfn = optimize('scf', return_wfn=True)
oeprop( wfn, 'DIPOLE', 'QUADRUPOLE', 'MULLIKEN_CHARGES')
f=open( 'psi4out.xyz', 'w' )
f.write( "14  " )
f.write( str(ee) + "\n" )
f.write( MOL.save_string_xyz() )
f.close()
--------------------------------------------------------------------------

    Molecular point group: c1
  Charge       = 0
  Multiplicity = 1
  Basis Set: CC-PVTZ
  Basis Set:
  @DF-RHF Final Energy:  -248.21847568258568
    Total Energy =                       -248.2184756825856766
    Molecular point group: c1
  Basis Set: CC-PVTZ
  Basis Set:
  Basis Set: CC-PVTZ
  Basis Set:
  @DF-RHF Final Energy:  -248.21898575057415
    Total Energy =                       -248.2189857505742339
  Basis Set: CC-PVTZ
  Basis Set:
  Basis Set: CC-PVTZ
  Basis Set:
  @DF-RHF Final Energy:  -248.21910096958186
    Total Energy =                       -248.2191009695818593
  Basis Set: CC-PVTZ
  Basis Set:
  Basis Set: CC-PVTZ
  Basis Set:
  @DF-RHF Final Energy:  -248.21911219732985
    Total Energy =                       -248.2191121973298777
  Basis Set: CC-PVTZ
  Basis Set:
  Basis Set: CC-PVTZ
  Basis Set:
  @DF-RHF Final Energy:  -248.21911430156450
    Total Energy =                       -248.2191143015645594
  Basis Set: CC-PVTZ
  Basis Set:
  Charge       = 0
  Multiplicity = 1
  Basis Set: CC-PVTZ
  Basis Set:

    Orbital Energies (a.u.)
    -----------------------

    Doubly Occupied:

       1A    -20.548162     2A    -15.531344     3A    -11.262878
       4A    -11.261276     5A    -11.240056     6A     -1.381808
       7A     -1.180367     8A     -0.998045     9A     -0.899939
      10A     -0.824570    11A     -0.678006    12A     -0.675323
      13A     -0.646182    14A     -0.620612    15A     -0.608688
      16A     -0.541284    17A     -0.524064    18A     -0.500620
      19A     -0.469763    20A     -0.415843    21A     -0.389483

  @DF-RHF Final Energy:  -248.21911449943053

   => Energetics <=

    Nuclear Repulsion Energy =            190.9580970784033411
    One-Electron Energy =                -715.9577925320885470
    Two-Electron Energy =                 276.7805809542546740
    DFT Exchange-Correlation Energy =       0.0000000000000000
    Empirical Dispersion Energy =           0.0000000000000000
    PCM Polarization Energy =               0.0000000000000000
    EFP Energy =                            0.0000000000000000
    Total Energy =                       -248.2191144994305887
    Molecular point group: c1
  Basis Set: CC-PVTZ
  Basis Set:

  -Total Gradient:
     Atom            X                  Y                   Z
    ------   -----------------  -----------------  -----------------
       1        0.000002652141     0.000004828012    -0.000009640910
       2       -0.000022669405    -0.000048444624     0.000044673172
       3       -0.000965389362     0.004524126658     0.001178059781
       4        0.000002727121     0.000003529128    -0.000007617285
       5        0.001150237695     0.000253485751    -0.003667483546
       6        0.000613761251    -0.003821059654    -0.000312214565
       7       -0.000007751269    -0.000012359511     0.000005590169
       8       -0.000767058968    -0.000908155096     0.002775026163
       9        0.000002070790    -0.000006722688    -0.000003619903
      10       -0.000004831733    -0.000011478439    -0.000006414978
      11       -0.000001129086     0.000027719304     0.000004693189
      12        0.000008868200     0.000003657698     0.000004297978
      13       -0.000006824270    -0.000004206766    -0.000004714519
      14       -0.000004663103    -0.000004919767    -0.000000634745

  **** Optimization is complete! (in 6 steps) ****
    Final optimized geometry and variables:
    Molecular point group: c1

    Geometry (in Angstrom), charge = 0, multiplicity = 1:

    H           -2.581343736213    -1.795715646207    -0.408893433490
    N           -1.613672864451    -1.712830090945    -0.179247017720
    C           -1.084803849034    -0.436516358662    -0.645495702960
    H           -1.147221978459    -2.477861844975    -0.621259112673
    C            0.356079310939    -0.240906677853    -0.177654130195
    H           -1.132560710072    -0.353066620969    -1.729307948714
    H           -1.681115228806     0.356274351925    -0.218214425831
    O            0.514225622055     1.064471999937     0.287116373452
    H            0.562468479806    -0.945005075866     0.624466513982
    H            1.061393028096    -0.437356267475    -0.983977774558
    C            1.799210868667     1.364885646998     0.718599063002
    H            1.801736297625     2.388029024039     1.065646387420
    H            2.105873491907     0.716844371900     1.536838662742
    H            2.524475220610     1.267076304586    -0.086655113061

  Mulliken Charges: (a.u.)
   Center  Symbol    Alpha    Beta     Spin     Total
       1     H     0.42930  0.42930  0.00000  0.14141
       2     N     3.68826  3.68826  0.00000 -0.37652
       3     C     3.03349  3.03349  0.00000 -0.06698
       4     H     0.43191  0.43191  0.00000  0.13618
       5     C     2.96272  2.96272  0.00000  0.07455
       6     H     0.46519  0.46519  0.00000  0.06963
       7     H     0.44848  0.44848  0.00000  0.10305
       8     O     4.17286  4.17286  0.00000 -0.34571
       9     H     0.46972  0.46972  0.00000  0.06056
      10     H     0.47745  0.47745  0.00000  0.04509
      11     C     3.02966  3.02966  0.00000 -0.05932
      12     H     0.44691  0.44691  0.00000  0.10618
      13     H     0.47159  0.47159  0.00000  0.05683
      14     H     0.47247  0.47247  0.00000  0.05506

   Total alpha = 21.00000, Total beta = 21.00000, Total charge =  0.00000

*** Psi4 exiting successfully. Buy a developer a beer!
