  ==> Input File <==

--------------------------------------------------------------------------
set {
	reference rhf
	basis 6-31G*
}

set_num_threads( 4 )
memory 2 gb

molecule MOL {
0 1

H	 2.812501	 0.366391	 1.557598
O	 2.111108	 0.914974	 1.236983
C	 1.135793	 0.118896	 0.612333
C	 0.031547	 1.023609	 0.088541
H	 0.712054	 -0.590270	 1.321147
H	 1.575817	 -0.457932	 -0.198069
C	 -1.134819	 0.293262	 -0.585751
H	 0.474374	 1.714721	 -0.623187
H	 -0.338529	 1.620940	 0.920081
C	 -1.917817	 -0.639439	 0.339494
H	 -0.758119	 -0.268455	 -1.433105
H	 -1.813832	 1.041889	 -0.986690
H	 -2.777680	 -1.057197	 -0.174994
H	 -1.310268	 -1.471279	 0.680599
H	 -2.283753	 -0.111424	 1.216626

	symmetry c1
}
set optking {
	frozen_dihedral = ("
		2 3 4 8
	")
}

ee = optimize('scf')
oeprop('DIPOLE', 'QUADRUPOLE', 'MULLIKEN_CHARGES')
f=open( 'psi4out.xyz', 'w' )
f.write( "15  " )
f.write( str(ee) + "\n" )
f.write( MOL.save_string_xyz() )
f.close()
--------------------------------------------------------------------------

    Molecular point group: c1
  Charge       = 0
  Multiplicity = 1
  Basis Set: 6-31G*
  Basis Set:
  @DF-RHF Final Energy:  -232.14294116703167
    Total Energy =                       -232.1429411670316085
    Molecular point group: c1
  Basis Set: 6-31G*
  Basis Set:
  Basis Set: 6-31G*
  Basis Set:
  @DF-RHF Final Energy:  -232.14305264161789
    Total Energy =                       -232.1430526416179987
  Basis Set: 6-31G*
  Basis Set:
  Basis Set: 6-31G*
  Basis Set:
  @DF-RHF Final Energy:  -232.14320192765737
    Total Energy =                       -232.1432019276574010
  Basis Set: 6-31G*
  Basis Set:
  Basis Set: 6-31G*
  Basis Set:
  @DF-RHF Final Energy:  -232.14322534371198
    Total Energy =                       -232.1432253437120607
  Basis Set: 6-31G*
  Basis Set:
  Basis Set: 6-31G*
  Basis Set:
  @DF-RHF Final Energy:  -232.14322727172765
    Total Energy =                       -232.1432272717278238
  Basis Set: 6-31G*
  Basis Set:
  Charge       = 0
  Multiplicity = 1
  Basis Set: 6-31G*
  Basis Set:

    Orbital Energies (a.u.)
    -----------------------

    Doubly Occupied:

       1A    -20.551856     2A    -11.266883     3A    -11.218795
       4A    -11.211296     5A    -11.210948     6A     -1.358580
       7A     -1.069503     8A     -0.971070     9A     -0.868955
      10A     -0.784970    11A     -0.694070    12A     -0.651957
      13A     -0.618446    14A     -0.581743    15A     -0.556093
      16A     -0.538735    17A     -0.506066    18A     -0.474016
      19A     -0.473037    20A     -0.456692    21A     -0.432994

  @DF-RHF Final Energy:  -232.14322803067910

   => Energetics <=

    Nuclear Repulsion Energy =            188.0422197398087292
    One-Electron Energy =                -687.3774866532028227
    Two-Electron Energy =                 267.1920388827148827
    DFT Exchange-Correlation Energy =       0.0000000000000000
    Empirical Dispersion Energy =           0.0000000000000000
    PCM Polarization Energy =               0.0000000000000000
    EFP Energy =                            0.0000000000000000
    Total Energy =                       -232.1432280306792109
    Molecular point group: c1
  Basis Set: 6-31G*
  Basis Set:

  -Total Gradient:
     Atom            X                  Y                   Z
    ------   -----------------  -----------------  -----------------
       1       -0.000007900391    -0.000002569996    -0.000006834557
       2       -0.000400867106    -0.000092497007     0.000723763089
       3        0.000471484117    -0.000023428440    -0.001081842315
       4        0.000135007700     0.000789777394     0.001191677079
       5       -0.000012426236    -0.000016666425    -0.000003041213
       6       -0.000011343648     0.000014930769    -0.000003390154
       7       -0.000005646816    -0.000002863070     0.000006404177
       8       -0.000189078923    -0.000669111936    -0.000833474136
       9        0.000000602660    -0.000004985509    -0.000001444863
      10        0.000016773061    -0.000007438551     0.000000175430
      11        0.000003448134     0.000006093467     0.000014769230
      12       -0.000004701383     0.000005672953    -0.000000334940
      13       -0.000005700007     0.000003805470    -0.000002235235
      14       -0.000000464210    -0.000004505656     0.000003591609
      15        0.000010813042     0.000003786538    -0.000007783204

  **** Optimization is complete! (in 6 steps) ****
    Final optimized geometry and variables:
    Molecular point group: c1

    Geometry (in Angstrom), charge = 0, multiplicity = 1:

    H            2.726932281341     0.050074598344     1.166675500491
    O            2.010843255632     0.586868139104     0.858491685324
    C            1.054969243777    -0.221916321271     0.220921227664
    C           -0.071472118291     0.679410174467    -0.257511174485
    H            0.680717648981    -0.974673909990     0.910719075764
    H            1.495789794754    -0.744838970503    -0.626992281384
    C           -1.219610689666    -0.062181761552    -0.951724785061
    H            0.354749586616     1.401100502127    -0.948196218788
    H           -0.448283824061     1.240586288590     0.593050886490
    C           -2.049540538672    -0.961179478450    -0.032106198276
    H           -0.825380455819    -0.652755514649    -1.776650957834
    H           -1.877825639526     0.676614967372    -1.400546398692
    H           -2.889261500776    -1.390381563205    -0.569858614071
    H           -1.468231563001    -1.784592071656     0.370031198806
    H           -2.447856195541    -0.397471541334     0.806858971705

  Mulliken Charges: (a.u.)
   Center  Symbol    Alpha    Beta     Spin     Total
       1     H     0.28125  0.28125  0.00000  0.43750
       2     O     4.37155  4.37155  0.00000 -0.74310
       3     C     2.99221  2.99221  0.00000  0.01558
       4     C     3.15933  3.15933  0.00000 -0.31866
       5     H     0.43103  0.43103  0.00000  0.13794
       6     H     0.43302  0.43302  0.00000  0.13395
       7     C     3.16095  3.16095  0.00000 -0.32191
       8     H     0.41358  0.41358  0.00000  0.17283
       9     H     0.41476  0.41476  0.00000  0.17047
      10     C     3.24115  3.24115  0.00000 -0.48230
      11     H     0.42318  0.42318  0.00000  0.15365
      12     H     0.41758  0.41758  0.00000  0.16483
      13     H     0.41838  0.41838  0.00000  0.16325
      14     H     0.42213  0.42213  0.00000  0.15575
      15     H     0.41989  0.41989  0.00000  0.16022

   Total alpha = 21.00000, Total beta = 21.00000, Total charge =  0.00000
