  ==> Input File <==

--------------------------------------------------------------------------
set {
	reference rhf
	basis 6-31G*
}

set_num_threads( 4 )
memory 2 gb

molecule MOL {
0 1

O	 0.749854	 1.307668	 -0.000040
C	 0.576249	 0.131685	 -0.000108
C	 -0.766779	 -0.556801	 -0.000461
O	 1.568443	 -0.749345	 -0.000005
C	 -1.945214	 0.412366	 0.000161
H	 -0.796911	 -1.211249	 -0.867467
H	 -0.796854	 -1.212390	 0.865687
C	 -3.287791	 -0.317055	 0.000105
H	 -1.876087	 1.060580	 -0.866812
H	 -1.875822	 1.059691	 0.867761
H	 -3.394745	 -0.949193	 -0.877058
H	 -4.111778	 0.388953	 0.000015
H	 -3.394954	 -0.949187	 0.877259
C	 2.335717	 -0.853315	 -1.185622
H	 1.711894	 -1.147758	 -2.017302
H	 3.079783	 -1.609623	 -0.990098
H	 2.811181	 0.089578	 -1.414524

	symmetry c1
}
set optking {
	frozen_dihedral = ("
		14 4 2 1
	")
}

ee = optimize('scf')
oeprop('DIPOLE', 'QUADRUPOLE', 'MULLIKEN_CHARGES')
f=open( 'psi4out.xyz', 'w' )
f.write( "17  " )
f.write( str(ee) + "\n" )
f.write( MOL.save_string_xyz() )
f.close()
--------------------------------------------------------------------------

    Molecular point group: c1
  Charge       = 0
  Multiplicity = 1
  Basis Set: 6-31G*
  Basis Set:
  @DF-RHF Final Energy:  -344.88902080277467
    Total Energy =                       -344.8890208027750077
    Molecular point group: c1
  Basis Set: 6-31G*
  Basis Set:
  Basis Set: 6-31G*
  Basis Set:
  @DF-RHF Final Energy:  -344.88669493922112
    Total Energy =                       -344.8866949392210017
  Basis Set: 6-31G*
  Basis Set:
  Basis Set: 6-31G*
  Basis Set:
  @DF-RHF Final Energy:  -344.88998598873911
    Total Energy =                       -344.8899859887391131
  Basis Set: 6-31G*
  Basis Set:
  Basis Set: 6-31G*
  Basis Set:
  @DF-RHF Final Energy:  -344.89014100901375
    Total Energy =                       -344.8901410090134618
  Basis Set: 6-31G*
  Basis Set:
  Basis Set: 6-31G*
  Basis Set:
  @DF-RHF Final Energy:  -344.89014640174474
    Total Energy =                       -344.8901464017446301
  Basis Set: 6-31G*
  Basis Set:
  Charge       = 0
  Multiplicity = 1
  Basis Set: 6-31G*
  Basis Set:

    Orbital Energies (a.u.)
    -----------------------

    Doubly Occupied:

       1A    -20.587443     2A    -20.556251     3A    -11.375218
       4A    -11.289299     5A    -11.238777     6A    -11.223870
       7A    -11.216280     8A     -1.460277     9A     -1.366547
      10A     -1.080996    11A     -0.994444    12A     -0.947478
      13A     -0.832270    14A     -0.765242    15A     -0.699200
      16A     -0.678105    17A     -0.672859    18A     -0.633862
      19A     -0.614299    20A     -0.578094    21A     -0.565861
      22A     -0.535802    23A     -0.519016    24A     -0.496430
      25A     -0.491201    26A     -0.480725    27A     -0.453203
      28A     -0.435481

  @DF-RHF Final Energy:  -344.89014695810641

   => Energetics <=

    Nuclear Repulsion Energy =            311.9738201077565805
    One-Electron Energy =               -1088.1508779070281889
    Two-Electron Energy =                 431.2869108411649108
    DFT Exchange-Correlation Energy =       0.0000000000000000
    Empirical Dispersion Energy =           0.0000000000000000
    PCM Polarization Energy =               0.0000000000000000
    EFP Energy =                            0.0000000000000000
    Total Energy =                       -344.8901469581066408
    Molecular point group: c1
  Basis Set: 6-31G*
  Basis Set:

  -Total Gradient:
     Atom            X                  Y                   Z
    ------   -----------------  -----------------  -----------------
       1       -0.000356129429    -0.000114481567     0.007066026575
       2       -0.000949479856    -0.001706847408    -0.011360917213
       3        0.000113746857    -0.000035944134    -0.000028451056
       4        0.004609451097     0.005799331469     0.006517825368
       5       -0.000026236063    -0.000008638919     0.000026330207
       6       -0.000004275026    -0.000005104845     0.000007544081
       7       -0.000000900695     0.000007177611    -0.000005093600
       8       -0.000022095360     0.000018244588    -0.000009983656
       9       -0.000004950721     0.000002181051    -0.000003036064
      10        0.000008539952    -0.000009061598    -0.000006270677
      11       -0.000001622828    -0.000004294581    -0.000002013249
      12       -0.000009619449    -0.000006846209    -0.000001266325
      13        0.000001106099     0.000003561613     0.000004082768
      14       -0.003369110931    -0.003926851934    -0.002203770232
      15       -0.000000802364    -0.000025170851    -0.000005170371
      16       -0.000013706694     0.000015313364    -0.000008832315
      17        0.000026085412    -0.000002567652     0.000012995760

  **** Optimization is complete! (in 6 steps) ****
    Final optimized geometry and variables:
    Molecular point group: c1

    Geometry (in Angstrom), charge = 0, multiplicity = 1:

    O            0.831534371984     1.384015451242     0.164801857944
    C            0.646656489597     0.216053480869     0.134394325377
    C           -0.704951883053    -0.451830070945     0.155995829330
    O            1.660215283486    -0.675410840273     0.173031442351
    C           -1.877463301456     0.522705581272     0.202197879423
    H           -0.763527478839    -1.097035362099    -0.718475258289
    H           -0.713387128995    -1.122607477320     1.011317003159
    C           -3.224737750951    -0.197632451806     0.226461306189
    H           -1.827441652426     1.184870747244    -0.655832620204
    H           -1.779956228226     1.155228260366     1.077986294992
    H           -3.359855625571    -0.814926494886    -0.657455080131
    H           -4.043468834954     0.513583724243     0.259820234601
    H           -3.312479129185    -0.842932584856     1.096036443610
    C            2.485345478587    -0.750443640136    -0.971835503505
    H            1.922451560497    -1.116828041236    -1.823975818819
    H            3.272804628119    -1.449895698802    -0.738383976031
    H            2.911548909492     0.216638792872    -1.202815319483

  Mulliken Charges: (a.u.)
   Center  Symbol    Alpha    Beta     Spin     Total
       1     O     4.25889  4.25889  0.00000 -0.51779
       2     C     2.61096  2.61096  0.00000  0.77808
       3     C     3.20943  3.20943  0.00000 -0.41886
       4     O     4.31589  4.31589  0.00000 -0.63178
       5     C     3.15270  3.15270  0.00000 -0.30540
       6     H     0.40712  0.40712  0.00000  0.18575
       7     H     0.39803  0.39803  0.00000  0.20394
       8     C     3.24263  3.24263  0.00000 -0.48526
       9     H     0.41199  0.41199  0.00000  0.17603
      10     H     0.40954  0.40954  0.00000  0.18092
      11     H     0.42193  0.42193  0.00000  0.15613
      12     H     0.41475  0.41475  0.00000  0.17051
      13     H     0.42065  0.42065  0.00000  0.15869
      14     C     3.09395  3.09395  0.00000 -0.18791
      15     H     0.42173  0.42173  0.00000  0.15654
      16     H     0.40409  0.40409  0.00000  0.19182
      17     H     0.40572  0.40572  0.00000  0.18857

   Total alpha = 28.00000, Total beta = 28.00000, Total charge =  0.00000
