  ==> Input File <==

--------------------------------------------------------------------------
set {
	reference rhf
	basis 6-31G*
}

set_num_threads( 4 )
memory 2 gb

molecule MOL {
0 1

H	 1.084169	 1.339281	 -3.431568
O	 1.949449	 0.990654	 -3.589111
C	 2.608759	 0.788732	 -2.364941
C	 2.067835	 -0.401199	 -1.579962
H	 3.648271	 0.619610	 -2.614914
H	 2.565586	 1.690715	 -1.755561
C	 0.612139	 -0.242829	 -1.134164
H	 2.166642	 -1.292813	 -2.193663
H	 2.700102	 -0.546216	 -0.705562
C	 0.115918	 -1.429151	 -0.302766
H	 -0.018900	 -0.124807	 -2.010649
H	 0.510112	 0.671093	 -0.548778
C	 -1.309753	 -1.282496	 0.241564
H	 0.181570	 -2.337022	 -0.899681
H	 0.792444	 -1.569893	 0.537594
C	 -2.037799	 -0.007733	 -0.193645
H	 -1.890610	 -2.142323	 -0.085726
H	 -1.285946	 -1.330893	 1.329189
C	 -3.489788	 0.042957	 0.286558
H	 -2.017067	 0.064384	 -1.280144
H	 -1.513726	 0.868678	 0.179924
C	 -4.216917	 1.317354	 -0.141063
H	 -4.025645	 -0.823308	 -0.095450
H	 -3.513059	 -0.038752	 1.371301
H	 -4.239342	 1.411634	 -1.223113
H	 -5.243387	 1.322503	 0.212445
H	 -3.726170	 2.201406	 0.256408

	symmetry c1
}
set optking {
	frozen_dihedral = ("
		14 10 13 16
	")
}

ee = optimize('scf')
oeprop('DIPOLE', 'QUADRUPOLE', 'MULLIKEN_CHARGES')
f=open( 'psi4out.xyz', 'w' )
f.write( "27  " )
f.write( str(ee) + "\n" )
f.write( MOL.save_string_xyz() )
f.close()
--------------------------------------------------------------------------

    Molecular point group: c1
  Charge       = 0
  Multiplicity = 1
  Basis Set: 6-31G*
  Basis Set:
  @DF-RHF Final Energy:  -388.27114061328825
    Total Energy =                       -388.2711406132884804
    Molecular point group: c1
  Basis Set: 6-31G*
  Basis Set:
  Basis Set: 6-31G*
  Basis Set:
  @DF-RHF Final Energy:  -388.27127861308236
    Total Energy =                       -388.2712786130824725
  Basis Set: 6-31G*
  Basis Set:
  Basis Set: 6-31G*
  Basis Set:
  @DF-RHF Final Energy:  -388.27323521446709
    Total Energy =                       -388.2732352144673769
  Basis Set: 6-31G*
  Basis Set:
  Basis Set: 6-31G*
  Basis Set:
  @DF-RHF Final Energy:  -388.27339272047732
    Total Energy =                       -388.2733927204777729
  Basis Set: 6-31G*
  Basis Set:
  Basis Set: 6-31G*
  Basis Set:
  @DF-RHF Final Energy:  -388.27339169610514
    Total Energy =                       -388.2733916961057048
  Basis Set: 6-31G*
  Basis Set:
  Basis Set: 6-31G*
  Basis Set:
  @DF-RHF Final Energy:  -388.27339649622985
    Total Energy =                       -388.2733964962299069
  Basis Set: 6-31G*
  Basis Set:
  Basis Set: 6-31G*
  Basis Set:
  @DF-RHF Final Energy:  -388.27340100906258
    Total Energy =                       -388.2734010090615584
  Basis Set: 6-31G*
  Basis Set:
  Charge       = 0
  Multiplicity = 1
  Basis Set: 6-31G*
  Basis Set:

    Orbital Energies (a.u.)
    -----------------------

    Doubly Occupied:

       1A    -20.552118     2A    -11.266928     3A    -11.219876
       4A    -11.217652     5A    -11.216445     6A    -11.216091
       7A    -11.215124     8A    -11.215033     9A    -11.210045
      10A     -1.358892    11A     -1.092844    12A     -1.061699
      13A     -1.008902    14A     -0.948567    15A     -0.890180
      16A     -0.820509    17A     -0.807266    18A     -0.769076
      19A     -0.693703    20A     -0.658193    21A     -0.632579
      22A     -0.613073    23A     -0.603427    24A     -0.584840
      25A     -0.575386    26A     -0.552789    27A     -0.540245
      28A     -0.531281    29A     -0.506071    30A     -0.497154
      31A     -0.488940    32A     -0.475344    33A     -0.467495
      34A     -0.454804    35A     -0.446040    36A     -0.442781
      37A     -0.423403

  @DF-RHF Final Energy:  -388.27340123669967

   => Energetics <=

    Nuclear Repulsion Energy =            461.3919573047652420
    One-Electron Energy =               -1440.7811268508557987
    Two-Electron Energy =                 591.1157683093907735
    DFT Exchange-Correlation Energy =       0.0000000000000000
    Empirical Dispersion Energy =           0.0000000000000000
    PCM Polarization Energy =               0.0000000000000000
    EFP Energy =                            0.0000000000000000
    Total Energy =                       -388.2734012366997831
    Molecular point group: c1
  Basis Set: 6-31G*
  Basis Set:

  -Total Gradient:
     Atom            X                  Y                   Z
    ------   -----------------  -----------------  -----------------
       1        0.000000808316     0.000001583458    -0.000005441724
       2       -0.000007065655     0.000004932227     0.000008559167
       3        0.000017799857    -0.000005966939    -0.000005912603
       4       -0.000007431654     0.000004150083     0.000001378181
       5        0.000007161003     0.000000711721     0.000007192803
       6       -0.000007754335    -0.000001347388    -0.000003747874
       7        0.000012332921    -0.000007561058     0.000003993375
       8       -0.000000056211     0.000005016002    -0.000003604877
       9        0.000000470841    -0.000002068364    -0.000001175566
      10       -0.000199863478     0.000886399752    -0.000798973464
      11        0.000011090635    -0.000014351120     0.000005035982
      12       -0.000007729116     0.000003515919    -0.000005195515
      13       -0.000342967366    -0.000709332428    -0.000782320764
      14        0.000272608728    -0.000558725102     0.000903817334
      15        0.000012111035    -0.000000578756    -0.000008296998
      16        0.000254416223     0.000373773934     0.000654170867
      17       -0.000012396175     0.000005059427     0.000000877643
      18       -0.000005796338     0.000001614312    -0.000000845390
      19        0.000006518864     0.000009987249     0.000017225404
      20       -0.000009356405     0.000002752258     0.000007252041
      21        0.000008805818    -0.000005875720     0.000001976755
      22       -0.000003772693     0.000001020800     0.000000700100
      23        0.000005687799     0.000000809870     0.000001969670
      24       -0.000003085487     0.000002503780     0.000002263601
      25        0.000004395985     0.000001191911     0.000000523388
      26       -0.000003523496     0.000000050125    -0.000004465274
      27       -0.000003409626     0.000000734046     0.000003043742

  **** Optimization is complete! (in 8 steps) ****
    Final optimized geometry and variables:
    Molecular point group: c1

    Geometry (in Angstrom), charge = 0, multiplicity = 1:

    H            1.640467647828     1.371610256795    -2.409568507947
    O            2.478520843541     0.964510725431    -2.574136077996
    C            3.124666965248     0.702269490779    -1.354452312825
    C            2.500221904739    -0.452949278781    -0.579635405120
    H            4.148241153505     0.460024661297    -1.609981042099
    H            3.149577652693     1.598728454072    -0.735969538023
    C            1.060071585058    -0.192495343781    -0.130305639733
    H            2.533957034242    -1.343667742606    -1.201550999164
    H            3.121566778953    -0.651184970377     0.292205295105
    C            0.497778399869    -1.355188285212     0.695109363363
    H            0.437089631101    -0.030550145794    -1.005377532318
    H            1.029712495002     0.726190183994     0.452231085778
    C           -0.963791010554    -1.230168124310     1.211498514680
    H            0.586559763968    -2.262843412493     0.104292545139
    H            1.155070925014    -1.504793250315     1.547696234341
    C           -1.759825495169     0.010635431325     0.790978996519
    H           -1.521164161688    -2.109224353758     0.899553116075
    H           -0.953286084442    -1.263509352541     2.297834550069
    C           -3.176200069042     0.012854308875     1.370860027457
    H           -1.824703720401     0.065188042623    -0.293265044352
    H           -1.246442310088     0.912705147871     1.114514432354
    C           -3.986430081482     1.242785911355     0.962586374567
    H           -3.698637646991    -0.885667959849     1.049547855453
    H           -3.121437734724    -0.038508256157     2.456224390455
    H           -4.089032455233     1.304395307711    -0.117224308983
    H           -4.984893533844     1.215268764168     1.387917037723
    H           -3.508365604646     2.157818118817     1.301054712068

  Mulliken Charges: (a.u.)
   Center  Symbol    Alpha    Beta     Spin     Total
       1     H     0.27984  0.27984  0.00000  0.44031
       2     O     4.37102  4.37102  0.00000 -0.74205
       3     C     2.99721  2.99721  0.00000  0.00557
       4     C     3.16113  3.16113  0.00000 -0.32227
       5     H     0.41444  0.41444  0.00000  0.17113
       6     H     0.43212  0.43212  0.00000  0.13575
       7     C     3.16415  3.16415  0.00000 -0.32830
       8     H     0.41509  0.41509  0.00000  0.16981
       9     H     0.42440  0.42440  0.00000  0.15121
      10     C     3.15520  3.15520  0.00000 -0.31040
      11     H     0.42334  0.42334  0.00000  0.15332
      12     H     0.42373  0.42373  0.00000  0.15254
      13     C     3.15637  3.15637  0.00000 -0.31274
      14     H     0.41918  0.41918  0.00000  0.16164
      15     H     0.42088  0.42088  0.00000  0.15824
      16     C     3.15360  3.15360  0.00000 -0.30720
      17     H     0.42026  0.42026  0.00000  0.15948
      18     H     0.42119  0.42119  0.00000  0.15763
      19     C     3.15135  3.15135  0.00000 -0.30270
      20     H     0.42376  0.42376  0.00000  0.15248
      21     H     0.42366  0.42366  0.00000  0.15268
      22     C     3.23917  3.23917  0.00000 -0.47834
      23     H     0.42269  0.42269  0.00000  0.15462
      24     H     0.42298  0.42298  0.00000  0.15403
      25     H     0.42202  0.42202  0.00000  0.15596
      26     H     0.41891  0.41891  0.00000  0.16217
      27     H     0.42229  0.42229  0.00000  0.15543

   Total alpha = 37.00000, Total beta = 37.00000, Total charge =  0.00000
