                              Psi4 1.0.54 Driver

  ==> Input File <==

--------------------------------------------------------------------------
set {
	reference rhf
	basis cc-pvtz
}

set_num_threads( 4 )
memory 2 gb

molecule MOL {
0 1

H	 2.766695	 -0.243521	 0.650996
O	 1.927219	 -0.677235	 0.681146
C	 1.050374	 0.054877	 0.000135
C	 -0.318151	 -0.570512	 0.000144
O	 1.352184	 1.069315	 -0.526927
C	 -1.454884	 0.441630	 -0.000560
H	 -0.371613	 -1.223646	 -0.864985
H	 -0.371920	 -1.222758	 0.865929
C	 -2.822577	 -0.232186	 0.000063
H	 -1.359760	 1.084704	 -0.867077
H	 -1.359641	 1.085996	 0.864983
H	 -2.954352	 -0.858985	 -0.875745
H	 -3.615886	 0.505352	 0.000019
H	 -2.953878	 -0.858359	 0.876394

	symmetry c1
}
set optking {
	frozen_dihedral = ("
		2 3 4 7
	")
}

ee,wfn = optimize('scf', return_wfn=True)
oeprop( wfn, 'DIPOLE', 'QUADRUPOLE', 'MULLIKEN_CHARGES')
f=open( 'psi4out.xyz', 'w' )
f.write( "14  " )
f.write( str(ee) + "\n" )
f.write( MOL.save_string_xyz() )
f.close()
--------------------------------------------------------------------------

    Molecular point group: c1
  Charge       = 0
  Multiplicity = 1
  Basis Set: CC-PVTZ
  Basis Set:
  @DF-RHF Final Energy:  -305.99987420156464
    Total Energy =                       -305.9998742015644666
    Molecular point group: c1
  Basis Set: CC-PVTZ
  Basis Set:
  Basis Set: CC-PVTZ
  Basis Set:
  @DF-RHF Final Energy:  -306.00006670512869
    Total Energy =                       -306.0000667051288019
  Basis Set: CC-PVTZ
  Basis Set:
  Basis Set: CC-PVTZ
  Basis Set:
  @DF-RHF Final Energy:  -306.00015195133295
    Total Energy =                       -306.0001519513331800
  Basis Set: CC-PVTZ
  Basis Set:
  Basis Set: CC-PVTZ
  Basis Set:
  @DF-RHF Final Energy:  -306.00021085466113
    Total Energy =                       -306.0002108546611908
  Basis Set: CC-PVTZ
  Basis Set:
  Basis Set: CC-PVTZ
  Basis Set:
  @DF-RHF Final Energy:  -306.00022172890885
    Total Energy =                       -306.0002217289089117
  Basis Set: CC-PVTZ
  Basis Set:
  Charge       = 0
  Multiplicity = 1
  Basis Set: CC-PVTZ
  Basis Set:

    Orbital Energies (a.u.)
    -----------------------

    Doubly Occupied:

       1A    -20.605796     2A    -20.539616     3A    -11.374114
       4A    -11.239440     5A    -11.225884     6A    -11.216047
       7A     -1.478488     8A     -1.369196     9A     -1.084653
      10A     -0.980535    11A     -0.858686    12A     -0.796576
      13A     -0.705537    14A     -0.691611    15A     -0.663769
      16A     -0.622358    17A     -0.596598    18A     -0.573924
      19A     -0.548341    20A     -0.509056    21A     -0.492955
      22A     -0.485531    23A     -0.480289    24A     -0.446166

  @DF-RHF Final Energy:  -306.00022215776210

   => Energetics <=

    Nuclear Repulsion Energy =            240.4196057834624582
    One-Electron Energy =                -893.6693258611571764
    Two-Electron Energy =                 347.2494979199325371
    DFT Exchange-Correlation Energy =       0.0000000000000000
    Empirical Dispersion Energy =           0.0000000000000000
    PCM Polarization Energy =               0.0000000000000000
    EFP Energy =                            0.0000000000000000
    Total Energy =                       -306.0002221577622095
    Molecular point group: c1
  Basis Set: CC-PVTZ
  Basis Set:

  -Total Gradient:
     Atom            X                  Y                   Z
    ------   -----------------  -----------------  -----------------
       1        0.000076163347     0.000007730878    -0.000009206315
       2       -0.000221368367     0.000473987796     0.000826287075
       3        0.000091058255    -0.000415743854    -0.001229377857
       4        0.000405169159    -0.000836553318     0.000965728999
       5        0.000039621917    -0.000028251048     0.000034634026
       6        0.000017628261    -0.000005185697     0.000002398606
       7       -0.000440417420     0.000849330434    -0.000576821055
       8        0.000008472280    -0.000022794441     0.000013991314
       9        0.000006093954    -0.000023046022    -0.000009449419
      10       -0.000002280825     0.000022853066    -0.000016646853
      11        0.000024649103    -0.000016583734    -0.000004872618
      12       -0.000009612682    -0.000006751178    -0.000003234605
      13        0.000007877996     0.000004260141     0.000001434883
      14       -0.000003054977    -0.000003253025     0.000005133822

  **** Optimization is complete! (in 6 steps) ****
    Final optimized geometry and variables:
    Molecular point group: c1

    Geometry (in Angstrom), charge = 0, multiplicity = 1:

    H            2.805259936094    -0.244270136904     0.508321602186
    O            1.969417096106    -0.677357077000     0.599084968504
    C            1.051579745131     0.046464549567    -0.033002907613
    C           -0.312060651070    -0.591680439111     0.007070463940
    O            1.316297735973     1.065964022653    -0.571175367980
    C           -1.448774582855     0.425393070017    -0.010744857466
    H           -0.372789229262    -1.226521675584    -0.873039543924
    H           -0.370983731968    -1.241932226171     0.869532113776
    C           -2.817730814248    -0.244855897595    -0.032223592915
    H           -1.334298743402     1.068411920072    -0.873300851911
    H           -1.369069341486     1.065603491803     0.861558145392
    H           -2.937551019431    -0.864773995664    -0.914557075985
    H           -3.609008068036     0.494886114218    -0.038727543162
    H           -2.963016892063    -0.876710715036     0.837658681469

  Mulliken Charges: (a.u.)
   Center  Symbol    Alpha    Beta     Spin     Total
       1     H     0.38109  0.38109  0.00000  0.23782
       2     O     4.15847  4.15847  0.00000 -0.31695
       3     C     2.80905  2.80905  0.00000  0.38190
       4     C     3.09730  3.09730  0.00000 -0.19459
       5     O     4.19427  4.19427  0.00000 -0.38854
       6     C     3.08325  3.08325  0.00000 -0.16650
       7     H     0.44358  0.44358  0.00000  0.11284
       8     H     0.43679  0.43679  0.00000  0.12642
       9     C     3.14997  3.14997  0.00000 -0.29994
      10     H     0.44040  0.44040  0.00000  0.11920
      11     H     0.45050  0.45050  0.00000  0.09901
      12     H     0.45465  0.45465  0.00000  0.09070
      13     H     0.44529  0.44529  0.00000  0.10942
      14     H     0.45539  0.45539  0.00000  0.08921

   Total alpha = 24.00000, Total beta = 24.00000, Total charge = -0.00000

*** Psi4 exiting successfully. Buy a developer a beer!
