                              Psi4 1.0.54 Driver

  ==> Input File <==

--------------------------------------------------------------------------
set {
	reference rhf
	basis cc-pvtz
}

set_num_threads( 4 )
memory 2 gb

molecule MOL {
0 1

H	 1.651322	 -0.822465	 0.000000
O	 0.729993	 -1.034364	 0.000000
C	 0.037305	 0.100061	 0.000000
C	 -1.164416	 0.024911	 -0.893474
O	 0.360035	 1.038691	 0.641572
H	 -0.849212	 -0.195698	 -1.905129
H	 -1.695407	 0.961877	 -0.864021
H	 -1.808162	 -0.781241	 -0.566091

	symmetry c1
}
set optking {
	frozen_dihedral = ("
		4 3 2 1
	")
}

ee,wfn = optimize('scf', return_wfn=True)
oeprop( wfn, 'DIPOLE', 'QUADRUPOLE', 'MULLIKEN_CHARGES')
f=open( 'psi4out.xyz', 'w' )
f.write( "8  " )
f.write( str(ee) + "\n" )
f.write( MOL.save_string_xyz() )
f.close()
--------------------------------------------------------------------------

    Molecular point group: c1
  Charge       = 0
  Multiplicity = 1
  Basis Set: CC-PVTZ
  Basis Set:
  @DF-RHF Final Energy:  -227.89625387290823
    Total Energy =                       -227.8962538729082041
    Molecular point group: c1
  Basis Set: CC-PVTZ
  Basis Set:
  Basis Set: CC-PVTZ
  Basis Set:
  @DF-RHF Final Energy:  -227.89354697125592
    Total Energy =                       -227.8935469712558870
  Basis Set: CC-PVTZ
  Basis Set:
  Basis Set: CC-PVTZ
  Basis Set:
  @DF-RHF Final Energy:  -227.89676745731413
    Total Energy =                       -227.8967674573141835
  Basis Set: CC-PVTZ
  Basis Set:
  Basis Set: CC-PVTZ
  Basis Set:
  @DF-RHF Final Energy:  -227.89694880298521
    Total Energy =                       -227.8969488029852073
  Basis Set: CC-PVTZ
  Basis Set:
  Basis Set: CC-PVTZ
  Basis Set:
  @DF-RHF Final Energy:  -227.89702560160541
    Total Energy =                       -227.8970256016053497
  Basis Set: CC-PVTZ
  Basis Set:
  Basis Set: CC-PVTZ
  Basis Set:
  @DF-RHF Final Energy:  -227.89706158166024
    Total Energy =                       -227.8970615816602958
  Basis Set: CC-PVTZ
  Basis Set:
  Charge       = 0
  Multiplicity = 1
  Basis Set: CC-PVTZ
  Basis Set:

    Orbital Energies (a.u.)
    -----------------------

    Doubly Occupied:

       1A    -20.600053     2A    -20.545655     3A    -11.379019
       4A    -11.239891     5A     -1.474614     6A     -1.372366
       7A     -1.026959     8A     -0.832615     9A     -0.707631
      10A     -0.683248    11A     -0.659856    12A     -0.584171
      13A     -0.580452    14A     -0.546259    15A     -0.489581
      16A     -0.452671

  @DF-RHF Final Energy:  -227.89706611187924

   => Energetics <=

    Nuclear Repulsion Energy =            122.5504133011778833
    One-Electron Energy =                -554.5448792200268144
    Two-Electron Energy =                 204.0973998069696620
    DFT Exchange-Correlation Energy =       0.0000000000000000
    Empirical Dispersion Energy =           0.0000000000000000
    PCM Polarization Energy =               0.0000000000000000
    EFP Energy =                            0.0000000000000000
    Total Energy =                       -227.8970661118792975
    Molecular point group: c1
  Basis Set: CC-PVTZ
  Basis Set:

  -Total Gradient:
     Atom            X                  Y                   Z
    ------   -----------------  -----------------  -----------------
       1       -0.000096978513    -0.000846680645    -0.011316868805
       2        0.001970445419     0.001770534382     0.011554936142
       3       -0.005958277357    -0.002459182763     0.005642009994
       4        0.004009966291     0.001944646002    -0.005759759096
       5        0.000068470726    -0.000321698639    -0.000070324917
       6       -0.000013706636    -0.000028361858     0.000001898528
       7       -0.000015915810    -0.000038946115    -0.000045601900
       8        0.000035995880    -0.000020310363    -0.000006289945

  **** Optimization is complete! (in 7 steps) ****
    Final optimized geometry and variables:
    Molecular point group: c1

    Geometry (in Angstrom), charge = 0, multiplicity = 1:

    H            1.595083150684    -0.916794968701     0.133955335133
    O            0.664947180236    -1.077554622214     0.154991057881
    C            0.007681749935     0.088223495667     0.076345363863
    C           -1.206277217762    -0.002217973028    -0.799532634691
    O            0.414460912795     1.076605895954     0.573531559607
    H           -0.862252084607    -0.089464406625    -1.823240151237
    H           -1.808845393594     0.884865284183    -0.691539073552
    H           -1.783504519550    -0.887601958543    -0.570491785728

  Mulliken Charges: (a.u.)
   Center  Symbol    Alpha    Beta     Spin     Total
       1     H     0.37827  0.37827  0.00000  0.24345
       2     O     4.17059  4.17059  0.00000 -0.34118
       3     C     2.80414  2.80414  0.00000  0.39171
       4     C     3.13624  3.13624  0.00000 -0.27247
       5     O     4.18129  4.18129  0.00000 -0.36258
       6     H     0.44692  0.44692  0.00000  0.10617
       7     H     0.43861  0.43861  0.00000  0.12279
       8     H     0.44395  0.44395  0.00000  0.11211

   Total alpha = 16.00000, Total beta = 16.00000, Total charge = -0.00000

*** Psi4 exiting successfully. Buy a developer a beer!
