                              Psi4 1.0.54 Driver

  ==> Input File <==

--------------------------------------------------------------------------
set {
	reference rhf
	basis cc-pvtz
}

set_num_threads( 4 )
memory 2 gb

molecule MOL {
0 1

H	 2.744732	 0.052857	 -0.893424
N	 2.326826	 -0.066186	 0.000000
C	 0.934676	 -0.005420	 0.000000
H	 2.705149	 -0.853979	 0.472522
C	 0.226436	 -0.001077	 -1.195129
C	 0.226436	 -0.001077	 1.195129
H	 0.759091	 -0.011439	 -2.128123
C	 -1.153391	 0.009141	 -1.189028
H	 0.759091	 -0.011439	 2.128123
C	 -1.153391	 0.009141	 1.189028
H	 -1.680905	 0.012964	 -2.124348
C	 -1.857876	 0.014675	 0.000000
H	 -1.680905	 0.012964	 2.124348
H	 -2.930222	 0.022904	 0.000000

	symmetry c1
}
set optking {
	frozen_dihedral = ("
		1 2 3 5
	")
}

ee,wfn = optimize('scf', return_wfn=True)
oeprop( wfn, 'DIPOLE', 'QUADRUPOLE', 'MULLIKEN_CHARGES')
f=open( 'psi4out.xyz', 'w' )
f.write( "14  " )
f.write( str(ee) + "\n" )
f.write( MOL.save_string_xyz() )
f.close()
--------------------------------------------------------------------------

    Molecular point group: c1
  Charge       = 0
  Multiplicity = 1
  Basis Set: CC-PVTZ
  Basis Set:
  @DF-RHF Final Energy:  -285.83078030825999
    Total Energy =                       -285.8307803082598184
    Molecular point group: c1
  Basis Set: CC-PVTZ
  Basis Set:
  Basis Set: CC-PVTZ
  Basis Set:
  @DF-RHF Final Energy:  -285.83114532122210
    Total Energy =                       -285.8311453212219249
  Basis Set: CC-PVTZ
  Basis Set:
  Basis Set: CC-PVTZ
  Basis Set:
  @DF-RHF Final Energy:  -285.83121164713208
    Total Energy =                       -285.8312116471317950
  Basis Set: CC-PVTZ
  Basis Set:
  Basis Set: CC-PVTZ
  Basis Set:
  @DF-RHF Final Energy:  -285.83121435789002
    Total Energy =                       -285.8312143578897917
  Basis Set: CC-PVTZ
  Basis Set:
  Charge       = 0
  Multiplicity = 1
  Basis Set: CC-PVTZ
  Basis Set:

    Orbital Energies (a.u.)
    -----------------------

    Doubly Occupied:

       1A    -15.549769     2A    -11.267345     3A    -11.227147
       4A    -11.226641     5A    -11.217990     6A    -11.215960
       7A    -11.214793     8A     -1.220232     9A     -1.130444
      10A     -1.013741    11A     -0.988250    12A     -0.831578
      13A     -0.812566    14A     -0.707400    15A     -0.685209
      16A     -0.652904    17A     -0.610204    18A     -0.595907
      19A     -0.583030    20A     -0.520182    21A     -0.506236
      22A     -0.489707    23A     -0.437499    24A     -0.335807
      25A     -0.301970

  @DF-RHF Final Energy:  -285.83121499642965

   => Energetics <=

    Nuclear Repulsion Energy =            273.5167449994094682
    One-Electron Energy =                -928.0108907508542870
    Two-Electron Energy =                 368.6629307550152816
    DFT Exchange-Correlation Energy =       0.0000000000000000
    Empirical Dispersion Energy =           0.0000000000000000
    PCM Polarization Energy =               0.0000000000000000
    EFP Energy =                            0.0000000000000000
    Total Energy =                       -285.8312149964295941
    Molecular point group: c1
  Basis Set: CC-PVTZ
  Basis Set:

  -Total Gradient:
     Atom            X                  Y                   Z
    ------   -----------------  -----------------  -----------------
       1        0.000070389716     0.004106975097     0.000686419207
       2        0.000023655070    -0.006878615421    -0.000904870429
       3       -0.000035271872     0.005871677799     0.000321425473
       4       -0.000013050724    -0.000030082767     0.000006292759
       5       -0.000114418704    -0.003167337928    -0.000039273739
       6        0.000132061044     0.000083202415    -0.000045264207
       7        0.000001808259     0.000016522639     0.000008727396
       8        0.000060099954     0.000020278587    -0.000053401246
       9        0.000011976742     0.000005414341     0.000003639944
      10       -0.000120032887    -0.000042084088    -0.000056258089
      11       -0.000024892485    -0.000004786838     0.000010499423
      12        0.000012642772     0.000003954878     0.000096274215
      13        0.000009141078     0.000008549113    -0.000012938121
      14       -0.000014107962     0.000006332175    -0.000021272585

  **** Optimization is complete! (in 5 steps) ****
    Final optimized geometry and variables:
    Molecular point group: c1

    Geometry (in Angstrom), charge = 0, multiplicity = 1:

    H            2.763153522253     0.108209962577    -0.866779612027
    N            2.333676970599    -0.037254818585     0.016309384119
    C            0.932110692724    -0.012896295992    -0.004899781253
    H            2.734597690200    -0.800292898743     0.510230171716
    C            0.220476762274    -0.005583841014    -1.195074755207
    C            0.230026382729    -0.001443925493     1.193769349304
    H            0.748847552049    -0.033312580324    -2.130147359295
    C           -1.161183583297     0.042120314861    -1.185702991833
    H            0.773681864552     0.003669413585     2.119470907917
    C           -1.148818155569     0.019586208735     1.195136955816
    H           -1.693593366959     0.058052796377    -2.118022798021
    C           -1.856611032193     0.048789125435     0.006468472316
    H           -1.674126264307     0.026697971614     2.131546892997
    H           -2.928887885667     0.076186469058     0.011630016859

  Mulliken Charges: (a.u.)
   Center  Symbol    Alpha    Beta     Spin     Total
       1     H     0.42132  0.42132  0.00000  0.15736
       2     N     3.69365  3.69365  0.00000 -0.38731
       3     C     2.87878  2.87878  0.00000  0.24244
       4     H     0.41497  0.41497  0.00000  0.17006
       5     C     3.11940  3.11940  0.00000 -0.23880
       6     C     3.11646  3.11646  0.00000 -0.23293
       7     H     0.43314  0.43314  0.00000  0.13371
       8     C     3.06338  3.06338  0.00000 -0.12676
       9     H     0.42620  0.42620  0.00000  0.14760
      10     C     3.06105  3.06105  0.00000 -0.12209
      11     H     0.42454  0.42454  0.00000  0.15092
      12     C     3.09780  3.09780  0.00000 -0.19560
      13     H     0.42438  0.42438  0.00000  0.15123
      14     H     0.42492  0.42492  0.00000  0.15016

   Total alpha = 25.00000, Total beta = 25.00000, Total charge = -0.00000

*** Psi4 exiting successfully. Buy a developer a beer!
