  ==> Input File <==

--------------------------------------------------------------------------
set {
	reference rhf
	basis 6-31G*
}

set_num_threads( 4 )
memory 2 gb

molecule MOL {
0 1

H	 1.167217	 2.146376	 3.105815
O	 2.104130	 2.038289	 3.031093
C	 2.436390	 0.679845	 3.166324
C	 2.054126	 -0.156454	 1.950099
H	 3.509343	 0.651845	 3.306547
H	 1.982125	 0.264075	 4.064966
C	 0.547372	 -0.222665	 1.688993
H	 2.557992	 0.252544	 1.078200
H	 2.440432	 -1.163804	 2.096320
C	 0.192759	 -1.113011	 0.494692
H	 0.170229	 0.781675	 1.517442
H	 0.042035	 -0.599907	 2.578186
C	 -1.309753	 -1.282496	 0.241564
H	 0.666004	 -0.715349	 -0.401272
H	 0.627910	 -2.097138	 0.655431
C	 -2.037799	 -0.007733	 -0.193645
H	 -1.443230	 -2.038352	 -0.529592
H	 -1.782740	 -1.679763	 1.138391
C	 -3.489788	 0.042957	 0.286558
H	 -2.017067	 0.064384	 -1.280144
H	 -1.513726	 0.868678	 0.179924
C	 -4.216917	 1.317354	 -0.141063
H	 -4.025645	 -0.823308	 -0.095450
H	 -3.513059	 -0.038752	 1.371301
H	 -4.239342	 1.411634	 -1.223113
H	 -5.243387	 1.322503	 0.212445
H	 -3.726170	 2.201406	 0.256408

	symmetry c1
}
set optking {
	frozen_dihedral = ("
		10 13 16 20
	")
}

ee = optimize('scf')
oeprop('DIPOLE', 'QUADRUPOLE', 'MULLIKEN_CHARGES')
f=open( 'psi4out.xyz', 'w' )
f.write( "27  " )
f.write( str(ee) + "\n" )
f.write( MOL.save_string_xyz() )
f.close()
--------------------------------------------------------------------------

    Molecular point group: c1
  Charge       = 0
  Multiplicity = 1
  Basis Set: 6-31G*
  Basis Set:
  @DF-RHF Final Energy:  -388.27826093535396
    Total Energy =                       -388.2782609353542966
    Molecular point group: c1
  Basis Set: 6-31G*
  Basis Set:
  Basis Set: 6-31G*
  Basis Set:
  @DF-RHF Final Energy:  -388.27858758271287
    Total Energy =                       -388.2785875827123618
  Basis Set: 6-31G*
  Basis Set:
  Basis Set: 6-31G*
  Basis Set:
  @DF-RHF Final Energy:  -388.27882761162499
    Total Energy =                       -388.2788276116252746
  Basis Set: 6-31G*
  Basis Set:
  Basis Set: 6-31G*
  Basis Set:
  @DF-RHF Final Energy:  -388.27884362046740
    Total Energy =                       -388.2788436204673417
  Basis Set: 6-31G*
  Basis Set:
  Basis Set: 6-31G*
  Basis Set:
  @DF-RHF Final Energy:  -388.27884765790833
    Total Energy =                       -388.2788476579080452
  Basis Set: 6-31G*
  Basis Set:
  Basis Set: 6-31G*
  Basis Set:
  @DF-RHF Final Energy:  -388.27884901606888
    Total Energy =                       -388.2788490160688752
  Basis Set: 6-31G*
  Basis Set:
  Charge       = 0
  Multiplicity = 1
  Basis Set: 6-31G*
  Basis Set:

    Orbital Energies (a.u.)
    -----------------------

    Doubly Occupied:

       1A    -20.552547     2A    -11.267268     3A    -11.220174
       4A    -11.217409     5A    -11.216198     6A    -11.215466
       7A    -11.215425     8A    -11.213986     9A    -11.209196
      10A     -1.359286    11A     -1.094660    12A     -1.061237
      13A     -1.011249    14A     -0.948229    15A     -0.887634
      16A     -0.820753    17A     -0.798771    18A     -0.781365
      19A     -0.694232    20A     -0.647116    21A     -0.643033
      22A     -0.613345    23A     -0.599292    24A     -0.584314
      25A     -0.579571    26A     -0.552741    27A     -0.545504
      28A     -0.525805    29A     -0.506042    30A     -0.492873
      31A     -0.485845    32A     -0.477310    33A     -0.468751
      34A     -0.459419    35A     -0.450873    36A     -0.440819
      37A     -0.423594

  @DF-RHF Final Energy:  -388.27884910391504

   => Energetics <=

    Nuclear Repulsion Energy =            461.7446122124124486
    One-Electron Energy =               -1441.4842611367864720
    Two-Electron Energy =                 591.4607998204591013
    DFT Exchange-Correlation Energy =       0.0000000000000000
    Empirical Dispersion Energy =           0.0000000000000000
    PCM Polarization Energy =               0.0000000000000000
    EFP Energy =                            0.0000000000000000
    Total Energy =                       -388.2788491039149221
    Molecular point group: c1
  Basis Set: 6-31G*
  Basis Set:

  -Total Gradient:
     Atom            X                  Y                   Z
    ------   -----------------  -----------------  -----------------
       1       -0.000001541126     0.000000966567     0.000000375672
       2       -0.000006848354    -0.000003821399    -0.000002525477
       3        0.000013199328     0.000000819702    -0.000003550542
       4       -0.000004018803     0.000004932218     0.000010202444
       5        0.000002551778    -0.000001312610     0.000002468892
       6       -0.000001091100     0.000001598743    -0.000001239350
       7        0.000010219249    -0.000010363746     0.000002452192
       8       -0.000000092478     0.000001765889     0.000003231359
       9       -0.000002679356    -0.000001143838    -0.000001507512
      10       -0.000414148536     0.000796926865     0.002537721282
      11       -0.000003363874    -0.000004244842    -0.000002235459
      12        0.000001937700     0.000003254251     0.000005444709
      13       -0.000155697703    -0.001527345251    -0.003602926734
      14        0.000005214076    -0.000008104070    -0.000006989392
      15        0.000002063718     0.000009133889     0.000008872514
      16        0.003752404267     0.002540356424     0.001024307197
      17       -0.000007298394     0.000004173813    -0.000003423011
      18       -0.000004785265    -0.000004404372    -0.000003926055
      19       -0.000001929614     0.000005067720     0.000005311349
      20       -0.003193228888    -0.001805532179     0.000031310652
      21        0.000004545254    -0.000001695893     0.000003041486
      22        0.000001386643    -0.000002278367    -0.000003535210
      23        0.000001697224    -0.000002036060     0.000000904735
      24        0.000002199255     0.000002694158    -0.000003385872
      25        0.000000419203     0.000000981240     0.000000189213
      26       -0.000000533918    -0.000001019561    -0.000001172217
      27       -0.000000580288     0.000000630706     0.000000583136

  **** Optimization is complete! (in 7 steps) ****
    Final optimized geometry and variables:
    Molecular point group: c1

    Geometry (in Angstrom), charge = 0, multiplicity = 1:

    H            1.508897830620     1.808659282204     2.123561122398
    O            2.441092338471     1.790562057768     1.962947084534
    C            2.891294309322     0.459825321384     1.938870933509
    C            2.475223668915    -0.292053465194     0.679445972966
    H            3.971040055345     0.513317530582     1.992948636783
    H            2.549414479778    -0.074187258501     2.824680621465
    C            0.961422775542    -0.457827808680     0.526130928894
    H            2.873868303606     0.233715359135    -0.184165880027
    H            2.946635718745    -1.273295408430     0.698942377020
    C            0.575878510401    -1.283478680878    -0.704371447663
    H            0.498146731498     0.523549538050     0.468215473693
    H            0.557980424147    -0.941116120359     1.415804578370
    C           -0.936822902346    -1.446506228145    -0.901817149979
    H            1.012673327742    -0.832806116094    -1.594097259373
    H            1.027819671400    -2.268671788923    -0.612115720762
    C           -1.656998789996    -0.183351925696    -1.405955956350
    H           -1.124231347147    -2.261249574156    -1.595765982242
    H           -1.372425714836    -1.758021259658     0.046259367798
    C           -3.107847705761    -0.089154445646    -0.924755043787
    H           -1.664474434951    -0.188832301682    -2.493832585555
    H           -1.124111567469     0.712888900654    -1.100990202276
    C           -3.849729306523     1.120527701538    -1.491323080589
    H           -3.637331824887    -0.999181503353    -1.200103706099
    H           -3.123117880747    -0.046382619234     0.162378578383
    H           -3.887944943447     1.084493587122    -2.576411891337
    H           -4.871208288469     1.163028442178    -1.125992751068
    H           -3.359262585674     2.048436531852    -1.210193676594

  Mulliken Charges: (a.u.)
   Center  Symbol    Alpha    Beta     Spin     Total
       1     H     0.27985  0.27985  0.00000  0.44030
       2     O     4.37093  4.37093  0.00000 -0.74185
       3     C     2.99758  2.99758  0.00000  0.00484
       4     C     3.16075  3.16075  0.00000 -0.32150
       5     H     0.41438  0.41438  0.00000  0.17123
       6     H     0.43194  0.43194  0.00000  0.13611
       7     C     3.16281  3.16281  0.00000 -0.32561
       8     H     0.41488  0.41488  0.00000  0.17025
       9     H     0.42420  0.42420  0.00000  0.15160
      10     C     3.15338  3.15338  0.00000 -0.30677
      11     H     0.42373  0.42373  0.00000  0.15253
      12     H     0.42518  0.42518  0.00000  0.14964
      13     C     3.15585  3.15585  0.00000 -0.31170
      14     H     0.42141  0.42141  0.00000  0.15717
      15     H     0.42164  0.42164  0.00000  0.15671
      16     C     3.15355  3.15355  0.00000 -0.30710
      17     H     0.41890  0.41890  0.00000  0.16221
      18     H     0.42367  0.42367  0.00000  0.15266
      19     C     3.15258  3.15258  0.00000 -0.30517
      20     H     0.42180  0.42180  0.00000  0.15640
      21     H     0.42163  0.42163  0.00000  0.15673
      22     C     3.23957  3.23957  0.00000 -0.47915
      23     H     0.42274  0.42274  0.00000  0.15451
      24     H     0.42418  0.42418  0.00000  0.15164
      25     H     0.42148  0.42148  0.00000  0.15705
      26     H     0.41932  0.41932  0.00000  0.16137
      27     H     0.42206  0.42206  0.00000  0.15589

   Total alpha = 37.00000, Total beta = 37.00000, Total charge =  0.00000
