  ==> Input File <==

--------------------------------------------------------------------------
set {
	reference rhf
	basis 6-31G*
}

set_num_threads( 4 )
memory 2 gb

molecule MOL {
0 1

H	 -5.582021	 -3.336259	 -1.662710
O	 -5.956371	 -3.961885	 -1.059779
C	 -4.950806	 -4.818617	 -0.581342
C	 -4.008294	 -4.144721	 0.409750
H	 -5.467471	 -5.636675	 -0.096047
H	 -4.383790	 -5.240878	 -1.410177
C	 -3.189995	 -2.998730	 -0.190216
H	 -4.594913	 -3.775089	 1.246779
H	 -3.333780	 -4.902421	 0.805083
C	 -2.215084	 -2.378882	 0.814848
H	 -3.865925	 -2.232647	 -0.559813
H	 -2.630501	 -3.365272	 -1.051003
C	 -1.309753	 -1.282496	 0.241564
H	 -2.776007	 -1.978344	 1.657334
H	 -1.585466	 -3.168964	 1.218645
C	 -2.037799	 -0.007733	 -0.193645
H	 -0.571570	 -1.019551	 0.996390
H	 -0.749320	 -1.683584	 -0.601573
C	 -3.489788	 0.042957	 0.286558
H	 -2.017067	 0.064384	 -1.280144
H	 -1.513726	 0.868678	 0.179924
C	 -4.216917	 1.317354	 -0.141063
H	 -4.025645	 -0.823308	 -0.095450
H	 -3.513059	 -0.038752	 1.371301
H	 -4.239342	 1.411634	 -1.223113
H	 -5.243387	 1.322503	 0.212445
H	 -3.726170	 2.201406	 0.256408

	symmetry c1
}
set optking {
	frozen_dihedral = ("
		10 13 16 20
	")
}

ee = optimize('scf')
oeprop('DIPOLE', 'QUADRUPOLE', 'MULLIKEN_CHARGES')
f=open( 'psi4out.xyz', 'w' )
f.write( "27  " )
f.write( str(ee) + "\n" )
f.write( MOL.save_string_xyz() )
f.close()
--------------------------------------------------------------------------

    Molecular point group: c1
  Charge       = 0
  Multiplicity = 1
  Basis Set: 6-31G*
  Basis Set:
  @DF-RHF Final Energy:  -388.25796802654975
    Total Energy =                       -388.2579680265503157
    Molecular point group: c1
  Basis Set: 6-31G*
  Basis Set:
  Basis Set: 6-31G*
  Basis Set:
  @DF-RHF Final Energy:  -388.26905993292030
    Total Energy =                       -388.2690599329202996
  Basis Set: 6-31G*
  Basis Set:
  Basis Set: 6-31G*
  Basis Set:
  @DF-RHF Final Energy:  -388.27146251710479
    Total Energy =                       -388.2714625171046237
  Basis Set: 6-31G*
  Basis Set:
  Basis Set: 6-31G*
  Basis Set:
  @DF-RHF Final Energy:  -388.27181605588214
    Total Energy =                       -388.2718160558823683
  Basis Set: 6-31G*
  Basis Set:
  @DF-RHF Final Energy:  -388.27208120656314
    Total Energy =                       -388.2720812065629161
  Basis Set: 6-31G*
  Basis Set:
  @DF-RHF Final Energy:  -388.27212917829252
    Total Energy =                       -388.2721291782912658
  Basis Set: 6-31G*
  Basis Set:
  Basis Set: 6-31G*
  Basis Set:
  @DF-RHF Final Energy:  -388.27217503632704
    Total Energy =                       -388.2721750363268711
  Basis Set: 6-31G*
  Basis Set:
  Basis Set: 6-31G*
  Basis Set:
  @DF-RHF Final Energy:  -388.27217912256600
    Total Energy =                       -388.2721791225658308
  Basis Set: 6-31G*
  Basis Set:
  Charge       = 0
  Multiplicity = 1
  Basis Set: 6-31G*
  Basis Set:

    Orbital Energies (a.u.)
    -----------------------

    Doubly Occupied:

       1A    -20.552253     2A    -11.266950     3A    -11.219204
       4A    -11.216625     5A    -11.216149     6A    -11.215973
       7A    -11.214972     8A    -11.214811     9A    -11.209019
      10A     -1.358981    11A     -1.092903    12A     -1.058782
      13A     -1.009679    14A     -0.949005    15A     -0.887179
      16A     -0.834368    17A     -0.799534    18A     -0.764081
      19A     -0.693919    20A     -0.646632    21A     -0.641538
      22A     -0.614225    23A     -0.600417    24A     -0.582475
      25A     -0.574358    26A     -0.571548    27A     -0.531517
      28A     -0.516272    29A     -0.511173    30A     -0.496872
      31A     -0.486536    32A     -0.483034    33A     -0.468387
      34A     -0.449122    35A     -0.447233    36A     -0.443468
      37A     -0.421088

  @DF-RHF Final Energy:  -388.27218003265807

   => Energetics <=

    Nuclear Repulsion Energy =            470.6020421842371206
    One-Electron Energy =               -1459.2278839247269389
    Two-Electron Energy =                 600.3536617078323161
    DFT Exchange-Correlation Energy =       0.0000000000000000
    Empirical Dispersion Energy =           0.0000000000000000
    PCM Polarization Energy =               0.0000000000000000
    EFP Energy =                            0.0000000000000000
    Total Energy =                       -388.2721800326575021
    Molecular point group: c1
  Basis Set: 6-31G*
  Basis Set:

  -Total Gradient:
     Atom            X                  Y                   Z
    ------   -----------------  -----------------  -----------------
       1       -0.000008536922    -0.000007685123     0.000000464419
       2       -0.000012485549    -0.000013787583    -0.000010217705
       3        0.000019854394     0.000013137621    -0.000016721642
       4       -0.000007736317     0.000014521160     0.000015074245
       5        0.000005968013     0.000007955745     0.000004285783
       6       -0.000006140744    -0.000001328842    -0.000010040854
       7        0.000040821027    -0.000054267492    -0.000004253698
       8       -0.000002552805     0.000005476874     0.000009855186
       9        0.000002909638     0.000011810025    -0.000010790509
      10        0.000990586409     0.001784198841     0.004583780016
      11       -0.000026026390     0.000030479971    -0.000000559809
      12       -0.000007966890    -0.000012178789     0.000004124566
      13       -0.000065066355    -0.001851189819    -0.006710270927
      14       -0.000004669361     0.000002223290     0.000002100458
      15        0.000008367810    -0.000001059880     0.000008321465
      16       -0.006763189387    -0.002997531165     0.002137517580
      17       -0.000011106542     0.000000166859    -0.000007504435
      18        0.000002206141     0.000001540357     0.000001453268
      19        0.000025070632     0.000013029636     0.000003407069
      20        0.005845119867     0.003095264858     0.000003055817
      21        0.000020656856    -0.000014268593     0.000007195261
      22       -0.000003683765    -0.000003702495     0.000001622080
      23       -0.000044437772    -0.000031335207    -0.000001177258
      24        0.000006997093     0.000009087702    -0.000008532308
      25        0.000002345041     0.000002402486    -0.000007362899
      26       -0.000007243591     0.000002756202     0.000001866379
      27       -0.000000060530    -0.000005716627     0.000003308454

  **** Optimization is complete! (in 9 steps) ****
    Final optimized geometry and variables:
    Molecular point group: c1

    Geometry (in Angstrom), charge = 0, multiplicity = 1:

    H           -1.843644110063    -1.693687244657    -1.819558306528
    O           -2.279684448749    -2.239177030347    -1.181230024602
    C           -1.328381858421    -2.999188411301    -0.480080225878
    C           -0.509845712746    -2.174234430825     0.506843497053
    H           -1.890611320903    -3.755230828680     0.052779245855
    H           -0.667710906117    -3.517055876396    -1.174386378827
    C            0.356048424786    -1.096920039705    -0.149947295636
    H           -1.189637473936    -1.712418099429     1.218240925697
    H            0.126184964343    -2.854034590303     1.071652457049
    C            1.237078900132    -0.344197329487     0.852695546781
    H           -0.281778545113    -0.393211365370    -0.678103035709
    H            0.997211655162    -1.556356746129    -0.902151486586
    C            2.084018817453     0.777138191164     0.233050772792
    H            0.624733439659     0.047751450929     1.658808868094
    H            1.913525614130    -1.061206455716     1.312719464528
    C            1.376675444807     2.111777427842    -0.130380781292
    H            2.872018362574     1.004849418400     0.945891480409
    H            2.591350962797     0.390935852616    -0.646919768133
    C            0.012812689144     2.400507545298     0.501416195176
    H            1.321089559230     2.216715358191    -1.211628242752
    H            2.043740283748     2.917897633000     0.168861928906
    C           -0.526542235065     3.771586553190     0.092494685235
    H           -0.710595526270     1.640170852857     0.224917249659
    H            0.098023329005     2.362419751457     1.584648554775
    H           -0.654825398019     3.837350036465    -0.984309359034
    H           -1.490235767796     3.966682155586     0.552623608146
    H            0.150770033547     4.566099809584     0.392652657139

  Mulliken Charges: (a.u.)
   Center  Symbol    Alpha    Beta     Spin     Total
       1     H     0.27984  0.27984  0.00000  0.44032
       2     O     4.37104  4.37104  0.00000 -0.74209
       3     C     2.99742  2.99742  0.00000  0.00516
       4     C     3.16138  3.16138  0.00000 -0.32276
       5     H     0.41452  0.41452  0.00000  0.17096
       6     H     0.43199  0.43199  0.00000  0.13602
       7     C     3.16267  3.16267  0.00000 -0.32533
       8     H     0.41513  0.41513  0.00000  0.16974
       9     H     0.42429  0.42429  0.00000  0.15141
      10     C     3.15537  3.15537  0.00000 -0.31074
      11     H     0.42374  0.42374  0.00000  0.15252
      12     H     0.42525  0.42525  0.00000  0.14950
      13     C     3.15774  3.15774  0.00000 -0.31548
      14     H     0.41834  0.41834  0.00000  0.16332
      15     H     0.42118  0.42118  0.00000  0.15765
      16     C     3.15596  3.15596  0.00000 -0.31191
      17     H     0.42009  0.42009  0.00000  0.15981
      18     H     0.42121  0.42121  0.00000  0.15757
      19     C     3.15628  3.15628  0.00000 -0.31255
      20     H     0.42264  0.42264  0.00000  0.15472
      21     H     0.42158  0.42158  0.00000  0.15684
      22     C     3.23928  3.23928  0.00000 -0.47855
      23     H     0.41910  0.41910  0.00000  0.16181
      24     H     0.42184  0.42184  0.00000  0.15632
      25     H     0.42198  0.42198  0.00000  0.15605
      26     H     0.41844  0.41844  0.00000  0.16312
      27     H     0.42171  0.42171  0.00000  0.15658

   Total alpha = 37.00000, Total beta = 37.00000, Total charge = -0.00000
