  ==> Input File <==

--------------------------------------------------------------------------
set {
	reference rhf
	basis 6-31G*
}

set_num_threads( 4 )
memory 2 gb

molecule MOL {
0 1

H	 2.176868	 -0.646004	 -0.217325
O	 1.337496	 -0.537251	 0.205931
C	 0.702312	 0.627605	 -0.264544
C	 -0.714990	 0.596302	 0.266387
H	 0.682322	 0.642550	 -1.350929
H	 1.215941	 1.520383	 0.085680
O	 -1.405996	 -0.526611	 -0.195820
H	 -1.257453	 1.468809	 -0.075599
H	 -0.688972	 0.618407	 1.353696
H	 -1.673127	 -1.032884	 0.560714

	symmetry c1
}
set optking {
	frozen_dihedral = ("
		10 7 4 3
	")
}

ee = optimize('scf')
oeprop('DIPOLE', 'QUADRUPOLE', 'MULLIKEN_CHARGES')
f=open( 'psi4out.xyz', 'w' )
f.write( "10  " )
f.write( str(ee) + "\n" )
f.write( MOL.save_string_xyz() )
f.close()
--------------------------------------------------------------------------

    Molecular point group: c1
  Charge       = 0
  Multiplicity = 1
  Basis Set: 6-31G*
  Basis Set:
  @DF-RHF Final Energy:  -228.91862884959295
    Total Energy =                       -228.9186288495928352
    Molecular point group: c1
  Basis Set: 6-31G*
  Basis Set:
  Basis Set: 6-31G*
  Basis Set:
  @DF-RHF Final Energy:  -228.91993359763126
    Total Energy =                       -228.9199335976313137
  Basis Set: 6-31G*
  Basis Set:
  Basis Set: 6-31G*
  Basis Set:
  @DF-RHF Final Energy:  -228.92005142440070
    Total Energy =                       -228.9200514244007820
  Basis Set: 6-31G*
  Basis Set:
  Basis Set: 6-31G*
  Basis Set:
  @DF-RHF Final Energy:  -228.92006071663002
    Total Energy =                       -228.9200607166299335
  Basis Set: 6-31G*
  Basis Set:
  Basis Set: 6-31G*
  Basis Set:
  @DF-RHF Final Energy:  -228.92006273796230
    Total Energy =                       -228.9200627379622972
  Basis Set: 6-31G*
  Basis Set:
  Charge       = 0
  Multiplicity = 1
  Basis Set: 6-31G*
  Basis Set:

    Orbital Energies (a.u.)
    -----------------------

    Doubly Occupied:

       1A    -20.555133     2A    -20.550627     3A    -11.269549
       4A    -11.268430     5A     -1.371069     6A     -1.349624
       7A     -1.001382     8A     -0.833510     9A     -0.720426
      10A     -0.698556    11A     -0.621138    12A     -0.596227
      13A     -0.583977    14A     -0.521901    15A     -0.481931
      16A     -0.445138    17A     -0.432595

  @DF-RHF Final Energy:  -228.92006301750575

   => Energetics <=

    Nuclear Repulsion Energy =            133.4664153787740588
    One-Electron Energy =                -578.1705311485985703
    Two-Electron Energy =                 215.7840527523187291
    DFT Exchange-Correlation Energy =       0.0000000000000000
    Empirical Dispersion Energy =           0.0000000000000000
    PCM Polarization Energy =               0.0000000000000000
    EFP Energy =                            0.0000000000000000
    Total Energy =                       -228.9200630175057825
    Molecular point group: c1
  Basis Set: 6-31G*
  Basis Set:

  -Total Gradient:
     Atom            X                  Y                   Z
    ------   -----------------  -----------------  -----------------
       1        0.000007205636    -0.000002608925     0.000005443484
       2       -0.000015410158    -0.000004713509    -0.000018776762
       3       -0.000349916461     0.000733632000    -0.000948050999
       4        0.000141446793    -0.000725531112     0.001403084328
       5       -0.000001422858     0.000001735698    -0.000010417883
       6       -0.000009139784     0.000001341115    -0.000014524941
       7        0.001978153460    -0.001079784892    -0.000598500323
       8       -0.000012790483    -0.000013014190     0.000001585602
       9       -0.000007936749     0.000002900799     0.000000952595
      10       -0.001730189394     0.001086043020     0.000179204900

  **** Optimization is complete! (in 6 steps) ****
    Final optimized geometry and variables:
    Molecular point group: c1

    Geometry (in Angstrom), charge = 0, multiplicity = 1:

    H            2.212503168396    -0.637067333791    -0.211143885138
    O            1.405253838660    -0.500885626095     0.263288078104
    C            0.700734921896     0.576927386807    -0.293479921926
    C           -0.701495482069     0.569266445329     0.270153440716
    H            0.643597030703     0.493378638640    -1.375292536581
    H            1.182964000487     1.522664263542    -0.048772716360
    O           -1.434480983567    -0.505354987664    -0.255792195682
    H           -1.197770648484     1.497568452130     0.001452470609
    H           -0.646232750407     0.521585834182     1.353056509833
    H           -1.722148941718    -1.075894701074     0.439479479527

  Mulliken Charges: (a.u.)
   Center  Symbol    Alpha    Beta     Spin     Total
       1     H     0.27924  0.27924  0.00000  0.44153
       2     O     4.37076  4.37076  0.00000 -0.74152
       3     C     2.99961  2.99961  0.00000  0.00079
       4     C     3.00283  3.00283  0.00000 -0.00566
       5     H     0.42255  0.42255  0.00000  0.15490
       6     H     0.43304  0.43304  0.00000  0.13391
       7     O     4.36972  4.36972  0.00000 -0.73945
       8     H     0.42379  0.42379  0.00000  0.15242
       9     H     0.42191  0.42191  0.00000  0.15618
      10     H     0.27655  0.27655  0.00000  0.44690

   Total alpha = 17.00000, Total beta = 17.00000, Total charge =  0.00000
