  ==> Input File <==

--------------------------------------------------------------------------
set {
	reference rhf
	basis cc-pvtz
}

set_num_threads( 4 )
memory 2 gb

molecule MOL {
0 1

H	 1.464006	 1.131568	 -0.588400
C	 0.848385	 0.440008	 0.000011
C	 -0.623497	 0.751021	 0.000090
O	 1.351657	 -0.464188	 0.571317
C	 -1.523725	 -0.474323	 -0.000013
H	 -0.813143	 1.382932	 -0.864897
H	 -0.813071	 1.382716	 0.865253
H	 -1.342980	 -1.087348	 -0.873016
H	 -2.565269	 -0.177464	 0.000070
H	 -1.342898	 -1.087564	 0.872820

	symmetry c1
}
set optking {
	frozen_dihedral = ("
		4 2 3 6
	")
}

ee = optimize('scf')
oeprop('DIPOLE', 'QUADRUPOLE', 'MULLIKEN_CHARGES')
f=open( 'psi4out.xyz', 'w' )
f.write( "10  " )
f.write( str(ee) + "\n" )
f.write( MOL.save_string_xyz() )
f.close()
--------------------------------------------------------------------------

    Molecular point group: c1
  Charge       = 0
  Multiplicity = 1
  Basis Set: CC-PVTZ
  Basis Set:
  @DF-RHF Final Energy:  -192.02238334715776
    Total Energy =                       -192.0223833471579269
    Molecular point group: c1
  Basis Set: CC-PVTZ
  Basis Set:
  Basis Set: CC-PVTZ
  Basis Set:
  @DF-RHF Final Energy:  -192.02129815719746
    Total Energy =                       -192.0212981571974353
  Basis Set: CC-PVTZ
  Basis Set:
  Basis Set: CC-PVTZ
  Basis Set:
  @DF-RHF Final Energy:  -192.02270799894177
    Total Energy =                       -192.0227079989417973
  Basis Set: CC-PVTZ
  Basis Set:
  Charge       = 0
  Multiplicity = 1
  Basis Set: CC-PVTZ
  Basis Set:

    Orbital Energies (a.u.)
    -----------------------

    Doubly Occupied:

       1A    -20.553271     2A    -11.323711     3A    -11.238975
       4A    -11.220640     5A     -1.409079     6A     -1.060997
       7A     -0.909993     8A     -0.777711     9A     -0.686356
      10A     -0.639736    11A     -0.623572    12A     -0.554713
      13A     -0.536816    14A     -0.517438    15A     -0.493491
      16A     -0.415389

  @DF-RHF Final Energy:  -192.02282066688059

   => Energetics <=

    Nuclear Repulsion Energy =            119.0996183987013382
    One-Electron Energy =                -496.3211035903818242
    Two-Electron Energy =                 185.1986645247998524
    DFT Exchange-Correlation Energy =       0.0000000000000000
    Empirical Dispersion Energy =           0.0000000000000000
    PCM Polarization Energy =               0.0000000000000000
    EFP Energy =                            0.0000000000000000
    Total Energy =                       -192.0228206668806195
    Molecular point group: c1
  Basis Set: CC-PVTZ
  Basis Set:

  -Total Gradient:
     Atom            X                  Y                   Z
    ------   -----------------  -----------------  -----------------
       1        0.000096408444     0.000025425895    -0.000049675199
       2       -0.000158576774    -0.001729912449    -0.002724232720
       3       -0.000424791084    -0.001872343630    -0.000784680548
       4        0.000154565632     0.001614770534     0.002132703474
       5       -0.000052133357    -0.000016105950    -0.000096114155
       6        0.000390761681     0.002028179260     0.001565035112
       7        0.000044906268     0.000046232537    -0.000032771928
       8       -0.000039960038    -0.000108485300    -0.000020168676
       9       -0.000008938051    -0.000016640008     0.000022000283
      10       -0.000002242722     0.000028879112    -0.000012095643

  **** Optimization is complete! (in 4 steps) ****
    Final optimized geometry and variables:
    Molecular point group: c1

    Geometry (in Angstrom), charge = 0, multiplicity = 1:

    H            1.496225798848     1.107302603118    -0.669962433092
    C            0.847205145456     0.394679165823    -0.146956183702
    C           -0.628362505006     0.709261417709    -0.176583458162
    O            1.321092759415    -0.518763439719     0.435017154036
    C           -1.525900371065    -0.521073805369    -0.139347489050
    H           -0.837715207057     1.345824047951    -1.029129279237
    H           -0.807167129956     1.330900275514     0.699446671297
    H           -1.381521008344    -1.135269457960    -1.020197969911
    H           -2.567559773057    -0.228006915045    -0.100201157065
    H           -1.306050987606    -1.127693180889     0.727524016975

  Mulliken Charges: (a.u.)
   Center  Symbol    Alpha    Beta     Spin     Total
       1     H     0.45419  0.45419  0.00000  0.09161
       2     C     2.91501  2.91501  0.00000  0.16998
       3     C     3.08358  3.08358  0.00000 -0.16716
       4     O     4.16633  4.16633  0.00000 -0.33267
       5     C     3.14185  3.14185  0.00000 -0.28371
       6     H     0.44852  0.44852  0.00000  0.10296
       7     H     0.44725  0.44725  0.00000  0.10549
       8     H     0.45218  0.45218  0.00000  0.09563
       9     H     0.44904  0.44904  0.00000  0.10192
      10     H     0.44203  0.44203  0.00000  0.11594

   Total alpha = 16.00000, Total beta = 16.00000, Total charge =  0.00000
