                              Psi4 1.0.54 Driver

  ==> Input File <==

--------------------------------------------------------------------------
set {
	reference rhf
	basis cc-pvtz
}

set_num_threads( 4 )
memory 2 gb

molecule MOL {
0 1

H	 -2.698799	 -0.000846	 0.036018
C	 -1.694291	 -0.000483	 0.434279
O	 -0.828718	 -0.000608	 -0.655022
H	 -1.576855	 0.881100	 1.056504
H	 -1.576401	 -0.881658	 1.057001
C	 0.557892	 0.000078	 -0.420099
C	 1.238513	 -1.266133	 -0.927777
C	 1.237466	 1.266386	 -0.928914
H	 0.625762	 0.000590	 0.660647
H	 0.708970	 -2.144339	 -0.579359
H	 2.255189	 -1.311576	 -0.554882
H	 1.286125	 -1.300204	 -2.009977
H	 0.707255	 2.144471	 -0.581226
H	 2.254155	 1.312972	 -0.556158
H	 1.284947	 1.299556	 -2.011128

	symmetry c1
}
set optking {
	frozen_dihedral = ("
		9 6 3 2
	")
}

ee,wfn = optimize('scf', return_wfn=True)
oeprop( wfn, 'DIPOLE', 'QUADRUPOLE', 'MULLIKEN_CHARGES')
f=open( 'psi4out.xyz', 'w' )
f.write( "15  " )
f.write( str(ee) + "\n" )
f.write( MOL.save_string_xyz() )
f.close()
--------------------------------------------------------------------------

    Molecular point group: c1
  Charge       = 0
  Multiplicity = 1
  Basis Set: CC-PVTZ
  Basis Set:
  @DF-RHF Final Energy:  -232.22496245631470
    Total Energy =                       -232.2249624563146995
    Molecular point group: c1
  Basis Set: CC-PVTZ
  Basis Set:
  Basis Set: CC-PVTZ
  Basis Set:
  @DF-RHF Final Energy:  -232.22809539045500
    Total Energy =                       -232.2280953904548824
  Basis Set: CC-PVTZ
  Basis Set:
  Basis Set: CC-PVTZ
  Basis Set:
  @DF-RHF Final Energy:  -232.22869820198093
    Total Energy =                       -232.2286982019808192
  Basis Set: CC-PVTZ
  Basis Set:
  Basis Set: CC-PVTZ
  Basis Set:
  @DF-RHF Final Energy:  -232.22874850746501
    Total Energy =                       -232.2287485074651272
  Basis Set: CC-PVTZ
  Basis Set:
  Basis Set: CC-PVTZ
  Basis Set:
  @DF-RHF Final Energy:  -232.22875025573674
    Total Energy =                       -232.2287502557368271
  Basis Set: CC-PVTZ
  Basis Set:
  Charge       = 0
  Multiplicity = 1
  Basis Set: CC-PVTZ
  Basis Set:

    Orbital Energies (a.u.)
    -----------------------

    Doubly Occupied:

       1A    -20.541979     2A    -11.272401     3A    -11.262268
       4A    -11.205431     5A    -11.205415     6A     -1.376474
       7A     -1.053657     8A     -0.936650     9A     -0.918831
      10A     -0.796064    11A     -0.670112    12A     -0.644076
      13A     -0.636632    14A     -0.579714    15A     -0.554480
      16A     -0.540299    17A     -0.538010    18A     -0.497602
      19A     -0.487883    20A     -0.458843    21A     -0.406953

  @DF-RHF Final Energy:  -232.22875053077354

   => Energetics <=

    Nuclear Repulsion Energy =            197.0195656362666909
    One-Electron Energy =                -705.3290811843583015
    Two-Electron Energy =                 276.0807650173182992
    DFT Exchange-Correlation Energy =       0.0000000000000000
    Empirical Dispersion Energy =           0.0000000000000000
    PCM Polarization Energy =               0.0000000000000000
    EFP Energy =                            0.0000000000000000
    Total Energy =                       -232.2287505307733113
    Molecular point group: c1
  Basis Set: CC-PVTZ
  Basis Set:

  -Total Gradient:
     Atom            X                  Y                   Z
    ------   -----------------  -----------------  -----------------
       1        0.000012499147     0.000000059854    -0.000011191417
       2       -0.000009210179    -0.000000082830     0.000024179369
       3        0.000040433365     0.000000067011     0.000017718909
       4        0.000001858765    -0.000002455542    -0.000006694417
       5        0.000001875523     0.000002442085    -0.000006609780
       6       -0.000065071835    -0.000000043554    -0.000017544823
       7        0.000018989241    -0.000011709034     0.000000307448
       8        0.000018962740     0.000011734763     0.000000271993
       9        0.000004500313    -0.000000012298     0.000004818708
      10        0.000004100882    -0.000000357638    -0.000000373300
      11       -0.000018281118     0.000001960381    -0.000003493297
      12        0.000001754173     0.000000462686     0.000001240484
      13        0.000004090930     0.000000369974    -0.000000369378
      14       -0.000018258928    -0.000001989446    -0.000003490299
      15        0.000001756984    -0.000000446411     0.000001229800

  **** Optimization is complete! (in 6 steps) ****
    Final optimized geometry and variables:
    Molecular point group: c1

    Geometry (in Angstrom), charge = 0, multiplicity = 1:

    H           -2.773730920803    -0.001266284131     0.432369167959
    C           -1.776922086042    -0.000630481219     0.849990364719
    O           -0.876218060592    -0.000508898118    -0.207322416555
    H           -1.665417945421     0.881916891329     1.476011151781
    H           -1.664525371284    -0.882668429284     1.476569352277
    C            0.488738313503     0.000290301488     0.135550452435
    C            1.134734648695    -1.263548981408    -0.409250225688
    C            1.133455347583     1.264437552189    -0.410050633323
    H            0.585273744114     0.000681936022     1.218558418145
    H            0.655998323578    -2.143924950460     0.002350108397
    H            2.189303141543    -1.299051185073    -0.159360344787
    H            1.035024258676    -1.298839064165    -1.487758768028
    H            0.653828496441     2.144588989354     0.000992816591
    H            2.187987462372     1.301164945346    -0.160184182405
    H            1.033709073144     1.298944135195    -1.488581221011

  Mulliken Charges: (a.u.)
   Center  Symbol    Alpha    Beta     Spin     Total
       1     H     0.44963  0.44963  0.00000  0.10074
       2     C     3.03348  3.03348  0.00000 -0.06696
       3     O     4.18863  4.18863  0.00000 -0.37725
       4     H     0.47058  0.47058  0.00000  0.05883
       5     H     0.47058  0.47058  0.00000  0.05883
       6     C     2.92092  2.92092  0.00000  0.15816
       7     C     3.13822  3.13822  0.00000 -0.27643
       8     C     3.13822  3.13822  0.00000 -0.27643
       9     H     0.46832  0.46832  0.00000  0.06336
      10     H     0.45084  0.45084  0.00000  0.09831
      11     H     0.45732  0.45732  0.00000  0.08536
      12     H     0.45255  0.45255  0.00000  0.09491
      13     H     0.45084  0.45084  0.00000  0.09831
      14     H     0.45732  0.45732  0.00000  0.08536
      15     H     0.45255  0.45255  0.00000  0.09491

   Total alpha = 21.00000, Total beta = 21.00000, Total charge =  0.00000

*** Psi4 exiting successfully. Buy a developer a beer!
