  ==> Input File <==

--------------------------------------------------------------------------
set {
	reference rhf
	basis cc-pvtz
}

set_num_threads( 4 )
memory 2 gb

molecule MOL {
0 1

H	 0.606696	 0.952530	 2.331373
C	 1.286919	 0.617976	 1.537003
C	 0.692262	 0.592428	 0.156232
O	 2.396612	 0.307145	 1.800819
C	 -0.554654	 -0.292621	 0.086567
H	 1.451923	 0.258573	 -0.538240
H	 0.423941	 1.614894	 -0.101539
C	 -1.846385	 0.513195	 -0.016346
H	 -0.473986	 -0.956115	 -0.769708
H	 -0.597929	 -0.929215	 0.966651
C	 -3.089953	 -0.365049	 -0.098564
H	 -1.798267	 1.154820	 -0.891143
H	 -1.925398	 1.173265	 0.842889
H	 -3.055079	 -1.012299	 -0.968245
H	 -3.988403	 0.236438	 -0.170014
H	 -3.183055	 -0.995885	 0.779079

	symmetry c1
}
set optking {
	frozen_dihedral = ("
		6 3 5 9
	")
}

ee = optimize('scf')
oeprop('DIPOLE', 'QUADRUPOLE', 'MULLIKEN_CHARGES')
f=open( 'psi4out.xyz', 'w' )
f.write( "16  " )
f.write( str(ee) + "\n" )
f.write( MOL.save_string_xyz() )
f.close()
--------------------------------------------------------------------------

    Molecular point group: c1
  Charge       = 0
  Multiplicity = 1
  Basis Set: CC-PVTZ
  Basis Set:
  @DF-RHF Final Energy:  -270.11434645123512
    Total Energy =                       -270.1143464512350647
    Molecular point group: c1
  Basis Set: CC-PVTZ
  Basis Set:
  Basis Set: CC-PVTZ
  Basis Set:
  @DF-RHF Final Energy:  -270.11432348889707
    Total Energy =                       -270.1143234888970710
  Basis Set: CC-PVTZ
  Basis Set:
  Basis Set: CC-PVTZ
  Basis Set:
  @DF-RHF Final Energy:  -270.11171102700285
    Total Energy =                       -270.1117110270027410
  Basis Set: CC-PVTZ
  Basis Set:
  Basis Set: CC-PVTZ
  Basis Set:
  @DF-RHF Final Energy:  -270.11475860587359
    Total Energy =                       -270.1147586058734191
  Basis Set: CC-PVTZ
  Basis Set:
  @DF-RHF Final Energy:  -270.11480279959960
    Total Energy =                       -270.1148027995993743
  Basis Set: CC-PVTZ
  Basis Set:
  @DF-RHF Final Energy:  -270.11482937249065
    Total Energy =                       -270.1148293724905898
  Basis Set: CC-PVTZ
  Basis Set:
  Basis Set: CC-PVTZ
  Basis Set:
  @DF-RHF Final Energy:  -270.11483876204341
    Total Energy =                       -270.1148387620435187
  Basis Set: CC-PVTZ
  Basis Set:
  Basis Set: CC-PVTZ
  Basis Set:
  @DF-RHF Final Energy:  -270.11484098777896
    Total Energy =                       -270.1148409877787913
  Basis Set: CC-PVTZ
  Basis Set:
  Charge       = 0
  Multiplicity = 1
  Basis Set: CC-PVTZ
  Basis Set:

    Orbital Energies (a.u.)
    -----------------------

    Doubly Occupied:

       1A    -20.551399     2A    -11.321777     3A    -11.234501
       4A    -11.233864     5A    -11.229223     6A    -11.217734
       7A     -1.406736     8A     -1.097129     9A     -1.019544
      10A     -0.907295    11A     -0.819965    12A     -0.793090
      13A     -0.672149    14A     -0.658528    15A     -0.618442
      16A     -0.611115    17A     -0.583678    18A     -0.558140
      19A     -0.536611    20A     -0.509455    21A     -0.485492
      22A     -0.484028    23A     -0.475763    24A     -0.412305

  @DF-RHF Final Energy:  -270.11484104929104

   => Energetics <=

    Nuclear Repulsion Energy =            230.2239908535434836
    One-Electron Energy =                -821.8017332134661501
    Two-Electron Energy =                 321.4629013106317643
    DFT Exchange-Correlation Energy =       0.0000000000000000
    Empirical Dispersion Energy =           0.0000000000000000
    PCM Polarization Energy =               0.0000000000000000
    EFP Energy =                            0.0000000000000000
    Total Energy =                       -270.1148410492909306
    Molecular point group: c1
  Basis Set: CC-PVTZ
  Basis Set:

  -Total Gradient:
     Atom            X                  Y                   Z
    ------   -----------------  -----------------  -----------------
       1       -0.000007932867     0.000003134196    -0.000005272694
       2        0.000012594688    -0.000011236371     0.000001958626
       3        0.001069735861    -0.001782311625     0.002001946442
       4       -0.000004070650     0.000003504189    -0.000003910035
       5       -0.001187241955     0.001923863635    -0.001722355700
       6       -0.000700199256     0.001173554176    -0.001376276209
       7       -0.000001627639     0.000000858307     0.000001461277
       8        0.000005520316     0.000002151144     0.000023181355
       9        0.000816274390    -0.001320855263     0.001087324221
      10       -0.000001351253     0.000010892039    -0.000001566902
      11       -0.000001574121    -0.000001117999    -0.000010147263
      12       -0.000000731064    -0.000009503215     0.000002451285
      13        0.000000033850     0.000005186716     0.000001399699
      14       -0.000000445436    -0.000003010100     0.000001603652
      15       -0.000001100408     0.000000232111    -0.000002053321
      16        0.000002115546     0.000004658060     0.000000255571

  **** Optimization is complete! (in 9 steps) ****
    Final optimized geometry and variables:
    Molecular point group: c1

    Geometry (in Angstrom), charge = 0, multiplicity = 1:

    H            0.740021252115     0.543193227488     1.761105420883
    C            1.471843401411     0.365713816529     0.961602380254
    C            0.899655838134     0.316869341271    -0.428236768025
    O            2.615886358228     0.231761454640     1.226399259449
    C           -0.376011790397    -0.544364797684    -0.519657078625
    H            1.671011539771    -0.020511233440    -1.106004358619
    H            0.668081079252     1.343149345436    -0.704911483124
    C           -1.667410773859     0.264094963119    -0.609706015762
    H           -0.295134575472    -1.204623839988    -1.375207596428
    H           -0.432377516774    -1.203770810646     0.343260224371
    C           -2.914990055895    -0.609386380935    -0.670420975407
    H           -1.626343920891     0.900305128571    -1.489256857267
    H           -1.735308614989     0.932165641376     0.245050638589
    H           -2.889585223908    -1.267000936370    -1.532758211331
    H           -3.811954005843    -0.005628036933    -0.741103392627
    H           -3.002490377858    -1.229917532735     0.215007008178

  Mulliken Charges: (a.u.)
   Center  Symbol    Alpha    Beta     Spin     Total
       1     H     0.46577  0.46577  0.00000  0.06846
       2     C     2.90373  2.90373  0.00000  0.19254
       3     C     3.08752  3.08752  0.00000 -0.17504
       4     O     4.16452  4.16452  0.00000 -0.32904
       5     C     3.10864  3.10864  0.00000 -0.21728
       6     H     0.43607  0.43607  0.00000  0.12786
       7     H     0.44946  0.44946  0.00000  0.10107
       8     C     3.08400  3.08400  0.00000 -0.16800
       9     H     0.44130  0.44130  0.00000  0.11741
      10     H     0.45071  0.45071  0.00000  0.09859
      11     C     3.14959  3.14959  0.00000 -0.29919
      12     H     0.45136  0.45136  0.00000  0.09729
      13     H     0.45364  0.45364  0.00000  0.09273
      14     H     0.45345  0.45345  0.00000  0.09311
      15     H     0.44658  0.44658  0.00000  0.10684
      16     H     0.45366  0.45366  0.00000  0.09268

   Total alpha = 24.00000, Total beta = 24.00000, Total charge = -0.00000
