  ==> Input File <==

--------------------------------------------------------------------------
set {
	reference rhf
	basis 6-31G*
}

set_num_threads( 4 )
memory 2 gb

molecule MOL {
0 1

H	 -3.420663	 1.227371	 -1.044276
O	 -3.452007	 0.283848	 -0.965577
C	 -3.181085	 -0.079926	 0.364119
C	 -1.765924	 0.277073	 0.805136
H	 -3.327791	 -1.152017	 0.410903
H	 -3.905698	 0.375695	 1.036898
C	 -0.677594	 -0.417312	 -0.014550
H	 -1.637766	 1.358238	 0.744969
H	 -1.659588	 0.017670	 1.857098
C	 0.738335	 -0.034840	 0.421385
H	 -0.814977	 -0.178223	 -1.064632
H	 -0.802730	 -1.495410	 0.071702
C	 0.780305	 0.591489	 1.817822
H	 1.368629	 -0.920449	 0.392323
H	 1.162011	 0.665134	 -0.297739
C	 2.165803	 1.072895	 2.263690
H	 0.398569	 -0.124027	 2.544465
H	 0.097482	 1.438298	 1.839866
C	 3.194218	 -0.042739	 2.458954
H	 2.057145	 1.613902	 3.200596
H	 2.546222	 1.792295	 1.541229
H	 2.835242	 -0.784362	 3.167665
H	 4.127497	 0.356417	 2.844314
H	 3.419563	 -0.555145	 1.529533

	symmetry c1
}
set optking {
	frozen_dihedral = ("
		13 10 7 11
	")
}

ee = optimize('scf')
oeprop('DIPOLE', 'QUADRUPOLE', 'MULLIKEN_CHARGES')
f=open( 'psi4out.xyz', 'w' )
f.write( "24  " )
f.write( str(ee) + "\n" )
f.write( MOL.save_string_xyz() )
f.close()
--------------------------------------------------------------------------

    Molecular point group: c1
  Charge       = 0
  Multiplicity = 1
  Basis Set: 6-31G*
  Basis Set:
  @DF-RHF Final Energy:  -349.23482394642383
    Total Energy =                       -349.2348239464240578
    Molecular point group: c1
  Basis Set: 6-31G*
  Basis Set:
  Basis Set: 6-31G*
  Basis Set:
  @DF-RHF Final Energy:  -349.23485974349990
    Total Energy =                       -349.2348597434998396
  Basis Set: 6-31G*
  Basis Set:
  Basis Set: 6-31G*
  Basis Set:
  @DF-RHF Final Energy:  -349.23848452388449
    Total Energy =                       -349.2384845238846083
  Basis Set: 6-31G*
  Basis Set:
  Basis Set: 6-31G*
  Basis Set:
  @DF-RHF Final Energy:  -349.23905096184546
    Total Energy =                       -349.2390509618454644
  Basis Set: 6-31G*
  Basis Set:
  @DF-RHF Final Energy:  -349.23909947271210
    Total Energy =                       -349.2390994727126099
  @DF-RHF Final Energy:  -349.23912208562058
    Total Energy =                       -349.2391220856201812
  Basis Set: 6-31G*
  Basis Set:
  @DF-RHF Final Energy:  -349.23912481474247
    Total Energy =                       -349.2391248147420697
  Basis Set: 6-31G*
  Basis Set:
  Basis Set: 6-31G*
  Basis Set:
  @DF-RHF Final Energy:  -349.23912177191414
    Total Energy =                       -349.2391217719141423
  Basis Set: 6-31G*
  Basis Set:
  Basis Set: 6-31G*
  Basis Set:
  @DF-RHF Final Energy:  -349.23912505491137
    Total Energy =                       -349.2391250549115398
  Basis Set: 6-31G*
  Basis Set:
  Charge       = 0
  Multiplicity = 1
  Basis Set: 6-31G*
  Basis Set:

    Orbital Energies (a.u.)
    -----------------------

    Doubly Occupied:

       1A    -20.553644     2A    -11.267456     3A    -11.216632
       4A    -11.215106     5A    -11.213211     6A    -11.212521
       7A    -11.211484     8A    -11.207743     9A     -1.360182
      10A     -1.086773    11A     -1.046244    12A     -0.982714
      13A     -0.916941    14A     -0.855069    15A     -0.809632
      16A     -0.762910    17A     -0.677124    18A     -0.648175
      19A     -0.629552    20A     -0.620855    21A     -0.599934
      22A     -0.580982    23A     -0.554229    24A     -0.547402
      25A     -0.515951    26A     -0.512936    27A     -0.499359
      28A     -0.478792    29A     -0.473911    30A     -0.454119
      31A     -0.445553    32A     -0.438249    33A     -0.424155

  @DF-RHF Final Energy:  -349.23912513995555

   => Energetics <=

    Nuclear Repulsion Energy =            388.4809858423666924
    One-Electron Energy =               -1243.4011432063687153
    Two-Electron Energy =                 505.6810322240466462
    DFT Exchange-Correlation Energy =       0.0000000000000000
    Empirical Dispersion Energy =           0.0000000000000000
    PCM Polarization Energy =               0.0000000000000000
    EFP Energy =                            0.0000000000000000
    Total Energy =                       -349.2391251399554335
    Molecular point group: c1
  Basis Set: 6-31G*
  Basis Set:

  -Total Gradient:
     Atom            X                  Y                   Z
    ------   -----------------  -----------------  -----------------
       1       -0.000000754327     0.000002918666    -0.000003160517
       2       -0.000010697502     0.000008939363     0.000012446108
       3        0.000007973550    -0.000029663106    -0.000005014762
       4        0.000006802243     0.000025971326    -0.000020803042
       5       -0.000008035430    -0.000005155141    -0.000000978101
       6       -0.000002046149     0.000000722315    -0.000009355512
       7        0.002064372384    -0.004412908374    -0.002527279324
       8       -0.000009921233    -0.000007508285    -0.000007666928
       9        0.000015084412     0.000010065598    -0.000000630964
      10        0.000461578973    -0.004402062572     0.002687380987
      11       -0.001929805986     0.005014196957     0.001481600596
      12       -0.000005046964    -0.000004937250     0.000002928997
      13       -0.000600989635     0.003775704248    -0.001608066257
      14        0.000009405691     0.000005809976    -0.000000192693
      15       -0.000011298612     0.000002201017     0.000003872023
      16       -0.000000351263     0.000006196872     0.000000195097
      17        0.000000019899     0.000005777717    -0.000007023609
      18        0.000004274207     0.000003983359     0.000001514211
      19        0.000001195555    -0.000003257962     0.000000462247
      20        0.000001869318     0.000002876396    -0.000003453353
      21        0.000003628754     0.000002133467    -0.000001420425
      22        0.000001879346    -0.000004366747     0.000002231779
      23       -0.000002116481    -0.000000682457    -0.000000544034
      24        0.000002979250     0.000003044617     0.000002957485

  **** Optimization is complete! (in 10 steps) ****
    Final optimized geometry and variables:
    Molecular point group: c1

    Geometry (in Angstrom), charge = 0, multiplicity = 1:

    H           -3.130573129008     0.956271164006    -2.015477331276
    O           -3.110251401668     0.011537535464    -1.949120705599
    C           -2.921502939495    -0.354739593685    -0.605722870784
    C           -1.564287416322     0.068263380928    -0.052048182399
    H           -3.016997103170    -1.433280049572    -0.579186422868
    H           -3.717406458509     0.055885679263     0.013264509019
    C           -0.395914298623    -0.585006014427    -0.800655316946
    H           -1.488690061273     1.153758082320    -0.109556197075
    H           -1.539055608536    -0.184258466486     1.004675876936
    C            1.029826008194    -0.168345341900    -0.355995217219
    H           -0.522613693678    -0.325185521844    -1.845053685869
    H           -0.505266044381    -1.663478746548    -0.723437440659
    C            1.171046993364     0.449441128252     1.040540340490
    H            1.679780444520    -1.032726777835    -0.441110323071
    H            1.414877842797     0.559071231013    -1.068162950260
    C            2.607245062034     0.857886204914     1.392728398132
    H            0.807476813972    -0.244037590268     1.797424577775
    H            0.542700665125     1.332020201447     1.108828579320
    C            3.581198550372    -0.309379191081     1.564815247838
    H            2.583607304869     1.428079627311     2.318312809195
    H            2.985965965125     1.535379808951     0.629887744136
    H            3.221400532613    -1.009826890013     2.313816903166
    H            4.554587122811     0.046785019234     1.888070643973
    H            3.727617514096    -0.858914668710     0.641168658219

  Mulliken Charges: (a.u.)
   Center  Symbol    Alpha    Beta     Spin     Total
       1     H     0.28337  0.28337  0.00000  0.43326
       2     O     4.36846  4.36846  0.00000 -0.73692
       3     C     2.99636  2.99636  0.00000  0.00727
       4     C     3.17220  3.17220  0.00000 -0.34440
       5     H     0.41648  0.41648  0.00000  0.16703
       6     H     0.42788  0.42788  0.00000  0.14424
       7     C     3.15535  3.15535  0.00000 -0.31069
       8     H     0.42834  0.42834  0.00000  0.14333
       9     H     0.42036  0.42036  0.00000  0.15929
      10     C     3.15706  3.15706  0.00000 -0.31412
      11     H     0.40876  0.40876  0.00000  0.18247
      12     H     0.42209  0.42209  0.00000  0.15582
      13     C     3.15540  3.15540  0.00000 -0.31080
      14     H     0.41812  0.41812  0.00000  0.16375
      15     H     0.42370  0.42370  0.00000  0.15261
      16     C     3.15223  3.15223  0.00000 -0.30446
      17     H     0.42506  0.42506  0.00000  0.14989
      18     H     0.42122  0.42122  0.00000  0.15757
      19     C     3.24102  3.24102  0.00000 -0.48204
      20     H     0.42141  0.42141  0.00000  0.15718
      21     H     0.42355  0.42355  0.00000  0.15289
      22     H     0.42245  0.42245  0.00000  0.15510
      23     H     0.41942  0.41942  0.00000  0.16116
      24     H     0.41972  0.41972  0.00000  0.16056

   Total alpha = 33.00000, Total beta = 33.00000, Total charge =  0.00000
