                              Psi4 1.0.54 Driver

  ==> Input File <==

--------------------------------------------------------------------------
set {
	reference rhf
	basis cc-pvtz
}

set_num_threads( 4 )
memory 2 gb

molecule MOL {
0 1

O	 0.393997	 0.819449	 -4.557843
C	 -0.099047	 0.996158	 -3.491488
C	 0.085186	 -0.006049	 -2.369130
C	 -0.915522	 2.230686	 -3.191360
C	 1.407793	 0.232352	 -1.629726
H	 0.088641	 -0.994830	 -2.810051
H	 -0.743409	 0.053745	 -1.671476
C	 1.630207	 -0.772146	 -0.501001
H	 2.214154	 0.178145	 -2.350192
H	 1.421814	 1.239044	 -1.219029
C	 2.907848	 -0.545876	 0.309149
H	 1.641417	 -1.777270	 -0.915221
H	 0.780539	 -0.731299	 0.175017
C	 3.373802	 0.906639	 0.372125
H	 3.699140	 -1.146831	 -0.127906
H	 2.764321	 -0.923458	 1.318191
H	 3.519798	 1.311927	 -0.623875
H	 4.316899	 0.983758	 0.900700
H	 2.661122	 1.540651	 0.885346
H	 -1.952149	 1.945419	 -3.042956
H	 -0.848085	 2.929617	 -4.010821
H	 -0.577941	 2.699310	 -2.273743

	symmetry c1
}
set optking {
	frozen_dihedral = ("
		12 8 11 15
	")
}

ee,wfn = optimize('scf', return_wfn=True)
oeprop( wfn, 'DIPOLE', 'QUADRUPOLE', 'MULLIKEN_CHARGES')
f=open( 'psi4out.xyz', 'w' )
f.write( "22  " )
f.write( str(ee) + "\n" )
f.write( MOL.save_string_xyz() )
f.close()
--------------------------------------------------------------------------

    Molecular point group: c1
  Charge       = 0
  Multiplicity = 1
  Basis Set: CC-PVTZ
  Basis Set:
  @DF-RHF Final Energy:  -348.21749553989241
    Total Energy =                       -348.2174955398921838
    Molecular point group: c1
  Basis Set: CC-PVTZ
  Basis Set:
  Basis Set: CC-PVTZ
  Basis Set:
  @DF-RHF Final Energy:  -348.21798636892805
    Total Energy =                       -348.2179863689279955
  Basis Set: CC-PVTZ
  Basis Set:
  Basis Set: CC-PVTZ
  Basis Set:
  @DF-RHF Final Energy:  -348.21955698997954
    Total Energy =                       -348.2195569899797079
  Basis Set: CC-PVTZ
  Basis Set:
  Basis Set: CC-PVTZ
  Basis Set:
  @DF-RHF Final Energy:  -348.21962882955762
    Total Energy =                       -348.2196288295577347
  Basis Set: CC-PVTZ
  Basis Set:
  Basis Set: CC-PVTZ
  Basis Set:
  @DF-RHF Final Energy:  -348.21963930719863
    Total Energy =                       -348.2196393071984630
  Basis Set: CC-PVTZ
  Basis Set:
  Basis Set: CC-PVTZ
  Basis Set:
  @DF-RHF Final Energy:  -348.21964472413987
    Total Energy =                       -348.2196447241394139
  Basis Set: CC-PVTZ
  Basis Set:
  Basis Set: CC-PVTZ
  Basis Set:
  @DF-RHF Final Energy:  -348.21964611465506
    Total Energy =                       -348.2196461146551769
  Basis Set: CC-PVTZ
  Basis Set:
  Charge       = 0
  Multiplicity = 1
  Basis Set: CC-PVTZ
  Basis Set:

    Orbital Energies (a.u.)
    -----------------------

    Doubly Occupied:

       1A    -20.536481     2A    -11.318980     3A    -11.227595
       4A    -11.227001     5A    -11.226697     6A    -11.221070
       7A    -11.219151     8A    -11.211570     9A     -1.396583
      10A     -1.096540    11A     -1.044835    12A     -0.999963
      13A     -0.939329    14A     -0.863479    15A     -0.781546
      16A     -0.734361    17A     -0.664898    18A     -0.649483
      19A     -0.630034    20A     -0.617139    21A     -0.596383
      22A     -0.589694    23A     -0.557137    24A     -0.547842
      25A     -0.530650    26A     -0.527045    27A     -0.503582
      28A     -0.487748    29A     -0.468866    30A     -0.463873
      31A     -0.461017    32A     -0.398084

  @DF-RHF Final Energy:  -348.21964624037736

   => Energetics <=

    Nuclear Repulsion Energy =            374.7005625240154245
    One-Electron Energy =               -1214.3631116514034147
    Two-Electron Energy =                 491.4429028870105753
    DFT Exchange-Correlation Energy =       0.0000000000000000
    Empirical Dispersion Energy =           0.0000000000000000
    PCM Polarization Energy =               0.0000000000000000
    EFP Energy =                            0.0000000000000000
    Total Energy =                       -348.2196462403774717
    Molecular point group: c1
  Basis Set: CC-PVTZ
  Basis Set:

  -Total Gradient:
     Atom            X                  Y                   Z
    ------   -----------------  -----------------  -----------------
       1       -0.000018137234    -0.000027059014     0.000006420829
       2        0.000048187353     0.000110120894     0.000038568082
       3       -0.000039580004    -0.000004292639     0.000048776699
       4       -0.000058397229    -0.000041570638    -0.000053089233
       5        0.000025380789    -0.000030285707    -0.000056205619
       6        0.000005149594    -0.000001986156    -0.000004230095
       7        0.000002975992    -0.000010432267    -0.000017827587
       8       -0.003284481090    -0.003384007221     0.007112009521
       9        0.000005339388    -0.000035786584    -0.000001938312
      10       -0.000031947544    -0.000022819096    -0.000016230182
      11        0.002270233547     0.005980345801    -0.005739564985
      12        0.002454094475     0.001962443102    -0.005106531045
      13       -0.000017884656    -0.000002779744     0.000001325082
      14        0.000048730559     0.000012559931    -0.000008885366
      15       -0.001390159612    -0.004496214155     0.003753123497
      16       -0.000030454039     0.000027859987    -0.000027971078
      17       -0.000017999433    -0.000023287128     0.000056724098
      18       -0.000017917743    -0.000010429190    -0.000033447734
      19        0.000007590306    -0.000011940769     0.000026247981
      20        0.000019030103    -0.000006463116     0.000009835458
      21        0.000002376187     0.000009695553     0.000001901476
      22        0.000017870288     0.000006328157     0.000010988506

  **** Optimization is complete! (in 8 steps) ****
    Final optimized geometry and variables:
    Molecular point group: c1

    Geometry (in Angstrom), charge = 0, multiplicity = 1:

    O           -0.771064966221     0.226110878741    -2.686793018043
    C           -1.253932405212     0.435270689840    -1.621680620302
    C           -1.034206326021    -0.516815238270    -0.462918045536
    C           -2.095044875752     1.662248418962    -1.361289453268
    C            0.280764836129    -0.206447888298     0.263520382385
    H           -1.001135597542    -1.520968729064    -0.865778667156
    H           -1.862784613551    -0.456192802401     0.235053477092
    C            0.524958716404    -1.158621612792     1.435868722525
    H            1.094277013725    -0.281891867717    -0.450187861335
    H            0.265811299196     0.820492726108     0.612706549565
    C            1.882085820011    -0.993979399732     2.142261532917
    H            0.475689758650    -2.164159401251     1.030478336916
    H           -0.282844458966    -1.051589031967     2.153028932038
    C            2.404938887408     0.430784583153     2.291003757587
    H            2.619798643896    -1.622915476197     1.653976588157
    H            1.783948191343    -1.422647178080     3.135832142441
    H            2.623922457230     0.888446873061     1.334371001391
    H            3.319709296685     0.435601378696     2.871874376427
    H            1.687651119108     1.062396988798     2.805422277130
    H           -3.123741112335     1.359341279636    -1.194006722396
    H           -2.049713742322     2.330643733028    -2.207312458667
    H           -1.761892456017     2.173240478386    -0.464968782719

  Mulliken Charges: (a.u.)
   Center  Symbol    Alpha    Beta     Spin     Total
       1     O     4.17835  4.17835  0.00000 -0.35671
       2     C     2.85777  2.85777  0.00000  0.28446
       3     C     3.09829  3.09829  0.00000 -0.19658
       4     C     3.15521  3.15521  0.00000 -0.31042
       5     C     3.10496  3.10496  0.00000 -0.20993
       6     H     0.43870  0.43870  0.00000  0.12260
       7     H     0.44951  0.44951  0.00000  0.10099
       8     C     3.09726  3.09726  0.00000 -0.19452
       9     H     0.43981  0.43981  0.00000  0.12038
      10     H     0.44872  0.44872  0.00000  0.10257
      11     C     3.08860  3.08860  0.00000 -0.17720
      12     H     0.44903  0.44903  0.00000  0.10194
      13     H     0.45103  0.45103  0.00000  0.09793
      14     C     3.15782  3.15782  0.00000 -0.31563
      15     H     0.45012  0.45012  0.00000  0.09975
      16     H     0.45093  0.45093  0.00000  0.09813
      17     H     0.45053  0.45053  0.00000  0.09894
      18     H     0.44342  0.44342  0.00000  0.11316
      19     H     0.45436  0.45436  0.00000  0.09127
      20     H     0.44838  0.44838  0.00000  0.10325
      21     H     0.43607  0.43607  0.00000  0.12785
      22     H     0.45113  0.45113  0.00000  0.09775

   Total alpha = 32.00000, Total beta = 32.00000, Total charge = -0.00000

*** Psi4 exiting successfully. Buy a developer a beer!
