  ==> Input File <==

--------------------------------------------------------------------------
set {
	reference rhf
	basis 6-31G*
}

set_num_threads( 4 )
memory 2 gb

molecule MOL {
0 1

H	 -1.043357	 -1.368781	 0.147961
O	 -1.422729	 -0.573567	 -0.196946
C	 -0.731407	 0.539437	 0.309156
C	 0.680193	 0.672443	 -0.251532
H	 -1.319765	 1.404033	 0.030086
H	 -0.700012	 0.506517	 1.397677
C	 1.599139	 -0.492137	 0.118598
H	 0.616402	 0.758534	 -1.332349
H	 1.107032	 1.602637	 0.117369
H	 1.239738	 -1.428634	 -0.297334
H	 2.601428	 -0.335055	 -0.265730
H	 1.674954	 -0.608418	 1.197020

	symmetry c1
}
set optking {
	frozen_dihedral = ("
		1 2 3 4
	")
}

ee = optimize('scf')
oeprop('DIPOLE', 'QUADRUPOLE', 'MULLIKEN_CHARGES')
f=open( 'psi4out.xyz', 'w' )
f.write( "12  " )
f.write( str(ee) + "\n" )
f.write( MOL.save_string_xyz() )
f.close()
--------------------------------------------------------------------------

    Molecular point group: c1
  Charge       = 0
  Multiplicity = 1
  Basis Set: 6-31G*
  Basis Set:
  @DF-RHF Final Energy:  -193.10996485365220
    Total Energy =                       -193.1099648536522295
    Molecular point group: c1
  Basis Set: 6-31G*
  Basis Set:
  Charge       = 0
  Multiplicity = 1
  Basis Set: 6-31G*
  Basis Set:

    Orbital Energies (a.u.)
    -----------------------

    Doubly Occupied:

       1A    -20.553155     2A    -11.267982     3A    -11.219192
       4A    -11.218178     5A     -1.360116     6A     -1.051371
       7A     -0.927858     8A     -0.809893     9A     -0.695941
      10A     -0.636528    11A     -0.601937    12A     -0.588774
      13A     -0.539891    14A     -0.509839    15A     -0.493484
      16A     -0.469045    17A     -0.429670

  @DF-RHF Final Energy:  -193.10996425097508

   => Energetics <=

    Nuclear Repulsion Energy =            133.0649931336980387
    One-Electron Energy =                -525.6042067924271350
    Two-Electron Energy =                 199.4292494077539573
    DFT Exchange-Correlation Energy =       0.0000000000000000
    Empirical Dispersion Energy =           0.0000000000000000
    PCM Polarization Energy =               0.0000000000000000
    EFP Energy =                            0.0000000000000000
    Total Energy =                       -193.1099642509751106
    Molecular point group: c1
  Basis Set: 6-31G*
  Basis Set:

  -Total Gradient:
     Atom            X                  Y                   Z
    ------   -----------------  -----------------  -----------------
       1        0.000134097925     0.000060446843    -0.000203201274
       2       -0.000299407890    -0.000001627212     0.000315687500
       3        0.000011331917     0.000101143957    -0.000147151041
       4        0.000129009842    -0.000110859212     0.000040211889
       5       -0.000054699136    -0.000047988020     0.000012566773
       6       -0.000049276226    -0.000031604842    -0.000013981039
       7        0.000055597741     0.000030952676     0.000073214756
       8       -0.000018591535    -0.000019682185    -0.000001144561
       9        0.000047511315    -0.000006224196    -0.000049023747
      10        0.000080285022     0.000054749292    -0.000055893497
      11       -0.000009719693    -0.000007959999     0.000032636618
      12       -0.000026139281    -0.000021347103    -0.000003922378

  **** Optimization is complete! (in 2 steps) ****
    Final optimized geometry and variables:
    Molecular point group: c1

    Geometry (in Angstrom), charge = 0, multiplicity = 1:

    H           -1.049797806474    -1.367594603653     0.149395882333
    O           -1.427669335814    -0.570916762694    -0.193897664733
    C           -0.730482852621     0.539132305900     0.310121475823
    C            0.680303815822     0.669923482965    -0.253969452350
    H           -1.318162621800     1.404954465076     0.033866230225
    H           -0.695579816380     0.504896419433     1.398589817232
    C            1.601601915571    -0.492225616951     0.118778689716
    H            0.614882083286     0.752807544746    -1.334946609351
    H            1.107560214816     1.601290966108     0.111295139269
    H            1.252335980878    -1.428833173252    -0.305638303857
    H            2.606525880825    -0.327850585853    -0.255312788703
    H            1.667858044828    -0.613981756845     1.197177246778

  Mulliken Charges: (a.u.)
   Center  Symbol    Alpha    Beta     Spin     Total
       1     H     0.28013  0.28013  0.00000  0.43974
       2     O     4.37051  4.37051  0.00000 -0.74103
       3     C     2.99630  2.99630  0.00000  0.00740
       4     C     3.16155  3.16155  0.00000 -0.32309
       5     H     0.41438  0.41438  0.00000  0.17123
       6     H     0.43229  0.43229  0.00000  0.13541
       7     C     3.25050  3.25050  0.00000 -0.50099
       8     H     0.41386  0.41386  0.00000  0.17228
       9     H     0.42281  0.42281  0.00000  0.15438
      10     H     0.42219  0.42219  0.00000  0.15561
      11     H     0.41351  0.41351  0.00000  0.17297
      12     H     0.42196  0.42196  0.00000  0.15609

   Total alpha = 17.00000, Total beta = 17.00000, Total charge =  0.00000
