  ==> Input File <==

--------------------------------------------------------------------------
set {
	reference rhf
	basis cc-pvtz
}

set_num_threads( 4 )
memory 2 gb

molecule MOL {
0 1

H	 -3.839433	 -2.103141	 -0.595681
C	 -2.770130	 -2.012605	 -0.619556
C	 -2.021534	 -2.878090	 -1.396848
C	 -2.145180	 -1.031427	 0.126574
H	 -2.507300	 -3.639427	 -1.975724
C	 -0.647524	 -2.761129	 -1.427015
H	 -2.726619	 -0.360735	 0.729045
C	 -0.769450	 -0.913042	 0.097415
H	 -0.052675	 -3.422720	 -2.023262
C	 -0.016410	 -1.778381	 -0.680165
H	 -0.282344	 -0.154273	 0.674067
C	 1.470616	 -1.693374	 -0.746851
O	 1.968286	 -0.725612	 -0.000027
O	 2.143808	 -2.417159	 -1.401165
C	 3.373556	 -0.568203	 0.000011
H	 3.695416	 -0.031588	 -0.879663
H	 3.782700	 -1.565294	 -0.000152
H	 3.695405	 -0.031851	 0.879862

	symmetry c1
}
set optking {
	frozen_dihedral = ("
		12 13 15 16
	")
}

ee = optimize('scf')
oeprop('DIPOLE', 'QUADRUPOLE', 'MULLIKEN_CHARGES')
f=open( 'psi4out.xyz', 'w' )
f.write( "18  " )
f.write( str(ee) + "\n" )
f.write( MOL.save_string_xyz() )
f.close()
--------------------------------------------------------------------------

    Molecular point group: c1
  Charge       = 0
  Multiplicity = 1
  Basis Set: CC-PVTZ
  Basis Set:
  @DF-RHF Final Energy:  -457.50792720698513
    Total Energy =                       -457.5079272069851868
    Molecular point group: c1
  Basis Set: CC-PVTZ
  Basis Set:
  Basis Set: CC-PVTZ
  Basis Set:
  @DF-RHF Final Energy:  -457.50927354453722
    Total Energy =                       -457.5092735445372227
  Basis Set: CC-PVTZ
  Basis Set:
  Basis Set: CC-PVTZ
  Basis Set:
  @DF-RHF Final Energy:  -457.50962725441377
    Total Energy =                       -457.5096272544138856
  Basis Set: CC-PVTZ
  Basis Set:
  Basis Set: CC-PVTZ
  Basis Set:
  @DF-RHF Final Energy:  -457.50863931113037
    Total Energy =                       -457.5086393111300822
  Basis Set: CC-PVTZ
  Basis Set:
  Basis Set: CC-PVTZ
  Basis Set:
  @DF-RHF Final Energy:  -457.50969072710035
    Total Energy =                       -457.5096907271001783
  Basis Set: CC-PVTZ
  Basis Set:
  Basis Set: CC-PVTZ
  Basis Set:
  @DF-RHF Final Energy:  -457.50969307562298
    Total Energy =                       -457.5096930756230904
  Basis Set: CC-PVTZ
  Basis Set:
  Charge       = 0
  Multiplicity = 1
  Basis Set: CC-PVTZ
  Basis Set:

    Orbital Energies (a.u.)
    -----------------------

    Doubly Occupied:

       1A    -20.600779     2A    -20.534257     3A    -11.372094
       4A    -11.281017     5A    -11.244913     6A    -11.243438
       7A    -11.242618     8A    -11.239969     9A    -11.235998
      10A    -11.235234    11A     -1.476405    12A     -1.368637
      13A     -1.170703    14A     -1.051793    15A     -1.028981
      16A     -0.980902    17A     -0.863148    18A     -0.838390
      19A     -0.781025    20A     -0.745022    21A     -0.687997
      22A     -0.681261    23A     -0.676345    24A     -0.634130
      25A     -0.630008    26A     -0.601227    27A     -0.587574
      28A     -0.566644    29A     -0.530443    30A     -0.520250
      31A     -0.509671    32A     -0.502093    33A     -0.463536
      34A     -0.449333    35A     -0.350181    36A     -0.346180

  @DF-RHF Final Energy:  -457.50969375123577

   => Energetics <=

    Nuclear Repulsion Energy =            493.9079182759566038
    One-Electron Energy =               -1602.2908308171563476
    Two-Electron Energy =                 650.8732187899640849
    DFT Exchange-Correlation Energy =       0.0000000000000000
    Empirical Dispersion Energy =           0.0000000000000000
    PCM Polarization Energy =               0.0000000000000000
    EFP Energy =                            0.0000000000000000
    Total Energy =                       -457.5096937512357727
    Molecular point group: c1
  Basis Set: CC-PVTZ
  Basis Set:

  -Total Gradient:
     Atom            X                  Y                   Z
    ------   -----------------  -----------------  -----------------
       1       -0.000000167151     0.000000740023     0.000000334225
       2       -0.000000576661    -0.000008032678    -0.000006805424
       3       -0.000011684138     0.000001244894     0.000005481603
       4        0.000006975749     0.000004240536     0.000000484799
       5       -0.000000514843    -0.000000149748     0.000000004668
       6        0.000006122293     0.000007300400     0.000003070105
       7       -0.000001452499    -0.000000355711    -0.000000391815
       8       -0.000009806582     0.000002265565     0.000004880701
       9       -0.000000605344     0.000000347194     0.000000259294
      10       -0.000011398903    -0.000011287763    -0.000011103131
      11       -0.000001797947    -0.000001630031    -0.000001543216
      12        0.000054500983    -0.000834733721     0.001015069655
      13       -0.000104495227     0.001517210067    -0.001286347853
      14        0.000002020371     0.000015740703     0.000004466027
      15        0.000225499715    -0.001999970470    -0.000452550901
      16       -0.000164728513     0.001306280576     0.000725660674
      17        0.000001789086    -0.000002260434     0.000001386244
      18        0.000010319609     0.000003050599    -0.000002355657

  **** Optimization is complete! (in 7 steps) ****
    Final optimized geometry and variables:
    Molecular point group: c1

    Geometry (in Angstrom), charge = 0, multiplicity = 1:

    H           -4.025528123131    -0.438775003209     0.023900139026
    C           -2.956175096145    -0.350424377236    -0.006641614336
    C           -2.214446568464    -1.215215077053    -0.791396548585
    C           -2.324155272642     0.627204801114     0.738113889822
    H           -2.705595313123    -1.973817559271    -1.369424068553
    C           -0.840439829477    -1.100991075451    -0.830292820908
    H           -2.900033340190     1.297537286412     1.346359968159
    C           -0.948252539283     0.742720998421     0.700340775851
    H           -0.251077890421    -1.762038924506    -1.432626654398
    C           -0.202188788615    -0.121907153049    -0.084551753566
    H           -0.456010498758     1.498988696446     1.275959644595
    C            1.285190659874    -0.040717666260    -0.161004004143
    O            1.787626082407     0.927817029012     0.581791253281
    O            1.950588364967    -0.766987175301    -0.820259974371
    C            3.193699821873     1.076322895357     0.608658563143
    H            3.528927587961     1.602929946549    -0.273718322602
    H            3.681938820850     0.117512581409     0.667161109446
    H            3.413926947237     1.665571102206     1.484481733024

  Mulliken Charges: (a.u.)
   Center  Symbol    Alpha    Beta     Spin     Total
       1     H     0.42030  0.42030  0.00000  0.15940
       2     C     3.06974  3.06974  0.00000 -0.13948
       3     C     3.07553  3.07553  0.00000 -0.15105
       4     C     3.07495  3.07495  0.00000 -0.14989
       5     H     0.42040  0.42040  0.00000  0.15919
       6     C     3.07587  3.07587  0.00000 -0.15174
       7     H     0.42190  0.42190  0.00000  0.15619
       8     C     3.08211  3.08211  0.00000 -0.16421
       9     H     0.40659  0.40659  0.00000  0.18682
      10     C     3.01429  3.01429  0.00000 -0.02858
      11     H     0.41108  0.41108  0.00000  0.17785
      12     C     2.78009  2.78009  0.00000  0.43982
      13     O     4.14882  4.14882  0.00000 -0.29765
      14     O     4.21144  4.21144  0.00000 -0.42287
      15     C     3.03722  3.03722  0.00000 -0.07445
      16     H     0.45521  0.45521  0.00000  0.08959
      17     H     0.44797  0.44797  0.00000  0.10406
      18     H     0.44649  0.44649  0.00000  0.10702

   Total alpha = 36.00000, Total beta = 36.00000, Total charge =  0.00000
