  ==> Input File <==

--------------------------------------------------------------------------
set {
	reference rhf
	basis 6-31G*
}

set_num_threads( 4 )
memory 2 gb

molecule MOL {
0 1

O	 0.466288	 1.128073	 -1.064861
C	 0.401742	 0.051586	 -0.564107
C	 1.535008	 -0.943324	 -0.485824
O	 -0.698257	 -0.426125	 0.001050
C	 2.821258	 -0.435339	 -1.124948
H	 1.195110	 -1.860813	 -0.956919
H	 1.683212	 -1.185421	 0.562359
H	 2.672904	 -0.210887	 -2.174223
H	 3.601159	 -1.184852	 -1.042480
H	 3.165640	 0.470484	 -0.640995
C	 -1.853104	 0.406779	 0.000512
C	 -3.066105	 -0.499277	 -0.000959
H	 -1.828410	 1.043074	 -0.873618
H	 -1.829857	 1.042383	 0.875188
H	 -3.071820	 -1.133106	 -0.880383
H	 -3.972708	 0.097145	 -0.001528
H	 -3.073405	 -1.133813	 0.877999

	symmetry c1
}
set optking {
	frozen_dihedral = ("
		2 4 11 13
	")
}

ee = optimize('scf')
oeprop('DIPOLE', 'QUADRUPOLE', 'MULLIKEN_CHARGES')
f=open( 'psi4out.xyz', 'w' )
f.write( "17  " )
f.write( str(ee) + "\n" )
f.write( MOL.save_string_xyz() )
f.close()
--------------------------------------------------------------------------

    Molecular point group: c1
  Charge       = 0
  Multiplicity = 1
  Basis Set: 6-31G*
  Basis Set:
  @DF-RHF Final Energy:  -344.91064885278320
    Total Energy =                       -344.9106488527830834
    Molecular point group: c1
  Basis Set: 6-31G*
  Basis Set:
  Basis Set: 6-31G*
  Basis Set:
  @DF-RHF Final Energy:  -344.91071343099293
    Total Energy =                       -344.9107134309929279
  Basis Set: 6-31G*
  Basis Set:
  Basis Set: 6-31G*
  Basis Set:
  @DF-RHF Final Energy:  -344.91066640636870
    Total Energy =                       -344.9106664063684775
  Basis Set: 6-31G*
  Basis Set:
  Basis Set: 6-31G*
  Basis Set:
  @DF-RHF Final Energy:  -344.91090754704783
    Total Energy =                       -344.9109075470478274
  Basis Set: 6-31G*
  Basis Set:
  Basis Set: 6-31G*
  Basis Set:
  @DF-RHF Final Energy:  -344.91091260403147
    Total Energy =                       -344.9109126040312390
  Basis Set: 6-31G*
  Basis Set:
  Charge       = 0
  Multiplicity = 1
  Basis Set: 6-31G*
  Basis Set:

    Orbital Energies (a.u.)
    -----------------------

    Doubly Occupied:

       1A    -20.600450     2A    -20.544009     3A    -11.372018
       4A    -11.284139     5A    -11.237235     6A    -11.222502
       7A    -11.215499     8A     -1.466183     9A     -1.362190
      10A     -1.069823    11A     -1.031598    12A     -0.911526
      13A     -0.848235    14A     -0.771674    15A     -0.698421
      16A     -0.685799    17A     -0.663066    18A     -0.628974
      19A     -0.586075    20A     -0.570895    21A     -0.557737
      22A     -0.526457    23A     -0.519759    24A     -0.514284
      25A     -0.501816    26A     -0.492849    27A     -0.450753
      28A     -0.435663

  @DF-RHF Final Energy:  -344.91091285886938

   => Energetics <=

    Nuclear Repulsion Energy =            314.6744552132885815
    One-Electron Energy =               -1093.6314793019735134
    Two-Electron Energy =                 434.0461112298155513
    DFT Exchange-Correlation Energy =       0.0000000000000000
    Empirical Dispersion Energy =           0.0000000000000000
    PCM Polarization Energy =               0.0000000000000000
    EFP Energy =                            0.0000000000000000
    Total Energy =                       -344.9109128588693238
    Molecular point group: c1
  Basis Set: 6-31G*
  Basis Set:

  -Total Gradient:
     Atom            X                  Y                   Z
    ------   -----------------  -----------------  -----------------
       1        0.000018209348    -0.000014598118    -0.000006701220
       2       -0.000376447070    -0.000546800618    -0.001251926909
       3       -0.000023193367    -0.000006875854    -0.000011627959
       4        0.000762697687     0.001055294830     0.002010014077
       5        0.000002902843     0.000007966454     0.000002520854
       6       -0.000002326749     0.000005788740     0.000004835813
       7       -0.000004209528     0.000008268184     0.000005642705
       8        0.000002107094     0.000000514893    -0.000003895710
       9       -0.000001256638     0.000000102514    -0.000001486841
      10       -0.000000282944    -0.000000337910    -0.000000780741
      11       -0.001149700632    -0.001694911089    -0.001576536090
      12        0.000012099271     0.000004395976    -0.000008449266
      13        0.000781097965     0.001150379111     0.000850885049
      14       -0.000032452854     0.000025178784    -0.000001449236
      15       -0.000002213018    -0.000005685885    -0.000004737211
      16        0.000006164043     0.000002152154    -0.000001899624
      17        0.000006804547     0.000009167831    -0.000004407690

  **** Optimization is complete! (in 6 steps) ****
    Final optimized geometry and variables:
    Molecular point group: c1

    Geometry (in Angstrom), charge = 0, multiplicity = 1:

    O            0.565144062769     1.242770276043    -0.587714090365
    C            0.477244803479     0.161738137769    -0.100844985440
    C            1.594833065947    -0.851441249006    -0.027142582018
    O           -0.630018689167    -0.310324185304     0.456085632887
    C            2.893142376265    -0.356172759342    -0.651735544517
    H            1.244121516724    -1.758417396929    -0.510377008538
    H            1.732162258932    -1.107105142662     1.019283600620
    H            2.755621916348    -0.117536440922    -1.699346727060
    H            3.660741555597    -1.118656347705    -0.572633251066
    H            3.248097466695     0.538603312409    -0.155053576303
    C           -1.802954607498     0.498501280529     0.443255154289
    C           -3.004120419033    -0.422972331701     0.476711674281
    H           -1.793339874240     1.129348306353    -0.431651592436
    H           -1.777396622573     1.141527381203     1.314700125548
    H           -3.025242611597    -1.057964357361    -0.401864727638
    H           -3.918144761589     0.161754298901     0.500073352717
    H           -2.980021476704    -1.056395171706     1.356051037298

  Mulliken Charges: (a.u.)
   Center  Symbol    Alpha    Beta     Spin     Total
       1     O     4.28597  4.28597  0.00000 -0.57194
       2     C     2.60593  2.60593  0.00000  0.78815
       3     C     3.20531  3.20531  0.00000 -0.41061
       4     O     4.31385  4.31385  0.00000 -0.62770
       5     C     3.23875  3.23875  0.00000 -0.47749
       6     H     0.40107  0.40107  0.00000  0.19786
       7     H     0.40059  0.40059  0.00000  0.19882
       8     H     0.41013  0.41013  0.00000  0.17973
       9     H     0.41833  0.41833  0.00000  0.16334
      10     H     0.40993  0.40993  0.00000  0.18013
      11     C     3.00615  3.00615  0.00000 -0.01230
      12     C     3.24751  3.24751  0.00000 -0.49503
      13     H     0.40046  0.40046  0.00000  0.19909
      14     H     0.41497  0.41497  0.00000  0.17006
      15     H     0.41291  0.41291  0.00000  0.17417
      16     H     0.41666  0.41666  0.00000  0.16668
      17     H     0.41149  0.41149  0.00000  0.17702

   Total alpha = 28.00000, Total beta = 28.00000, Total charge = -0.00000
