  ==> Input File <==

--------------------------------------------------------------------------
set {
	reference rhf
	basis cc-pvtz
}

set_num_threads( 4 )
memory 2 gb

molecule MOL {
0 1

H	 -3.268214	 -0.875720	 0.463107
C	 -2.806015	 0.000007	 0.024886
N	 -1.391133	 0.000016	 0.301321
H	 -3.029448	 0.000055	 -1.045738
H	 -3.268126	 0.875758	 0.463150
C	 -1.073131	 -0.669108	 1.544190
C	 -0.825046	 1.331303	 0.273909
H	 -1.536950	 -0.166205	 2.397894
H	 -1.463279	 -1.679347	 1.508332
C	 0.428223	 -0.720123	 1.757138
H	 -1.034075	 1.781445	 -0.689299
H	 -1.271950	 1.970571	 1.041021
C	 0.676308	 1.280289	 0.486857
H	 0.637252	 -1.170264	 2.720346
H	 0.875126	 -1.359391	 0.990026
N	 0.994310	 0.611165	 1.729726
H	 1.066456	 2.290528	 0.522715
H	 1.140127	 0.777386	 -0.366847
C	 2.409192	 0.611174	 2.006161
H	 2.597208	 0.157693	 2.971339
H	 2.779527	 1.628241	 2.037571
H	 2.988170	 0.063709	 1.257012

	symmetry c1
}
set optking {
	frozen_dihedral = ("
		6 3 2 4
	")
}

ee = optimize('scf')
oeprop('DIPOLE', 'QUADRUPOLE', 'MULLIKEN_CHARGES')
f=open( 'psi4out.xyz', 'w' )
f.write( "22  " )
f.write( str(ee) + "\n" )
f.write( MOL.save_string_xyz() )
f.close()
--------------------------------------------------------------------------

    Molecular point group: c1
  Charge       = 0
  Multiplicity = 1
  Basis Set: CC-PVTZ
  Basis Set:
  @DF-RHF Final Energy:  -344.34744489140598
    Total Energy =                       -344.3474448914058712
    Molecular point group: c1
  Basis Set: CC-PVTZ
  Basis Set:
  Basis Set: CC-PVTZ
  Basis Set:
  @DF-RHF Final Energy:  -344.34836792416087
    Total Energy =                       -344.3483679241609252
  Basis Set: CC-PVTZ
  Basis Set:
  Basis Set: CC-PVTZ
  Basis Set:
  @DF-RHF Final Energy:  -344.34845669786500
    Total Energy =                       -344.3484566978650037
  Basis Set: CC-PVTZ
  Basis Set:
  Charge       = 0
  Multiplicity = 1
  Basis Set: CC-PVTZ
  Basis Set:

    Orbital Energies (a.u.)
    -----------------------

    Doubly Occupied:

       1A    -15.537519     2A    -15.535238     3A    -11.237579
       4A    -11.237377     5A    -11.236754     6A    -11.236695
       7A    -11.234144     8A    -11.234101     9A     -1.256419
      10A     -1.205111    11A     -1.026084    12A     -0.992636
      13A     -0.912556    14A     -0.868416    15A     -0.836260
      16A     -0.754232    17A     -0.666536    18A     -0.638075
      19A     -0.631738    20A     -0.626724    21A     -0.622655
      22A     -0.581780    23A     -0.550118    24A     -0.548418
      25A     -0.542885    26A     -0.519068    27A     -0.496234
      28A     -0.489821    29A     -0.467074    30A     -0.457439
      31A     -0.351735    32A     -0.343664

  @DF-RHF Final Energy:  -344.34846062332031

   => Energetics <=

    Nuclear Repulsion Energy =            421.6976207273128239
    One-Electron Energy =               -1302.3419994357861924
    Two-Electron Energy =                 536.2959180851523797
    DFT Exchange-Correlation Energy =       0.0000000000000000
    Empirical Dispersion Energy =           0.0000000000000000
    PCM Polarization Energy =               0.0000000000000000
    EFP Energy =                            0.0000000000000000
    Total Energy =                       -344.3484606233209888
    Molecular point group: c1
  Basis Set: CC-PVTZ
  Basis Set:

  -Total Gradient:
     Atom            X                  Y                   Z
    ------   -----------------  -----------------  -----------------
       1        0.000011422841    -0.000017297036     0.000003799120
       2       -0.000140604669     0.004466634206    -0.000716660371
       3       -0.000557833669     0.002923596427     0.002308324396
       4        0.000092513306    -0.004450377998    -0.000048075002
       5        0.000060084980    -0.000013600381     0.000041886273
       6        0.000460175653    -0.003010310501    -0.001525763642
       7        0.000041289896     0.000165537950     0.000024459953
       8        0.000033825680    -0.000004541481    -0.000086444747
       9       -0.000000257128     0.000005559582    -0.000017211254
      10       -0.000008865055     0.000042604108     0.000016428421
      11       -0.000007403722    -0.000012628491    -0.000005071180
      12       -0.000009721664    -0.000076777997    -0.000025457985
      13        0.000017691644    -0.000046377860     0.000000127396
      14        0.000043604853    -0.000007906736     0.000026990546
      15       -0.000033945006     0.000006704406     0.000006188303
      16       -0.000006918258     0.000005835413     0.000005158222
      17        0.000032392749     0.000009272155     0.000016318399
      18        0.000001327815     0.000006921088     0.000000389276
      19       -0.000011738923     0.000006019864    -0.000020015748
      20       -0.000013650706    -0.000000453551    -0.000003877010
      21       -0.000000648369     0.000003704263    -0.000000772215
      22       -0.000002742254    -0.000002117431    -0.000000721153

  **** Optimization is complete! (in 4 steps) ****
    Final optimized geometry and variables:
    Molecular point group: c1

    Geometry (in Angstrom), charge = 0, multiplicity = 1:

    H           -3.061245123810    -1.221220840249    -0.651716094379
    C           -2.613325171295    -0.300442546790    -1.003711398259
    N           -1.205932641147    -0.290414364862    -0.681459264713
    H           -2.756769915608    -0.278691649247    -2.078034277099
    H           -3.162708476604     0.527049208147    -0.551804647762
    C           -0.876996175373    -0.973215536843     0.549421011968
    C           -0.624574078059     1.030073589685    -0.739638111495
    H           -1.326785303700    -0.484347399619     1.419147683492
    H           -1.264482963037    -1.983438996669     0.504390484147
    C            0.627682484806    -1.026559729341     0.740915969734
    H           -0.838859492936     1.465101265090    -1.709274380017
    H           -1.057878412319     1.689070891065     0.018713076671
    C            0.878006714141     0.966933772859    -0.539249045974
    H            0.849742141140    -1.478147042631     1.700647278788
    H            1.061396236785    -1.666511063174    -0.033399758927
    N            1.198636907483     0.302493782186     0.705382542601
    H            1.278130704518     1.973666330600    -0.512763664293
    H            1.330945773778     0.453999127152    -1.392954332151
    C            2.614791996753     0.297437278645     0.974572742359
    H            2.805679117110    -0.151994970776     1.941118735786
    H            2.990068063845     1.312939096936     0.998804670741
    H            3.187628311799    -0.256569444557     0.225344710734

  Mulliken Charges: (a.u.)
   Center  Symbol    Alpha    Beta     Spin     Total
       1     H     0.45544  0.45544  0.00000  0.08911
       2     C     3.09688  3.09688  0.00000 -0.19376
       3     N     3.61399  3.61399  0.00000 -0.22799
       4     H     0.45041  0.45041  0.00000  0.09918
       5     H     0.46712  0.46712  0.00000  0.06576
       6     C     3.03307  3.03307  0.00000 -0.06614
       7     C     3.03487  3.03487  0.00000 -0.06975
       8     H     0.46987  0.46987  0.00000  0.06026
       9     H     0.45396  0.45396  0.00000  0.09207
      10     C     3.03619  3.03619  0.00000 -0.07237
      11     H     0.45408  0.45408  0.00000  0.09185
      12     H     0.46790  0.46790  0.00000  0.06419
      13     C     3.03595  3.03595  0.00000 -0.07191
      14     H     0.45398  0.45398  0.00000  0.09205
      15     H     0.46851  0.46851  0.00000  0.06297
      16     N     3.61311  3.61311  0.00000 -0.22621
      17     H     0.45393  0.45393  0.00000  0.09214
      18     H     0.46832  0.46832  0.00000  0.06336
      19     C     3.09835  3.09835  0.00000 -0.19670
      20     H     0.45195  0.45195  0.00000  0.09610
      21     H     0.45194  0.45194  0.00000  0.09612
      22     H     0.47017  0.47017  0.00000  0.05966

   Total alpha = 32.00000, Total beta = 32.00000, Total charge =  0.00000
