  ==> Input File <==

--------------------------------------------------------------------------
set {
	reference rhf
	basis 6-31G*
}

set_num_threads( 4 )
memory 2 gb

molecule MOL {
0 1

H	 -0.000158	 1.970498	 0.756846
O	 -0.000074	 1.880206	 -0.189275
C	 -0.000015	 0.544847	 -0.545111
C	 1.047259	 -0.208862	 0.267986
C	 0.172709	 0.409950	 -2.054405
H	 -0.966240	 0.135452	 -0.290338
F	 0.770765	 -0.104460	 1.550248
F	 1.089449	 -1.488575	 -0.036830
F	 2.252276	 0.302064	 0.071806
F	 -0.817990	 1.020034	 -2.669100
F	 0.182284	 -0.846893	 -2.445086
F	 1.302426	 0.973988	 -2.450859

	symmetry c1
}
set optking {
	frozen_dihedral = ("
		6 3 2 1
	")
}

ee = optimize('scf')
oeprop('DIPOLE', 'QUADRUPOLE', 'MULLIKEN_CHARGES')
f=open( 'psi4out.xyz', 'w' )
f.write( "12  " )
f.write( str(ee) + "\n" )
f.write( MOL.save_string_xyz() )
f.close()
--------------------------------------------------------------------------

    Molecular point group: c1
  Charge       = 0
  Multiplicity = 1
  Basis Set: 6-31G*
  Basis Set:
  @DF-RHF Final Energy:  -786.27336440068370
    Total Energy =                       -786.2733644006835902
    Molecular point group: c1
  Basis Set: 6-31G*
  Basis Set:
  Basis Set: 6-31G*
  Basis Set:
  @DF-RHF Final Energy:  -786.27553492524396
    Total Energy =                       -786.2755349252443011
  Basis Set: 6-31G*
  Basis Set:
  Basis Set: 6-31G*
  Basis Set:
  @DF-RHF Final Energy:  -786.27602762136928
    Total Energy =                       -786.2760276213696216
  Basis Set: 6-31G*
  Basis Set:
  Basis Set: 6-31G*
  Basis Set:
  @DF-RHF Final Energy:  -786.27609294863566
    Total Energy =                       -786.2760929486360055
  Basis Set: 6-31G*
  Basis Set:
  Basis Set: 6-31G*
  Basis Set:
  @DF-RHF Final Energy:  -786.27610712651733
    Total Energy =                       -786.2761071265168766
  Basis Set: 6-31G*
  Basis Set:
  Basis Set: 6-31G*
  Basis Set:
  @DF-RHF Final Energy:  -786.27610987153469
    Total Energy =                       -786.2761098715352546
  Basis Set: 6-31G*
  Basis Set:
  Charge       = 0
  Multiplicity = 1
  Basis Set: 6-31G*
  Basis Set:

    Orbital Energies (a.u.)
    -----------------------

    Doubly Occupied:

       1A    -26.367470     2A    -26.363444     3A    -26.361296
       4A    -26.355644     5A    -26.351956     6A    -26.351212
       7A    -20.615452     8A    -11.528188     9A    -11.521602
      10A    -11.349174    11A     -1.765310    12A     -1.753979
      13A     -1.662159    14A     -1.660564    15A     -1.651034
      16A     -1.649368    17A     -1.434336    18A     -1.102921
      19A     -0.996220    20A     -0.934361    21A     -0.867782
      22A     -0.858244    23A     -0.853563    24A     -0.840878
      25A     -0.830243    26A     -0.784843    27A     -0.753766
      28A     -0.731666    29A     -0.719821    30A     -0.716928
      31A     -0.712792    32A     -0.684951    33A     -0.681773
      34A     -0.666760    35A     -0.666587    36A     -0.662087
      37A     -0.651477    38A     -0.640171    39A     -0.616579
      40A     -0.547282    41A     -0.505405

  @DF-RHF Final Energy:  -786.27611058475156

   => Energetics <=

    Nuclear Repulsion Energy =            670.5676669311584419
    One-Electron Energy =               -2428.1489777384076660
    Two-Electron Energy =                 971.3052002224977741
    DFT Exchange-Correlation Energy =       0.0000000000000000
    Empirical Dispersion Energy =           0.0000000000000000
    PCM Polarization Energy =               0.0000000000000000
    EFP Energy =                            0.0000000000000000
    Total Energy =                       -786.2761105847515637
    Molecular point group: c1
  Basis Set: 6-31G*
  Basis Set:

  -Total Gradient:
     Atom            X                  Y                   Z
    ------   -----------------  -----------------  -----------------
       1        0.001621279352     0.000025981510     0.000067885360
       2       -0.002152081441     0.000058777569    -0.000460568858
       3        0.000993990694    -0.000452586755     0.001658677014
       4        0.000008709990     0.000060304952    -0.000032444491
       5        0.000018674613     0.000056845768     0.000014281802
       6       -0.000450680563     0.000335385105    -0.001313572178
       7       -0.000010225988    -0.000042113643     0.000053971224
       8        0.000042648222     0.000058453257     0.000028492379
       9       -0.000027785506    -0.000067349329    -0.000002404889
      10       -0.000029603903     0.000009831089    -0.000023124984
      11        0.000001896739    -0.000017060383    -0.000002453537
      12       -0.000016822209    -0.000026469150     0.000011261180

  **** Optimization is complete! (in 7 steps) ****
    Final optimized geometry and variables:
    Molecular point group: c1

    Geometry (in Angstrom), charge = 0, multiplicity = 1:

    H           -0.683979620637     1.730622501758     1.596797531642
    O           -0.653041416174     1.624452868756     0.654643494433
    C           -0.638706790211     0.284157098860     0.316991989092
    C            0.428684656813    -0.461323343592     1.109893977196
    C           -0.430807725491     0.220304754681    -1.190349074406
    H           -1.586667857107    -0.204531782167     0.517276150265
    F            0.239500768254    -0.202377338349     2.399784457562
    F            0.334339197185    -1.763066251562     0.944861668360
    F            1.650493253383    -0.090257043159     0.805392751257
    F           -1.451664894996     0.785627430931    -1.800265971686
    F           -0.363895386724    -1.037049975728    -1.590455645109
    F            0.666249796529     0.831279173692    -1.572018501457

  Mulliken Charges: (a.u.)
   Center  Symbol    Alpha    Beta     Spin     Total
       1     H     0.26350  0.26350  0.00000  0.47300
       2     O     4.36697  4.36697  0.00000 -0.73393
       3     C     3.04199  3.04199  0.00000 -0.08397
       4     C     2.44907  2.44907  0.00000  1.10185
       5     C     2.43451  2.43451  0.00000  1.13099
       6     H     0.38773  0.38773  0.00000  0.22454
       7     F     4.68787  4.68787  0.00000 -0.37573
       8     F     4.67302  4.67302  0.00000 -0.34604
       9     F     4.66910  4.66910  0.00000 -0.33820
      10     F     4.67663  4.67663  0.00000 -0.35326
      11     F     4.67917  4.67917  0.00000 -0.35834
      12     F     4.67046  4.67046  0.00000 -0.34092

   Total alpha = 41.00000, Total beta = 41.00000, Total charge = -0.00000
