  ==> Input File <==

--------------------------------------------------------------------------
set {
	reference rhf
	basis 6-31G*
}

set_num_threads( 4 )
memory 2 gb

molecule MOL {
0 1

H	 -2.314848	 -0.185204	 1.611977
O	 -1.917262	 0.657109	 1.781744
C	 -0.975320	 0.944265	 0.783108
C	 0.288091	 0.121663	 0.964181
H	 -1.380881	 0.777323	 -0.210878
H	 -0.737072	 1.995131	 0.868945
O	 1.171513	 0.459272	 -0.058250
H	 0.049959	 -0.943255	 0.929191
H	 0.720664	 0.326855	 1.941607
C	 2.397842	 -0.198080	 -0.002151
H	 2.508049	 -0.905315	 -0.822092
H	 3.173794	 0.550865	 -0.078850
H	 2.517602	 -0.735921	 0.936026

	symmetry c1
}
set optking {
	frozen_dihedral = ("
		4 7 10 13
	")
}

ee = optimize('scf')
oeprop('DIPOLE', 'QUADRUPOLE', 'MULLIKEN_CHARGES')
f=open( 'psi4out.xyz', 'w' )
f.write( "13  " )
f.write( str(ee) + "\n" )
f.write( MOL.save_string_xyz() )
f.close()
--------------------------------------------------------------------------

    Molecular point group: c1
  Charge       = 0
  Multiplicity = 1
  Basis Set: 6-31G*
  Basis Set:
  @DF-RHF Final Energy:  -267.94661114374509
    Total Energy =                       -267.9466111437449740
    Molecular point group: c1
  Basis Set: 6-31G*
  Basis Set:
  Basis Set: 6-31G*
  Basis Set:
  @DF-RHF Final Energy:  -267.94690741554234
    Total Energy =                       -267.9469074155423982
  Basis Set: 6-31G*
  Basis Set:
  Basis Set: 6-31G*
  Basis Set:
  @DF-RHF Final Energy:  -267.94701411138067
    Total Energy =                       -267.9470141113809518
  Basis Set: 6-31G*
  Basis Set:
  Charge       = 0
  Multiplicity = 1
  Basis Set: 6-31G*
  Basis Set:

    Orbital Energies (a.u.)
    -----------------------

    Doubly Occupied:

       1A    -20.559807     2A    -20.558691     3A    -11.271305
       4A    -11.269826     5A    -11.268381     6A     -1.384255
       7A     -1.364278     8A     -1.018240     9A     -0.913618
      10A     -0.841452    11A     -0.708691    12A     -0.671076
      13A     -0.658109    14A     -0.636415    15A     -0.595815
      16A     -0.569854    17A     -0.547472    18A     -0.489794
      19A     -0.481204    20A     -0.437810    21A     -0.416534

  @DF-RHF Final Energy:  -267.94701485066491

   => Energetics <=

    Nuclear Repulsion Energy =            189.9095586174308039
    One-Electron Energy =                -742.3878893691725125
    Two-Electron Energy =                 284.5313159010767095
    DFT Exchange-Correlation Energy =       0.0000000000000000
    Empirical Dispersion Energy =           0.0000000000000000
    PCM Polarization Energy =               0.0000000000000000
    EFP Energy =                            0.0000000000000000
    Total Energy =                       -267.9470148506650276
    Molecular point group: c1
  Basis Set: 6-31G*
  Basis Set:

  -Total Gradient:
     Atom            X                  Y                   Z
    ------   -----------------  -----------------  -----------------
       1        0.000001746840     0.000006359759    -0.000000952102
       2       -0.000073022079     0.000028477328     0.000053199574
       3       -0.000003830548    -0.000056825939     0.000027773701
       4        0.000394919075     0.000897419273     0.000649725334
       5        0.000025382095     0.000008226178    -0.000000849528
       6       -0.000010538231    -0.000003416714    -0.000000198996
       7       -0.000668907291    -0.001741350170    -0.001157492128
       8       -0.000001987866     0.000012996762     0.000011343774
       9        0.000005367342     0.000008926255    -0.000030379652
      10        0.000987461767     0.002083673143     0.001056059009
      11       -0.000022008877    -0.000006805858     0.000000097212
      12        0.000031686193    -0.000004869900     0.000003798598
      13       -0.000666268420    -0.001232810116    -0.000612124794

  **** Optimization is complete! (in 4 steps) ****
    Final optimized geometry and variables:
    Molecular point group: c1

    Geometry (in Angstrom), charge = 0, multiplicity = 1:

    H           -2.505893571690    -0.554885201793     0.893795694701
    O           -2.100875299569     0.283371157850     1.065931026968
    C           -1.149099206304     0.560578089875     0.073335346393
    C            0.106743535104    -0.270683016896     0.266252964794
    H           -1.548494065749     0.393608763174    -0.923010937281
    H           -0.903158753679     1.609801551404     0.157425015525
    O            0.999159031789     0.064347575485    -0.750845065100
    H           -0.141674690570    -1.332886002368     0.231719615296
    H            0.531051906363    -0.065018008226     1.246260418389
    C            2.244107193732    -0.571191181022    -0.714862140679
    H            2.324515338927    -1.278889488842    -1.534361597291
    H            3.025501615975     0.171968494761    -0.818014819311
    H            2.394139386735    -1.112904171554     0.213864940105

  Mulliken Charges: (a.u.)
   Center  Symbol    Alpha    Beta     Spin     Total
       1     H     0.28130  0.28130  0.00000  0.43740
       2     O     4.37097  4.37097  0.00000 -0.74193
       3     C     3.00493  3.00493  0.00000 -0.00986
       4     C     2.99624  2.99624  0.00000  0.00752
       5     H     0.42231  0.42231  0.00000  0.15538
       6     H     0.40853  0.40853  0.00000  0.18294
       7     O     4.31225  4.31225  0.00000 -0.62449
       8     H     0.43767  0.43767  0.00000  0.12466
       9     H     0.42288  0.42288  0.00000  0.15425
      10     C     3.07672  3.07672  0.00000 -0.15343
      11     H     0.42194  0.42194  0.00000  0.15612
      12     H     0.41634  0.41634  0.00000  0.16731
      13     H     0.42793  0.42793  0.00000  0.14413

   Total alpha = 21.00000, Total beta = 21.00000, Total charge =  0.00000
