  ==> Input File <==

--------------------------------------------------------------------------
set {
	reference rhf
	basis 6-31G*
}

set_num_threads( 4 )
memory 2 gb

molecule MOL {
0 1

H	 -2.698709	 -0.000305	 0.034435
C	 -1.693833	 0.000034	 0.434417
O	 -0.828952	 -0.000968	 -0.659236
H	 -1.574200	 0.882896	 1.055746
H	 -1.574147	 -0.881698	 1.057355
C	 -1.366208	 -0.216900	 -1.943461
C	 -1.982016	 -1.606499	 -2.094161
C	 -2.325039	 0.892484	 -2.371091
H	 -0.495192	 -0.168556	 -2.586132
H	 -1.293779	 -2.363945	 -1.734779
H	 -2.193626	 -1.807186	 -3.139714
H	 -2.915056	 -1.703983	 -1.548179
H	 -1.874549	 1.864680	 -2.202714
H	 -2.550828	 0.800471	 -3.428928
H	 -3.266262	 0.852571	 -1.832252

	symmetry c1
}
set optking {
	frozen_dihedral = ("
		6 3 2 1
	")
}

ee = optimize('scf')
oeprop('DIPOLE', 'QUADRUPOLE', 'MULLIKEN_CHARGES')
f=open( 'psi4out.xyz', 'w' )
f.write( "15  " )
f.write( str(ee) + "\n" )
f.write( MOL.save_string_xyz() )
f.close()
--------------------------------------------------------------------------

    Molecular point group: c1
  Charge       = 0
  Multiplicity = 1
  Basis Set: 6-31G*
  Basis Set:
  @DF-RHF Final Energy:  -232.13309345476625
    Total Energy =                       -232.1330934547664242
    Molecular point group: c1
  Basis Set: 6-31G*
  Basis Set:
  Basis Set: 6-31G*
  Basis Set:
  @DF-RHF Final Energy:  -232.13472731601246
    Total Energy =                       -232.1347273160124587
  Basis Set: 6-31G*
  Basis Set:
  Basis Set: 6-31G*
  Basis Set:
  @DF-RHF Final Energy:  -232.13550612504270
    Total Energy =                       -232.1355061250426957
  Basis Set: 6-31G*
  Basis Set:
  Basis Set: 6-31G*
  Basis Set:
  @DF-RHF Final Energy:  -232.13552591944364
    Total Energy =                       -232.1355259194435803
  Basis Set: 6-31G*
  Basis Set:
  Basis Set: 6-31G*
  Basis Set:
  @DF-RHF Final Energy:  -232.13553163348118
    Total Energy =                       -232.1355316334813210
  Basis Set: 6-31G*
  Basis Set:
  Charge       = 0
  Multiplicity = 1
  Basis Set: 6-31G*
  Basis Set:

    Orbital Energies (a.u.)
    -----------------------

    Doubly Occupied:

       1A    -20.545800     2A    -11.274968     3A    -11.261442
       4A    -11.210669     5A    -11.210225     6A     -1.367988
       7A     -1.049935     8A     -0.939829     9A     -0.931438
      10A     -0.781571    11A     -0.675758    12A     -0.638287
      13A     -0.631925    14A     -0.569202    15A     -0.563539
      16A     -0.552521    17A     -0.538357    18A     -0.500778
      19A     -0.497903    20A     -0.441731    21A     -0.402873

  @DF-RHF Final Energy:  -232.13553216338701

   => Energetics <=

    Nuclear Repulsion Energy =            198.6374387354635189
    One-Electron Energy =                -708.3724668195807226
    Two-Electron Energy =                 277.5994959207301349
    DFT Exchange-Correlation Energy =       0.0000000000000000
    Empirical Dispersion Energy =           0.0000000000000000
    PCM Polarization Energy =               0.0000000000000000
    EFP Energy =                            0.0000000000000000
    Total Energy =                       -232.1355321633870403
    Molecular point group: c1
  Basis Set: 6-31G*
  Basis Set:

  -Total Gradient:
     Atom            X                  Y                   Z
    ------   -----------------  -----------------  -----------------
       1        0.000074842149    -0.001070754000    -0.000165604677
       2        0.000024126725     0.001993569371     0.000214126629
       3       -0.000012408149    -0.001733597610     0.000114819542
       4       -0.000004842795    -0.000019895925    -0.000048630079
       5       -0.000010011229    -0.000004711567    -0.000058216518
       6       -0.000184436128     0.000834154780    -0.000218884132
       7        0.000039105914     0.000004410542    -0.000015774948
       8        0.000010518903    -0.000019110937     0.000001253636
       9        0.000037271728     0.000025932844     0.000000700707
      10       -0.000036501454    -0.000033720531     0.000052338018
      11        0.000031126361     0.000016069149     0.000028801531
      12        0.000030486663    -0.000026283749    -0.000036793685
      13       -0.000028304011     0.000012086741     0.000035288377
      14       -0.000005344248     0.000016831692     0.000041993950
      15        0.000034369571     0.000005019202     0.000054581649

  **** Optimization is complete! (in 6 steps) ****
    Final optimized geometry and variables:
    Molecular point group: c1

    Geometry (in Angstrom), charge = 0, multiplicity = 1:

    H           -1.112378983173     0.131290177226     1.457515861791
    C           -0.068844206521     0.164589453942     1.746830147534
    O            0.801863553509     0.197137763560     0.653216567880
    H            0.091526034879     1.052013117932     2.347719857663
    H            0.135798428700    -0.708656287430     2.358581150737
    C            0.291211203798    -0.028520118982    -0.639420437689
    C           -0.318985295745    -1.420676132185    -0.786646458066
    C           -0.654081844783     1.083582684581    -1.089004566386
    H            1.174012043706     0.014998732377    -1.266052417564
    H            0.381936681482    -2.174109007349    -0.444028013609
    H           -0.553608826205    -1.621126191466    -1.827455970213
    H           -1.237419001975    -1.526383595046    -0.217555563487
    H           -0.183217694458     2.050633657200    -0.950804208267
    H           -0.896057532187     0.968396053114    -2.141067205966
    H           -1.588289644474     1.077783646924    -0.536556730149

  Mulliken Charges: (a.u.)
   Center  Symbol    Alpha    Beta     Spin     Total
       1     H     0.42980  0.42980  0.00000  0.14039
       2     C     3.07881  3.07881  0.00000 -0.15761
       3     O     4.31534  4.31534  0.00000 -0.63069
       4     H     0.41822  0.41822  0.00000  0.16356
       5     H     0.42267  0.42267  0.00000  0.15467
       6     C     2.91003  2.91003  0.00000  0.17994
       7     C     3.25171  3.25171  0.00000 -0.50343
       8     C     3.25056  3.25056  0.00000 -0.50113
       9     H     0.41546  0.41546  0.00000  0.16908
      10     H     0.41166  0.41166  0.00000  0.17669
      11     H     0.41970  0.41970  0.00000  0.16059
      12     H     0.42210  0.42210  0.00000  0.15580
      13     H     0.41155  0.41155  0.00000  0.17690
      14     H     0.42027  0.42027  0.00000  0.15945
      15     H     0.42211  0.42211  0.00000  0.15579

   Total alpha = 21.00000, Total beta = 21.00000, Total charge = -0.00000
