  ==> Input File <==

--------------------------------------------------------------------------
set {
	reference rhf
	basis 6-31G*
}

set_num_threads( 1 )
memory 2 gb

molecule MOL {
0 1

O	 -2.460756	 1.140370	 0.025814
C	 -2.132779	 -0.007144	 0.034592
C	 -0.889235	 -0.467034	 -0.705952
C	 -2.912825	 -1.049930	 0.803682
C	 0.379448	 -0.143569	 0.099626
H	 -0.858808	 0.057294	 -1.654876
H	 -0.937986	 -1.532916	 -0.909781
C	 1.631333	 -0.777471	 -0.511575
H	 0.482768	 0.934507	 0.149241
H	 0.263088	 -0.495696	 1.123449
C	 2.915987	 -0.544314	 0.291766
H	 1.766672	 -0.399098	 -1.523130
H	 1.471257	 -1.849544	 -0.605828
C	 3.373361	 0.914346	 0.347591
H	 3.708709	 -1.142521	 -0.150311
H	 2.780642	 -0.921148	 1.303579
H	 3.506512	 1.320010	 -0.651625
H	 4.322697	 0.999599	 0.867103
H	 2.660624	 1.545032	 0.868198
H	 -3.363791	 -1.754286	 0.109581
H	 -3.688643	 -0.575437	 1.388274
H	 -2.255574	 -1.618773	 1.455021

	symmetry c1
}
set optking {
	frozen_dihedral = ("
		6 3 2 1,
		3 5 8 12,
		12 8 11 15
	")
}

ee = energy('scf')
oeprop('DIPOLE', 'QUADRUPOLE', 'MULLIKEN_CHARGES')
f=open( 'psi4out.xyz', 'w' )
f.write( "22  " )
f.write( str(ee) + "\n" )
f.write( MOL.save_string_xyz() )
f.close()
--------------------------------------------------------------------------

    Molecular point group: c1

    Geometry (in Angstrom), charge = 0, multiplicity = 1:

       Center              X                  Y                   Z               Mass
    ------------   -----------------  -----------------  -----------------  -----------------
           O         -2.451634580904     1.246735350622    -0.031259922411    15.994914619560
           C         -2.123657580904     0.099221350622    -0.022481922411    12.000000000000
           C         -0.880113580904    -0.360668649378    -0.763025922411    12.000000000000
           C         -2.903703580904    -0.943564649378     0.746608077589    12.000000000000
           C          0.388569419096    -0.037203649378     0.042552077589    12.000000000000
           H         -0.849686580904     0.163659350622    -1.711949922411     1.007825032070
           H         -0.928864580904    -1.426550649378    -0.966854922411     1.007825032070
           C          1.640454419096    -0.671105649378    -0.568648922411    12.000000000000
           H          0.491889419096     1.040872350622     0.092167077589     1.007825032070
           H          0.272209419096    -0.389330649378     1.066375077589     1.007825032070
           C          2.925108419096    -0.437948649378     0.234692077589    12.000000000000
           H          1.775793419096    -0.292732649378    -1.580203922411     1.007825032070
           H          1.480378419096    -1.743178649378    -0.662901922411     1.007825032070
           C          3.382482419096     1.020711350622     0.290517077589    12.000000000000
           H          3.717830419096    -1.036155649378    -0.207384922411     1.007825032070
           H          2.789763419096    -0.814782649378     1.246505077589     1.007825032070
           H          3.515633419096     1.426375350622    -0.708698922411     1.007825032070
           H          4.331818419096     1.105964350622     0.810029077589     1.007825032070
           H          2.669745419096     1.651397350622     0.811124077589     1.007825032070
           H         -3.354669580904    -1.647920649378     0.052507077589     1.007825032070
           H         -3.679521580904    -0.469071649378     1.331200077589     1.007825032070
           H         -2.246452580904    -1.512407649378     1.397947077589     1.007825032070

  Charge       = 0
  Multiplicity = 1
  Basis Set: 6-31G*
  Basis Set:

    Orbital Energies (a.u.)
    -----------------------

    Doubly Occupied:

       1A    -20.547151     2A    -11.324404     3A    -11.229676
       4A    -11.228964     5A    -11.228303     6A    -11.222715
       7A    -11.220918     8A    -11.211441     9A     -1.392925
      10A     -1.095925    11A     -1.044364    12A     -0.999530
      13A     -0.937946    14A     -0.857793    15A     -0.786768
      16A     -0.732968    17A     -0.662133    18A     -0.645006
      19A     -0.625703    20A     -0.621269    21A     -0.596429
      22A     -0.581070    23A     -0.564730    24A     -0.542118
      25A     -0.535270    26A     -0.517525    27A     -0.497128
      28A     -0.490224    29A     -0.471201    30A     -0.464598
      31A     -0.459012    32A     -0.396114

  @DF-RHF Final Energy:  -348.09793212978605

   => Energetics <=

    Nuclear Repulsion Energy =            372.9035314073544214
    One-Electron Energy =               -1210.5399046522738900
    Two-Electron Energy =                 489.5384411151326844
    DFT Exchange-Correlation Energy =       0.0000000000000000
    Empirical Dispersion Energy =           0.0000000000000000
    PCM Polarization Energy =               0.0000000000000000
    EFP Energy =                            0.0000000000000000
    Total Energy =                       -348.0979321297867841

  Mulliken Charges: (a.u.)
   Center  Symbol    Alpha    Beta     Spin     Total
       1     O     4.26250  4.26250  0.00000 -0.52500
       2     C     2.73701  2.73701  0.00000  0.52598
       3     C     3.20003  3.20003  0.00000 -0.40007
       4     C     3.28956  3.28956  0.00000 -0.57912
       5     C     3.16279  3.16279  0.00000 -0.32558
       6     H     0.40099  0.40099  0.00000  0.19802
       7     H     0.41712  0.41712  0.00000  0.16576
       8     C     3.15299  3.15299  0.00000 -0.30598
       9     H     0.40405  0.40405  0.00000  0.19190
      10     H     0.42116  0.42116  0.00000  0.15769
      11     C     3.15324  3.15324  0.00000 -0.30649
      12     H     0.42096  0.42096  0.00000  0.15809
      13     H     0.42198  0.42198  0.00000  0.15605
      14     C     3.24216  3.24216  0.00000 -0.48432
      15     H     0.41959  0.41959  0.00000  0.16083
      16     H     0.42282  0.42282  0.00000  0.15435
      17     H     0.42101  0.42101  0.00000  0.15798
      18     H     0.41813  0.41813  0.00000  0.16374
      19     H     0.41819  0.41819  0.00000  0.16362
      20     H     0.40688  0.40688  0.00000  0.18624
      21     H     0.39702  0.39702  0.00000  0.20596
      22     H     0.40982  0.40982  0.00000  0.18036

   Total alpha = 32.00000, Total beta = 32.00000, Total charge =  0.00000
