  ==> Input File <==

--------------------------------------------------------------------------
set {
	reference rhf
	basis cc-pvtz
}

set_num_threads( 4 )
memory 2 gb

molecule MOL {
0 1

H	 -2.498963	 -0.741158	 -0.729149
O	 -2.346257	 -0.289210	 0.080372
C	 -1.183935	 0.486039	 -0.009831
C	 0.062853	 -0.375310	 0.027457
H	 -1.178881	 1.094526	 -0.908634
H	 -1.184406	 1.155156	 0.838676
O	 1.172093	 0.457955	 -0.054438
H	 0.052476	 -1.081302	 -0.804627
H	 0.076323	 -0.955658	 0.947560
C	 1.131449	 1.375860	 -1.097041
H	 0.278928	 2.045103	 -1.004334
H	 2.038688	 1.960784	 -1.058732
H	 1.075087	 0.878366	 -2.062361

	symmetry c1
}
set optking {
	frozen_dihedral = ("
		10 7 4 8
	")
}

ee = optimize('scf')
oeprop('DIPOLE', 'QUADRUPOLE', 'MULLIKEN_CHARGES')
f=open( 'psi4out.xyz', 'w' )
f.write( "13  " )
f.write( str(ee) + "\n" )
f.write( MOL.save_string_xyz() )
f.close()
--------------------------------------------------------------------------

    Molecular point group: c1
  Charge       = 0
  Multiplicity = 1
  Basis Set: CC-PVTZ
  Basis Set:
  @DF-RHF Final Energy:  -268.04798809415468
    Total Energy =                       -268.0479880941546753
    Molecular point group: c1
  Basis Set: CC-PVTZ
  Basis Set:
  Basis Set: CC-PVTZ
  Basis Set:
  @DF-RHF Final Energy:  -268.04912248608298
    Total Energy =                       -268.0491224860830926
  Basis Set: CC-PVTZ
  Basis Set:
  Basis Set: CC-PVTZ
  Basis Set:
  @DF-RHF Final Energy:  -268.05491176325319
    Total Energy =                       -268.0549117632533580
  Basis Set: CC-PVTZ
  Basis Set:
  Basis Set: CC-PVTZ
  Basis Set:
  @DF-RHF Final Energy:  -268.05681829893535
    Total Energy =                       -268.0568182989354682
  Basis Set: CC-PVTZ
  Basis Set:
  Basis Set: CC-PVTZ
  Basis Set:
  @DF-RHF Final Energy:  -268.05708102982709
    Total Energy =                       -268.0570810298269180
  Basis Set: CC-PVTZ
  Basis Set:
  Basis Set: CC-PVTZ
  Basis Set:
  @DF-RHF Final Energy:  -268.05713309656608
    Total Energy =                       -268.0571330965660763
  Basis Set: CC-PVTZ
  Basis Set:
  Basis Set: CC-PVTZ
  Basis Set:
  @DF-RHF Final Energy:  -268.05713847602431
    Total Energy =                       -268.0571384760245905
  Basis Set: CC-PVTZ
  Basis Set:
  Charge       = 0
  Multiplicity = 1
  Basis Set: CC-PVTZ
  Basis Set:

    Orbital Energies (a.u.)
    -----------------------

    Doubly Occupied:

       1A    -20.556770     2A    -20.554498     3A    -11.272406
       4A    -11.269485     5A    -11.268520     6A     -1.388633
       7A     -1.372203     8A     -1.014402     9A     -0.935111
      10A     -0.833350    11A     -0.713172    12A     -0.676840
      13A     -0.666304    14A     -0.636596    15A     -0.601189
      16A     -0.576130    17A     -0.534668    18A     -0.502469
      19A     -0.495807    20A     -0.448647    21A     -0.411529

  @DF-RHF Final Energy:  -268.05713906653233

   => Energetics <=

    Nuclear Repulsion Energy =            192.8426214227685591
    One-Electron Energy =                -748.3420574136318919
    Two-Electron Energy =                 287.4422969243310604
    DFT Exchange-Correlation Energy =       0.0000000000000000
    Empirical Dispersion Energy =           0.0000000000000000
    PCM Polarization Energy =               0.0000000000000000
    EFP Energy =                            0.0000000000000000
    Total Energy =                       -268.0571390665322156
    Molecular point group: c1
  Basis Set: CC-PVTZ
  Basis Set:

  -Total Gradient:
     Atom            X                  Y                   Z
    ------   -----------------  -----------------  -----------------
       1        0.000000263365     0.000021655988     0.000001838629
       2        0.000004927696    -0.000013459940     0.000017402402
       3       -0.000005555466    -0.000007800893    -0.000045387139
       4       -0.002712489129     0.003799443653    -0.001823494333
       5        0.000007205596     0.000003727174     0.000001441005
       6       -0.000002825489    -0.000010670420    -0.000000050750
       7        0.002423697721    -0.003496563443    -0.001830243379
       8        0.001636272558    -0.002288036045     0.002047439306
       9       -0.000007431828    -0.000001055053    -0.000000282928
      10       -0.001341180934     0.002006113134     0.001633877113
      11        0.000006218123    -0.000010188864    -0.000007549256
      12       -0.000003722174     0.000007545320     0.000001469796
      13       -0.000005380044    -0.000010710611     0.000003539534

  **** Optimization is complete! (in 8 steps) ****
    Final optimized geometry and variables:
    Molecular point group: c1

    Geometry (in Angstrom), charge = 0, multiplicity = 1:

    H           -2.240037980252    -1.272625521723    -0.350490997403
    O           -2.098422666556    -0.738867079640     0.410069868435
    C           -1.027701561752     0.137713768970     0.194293840707
    C            0.289938902150    -0.623996258897     0.183103146137
    H           -1.174111545042     0.698959924771    -0.722928206012
    H           -1.029143586906     0.842168241290     1.015217114137
    O            1.433812693508     0.171276221754     0.158709949291
    H            0.311067916355    -1.339474398088    -0.641514530778
    H            0.345552485399    -1.202014774236     1.095116239179
    C            1.541113806030     1.094542016523    -0.877421611004
    H            0.861536239709     1.931567588657    -0.755216667364
    H            2.552897620147     1.473003439103    -0.867500083133
    H            1.354716945051     0.634052327016    -1.845923791790

  Mulliken Charges: (a.u.)
   Center  Symbol    Alpha    Beta     Spin     Total
       1     H     0.39359  0.39359  0.00000  0.21283
       2     O     4.20118  4.20118  0.00000 -0.40236
       3     C     2.98224  2.98224  0.00000  0.03552
       4     C     2.98624  2.98624  0.00000  0.02752
       5     H     0.47033  0.47033  0.00000  0.05935
       6     H     0.44791  0.44791  0.00000  0.10418
       7     O     4.17540  4.17540  0.00000 -0.35080
       8     H     0.47644  0.47644  0.00000  0.04713
       9     H     0.44707  0.44707  0.00000  0.10585
      10     C     3.03643  3.03643  0.00000 -0.07287
      11     H     0.46812  0.46812  0.00000  0.06376
      12     H     0.44252  0.44252  0.00000  0.11495
      13     H     0.47253  0.47253  0.00000  0.05494

   Total alpha = 21.00000, Total beta = 21.00000, Total charge = -0.00000
