  ==> Input File <==

--------------------------------------------------------------------------
set {
	reference rhf
	basis 6-31G*
}

set_num_threads( 1 )
memory 2 gb

molecule MOL {
0 1

O	 2.862325	 1.357334	 0.000267
C	 2.843464	 0.164689	 -0.000222
C	 1.546494	 -0.624492	 -0.000609
C	 4.124123	 -0.644674	 -0.000428
C	 0.291004	 0.242674	 0.000989
H	 1.557904	 -1.283758	 -0.867573
H	 1.558622	 -1.285963	 0.864672
C	 -0.274134	 0.453500	 1.406668
H	 -0.459831	 -0.217286	 -0.633686
H	 0.520521	 1.201797	 -0.452389
C	 -1.534169	 1.320596	 1.420389
H	 -0.498832	 -0.512405	 1.856764
H	 0.484471	 0.913565	 2.038273
C	 -2.105586	 1.535976	 2.822925
H	 -2.293449	 0.861279	 0.789882
H	 -1.310509	 2.286744	 0.971468
C	 -3.364216	 2.402870	 2.828405
H	 -2.330664	 0.570944	 3.272234
H	 -1.348007	 1.996451	 3.453714
H	 -4.153249	 1.952036	 2.233152
H	 -3.745729	 2.536862	 3.835974
H	 -3.163383	 3.388038	 2.416999
H	 4.165367	 -1.288615	 -0.874074
H	 4.976217	 0.020734	 -0.001915
H	 4.166763	 -1.286207	 0.874930

	symmetry c1
}
set optking {
	frozen_dihedral = ("
		9 5 8 12,
		15 11 8 12,
		15 11 14 18,
		1 2 3 6
	")
}

ee = energy('scf')
oeprop('DIPOLE', 'QUADRUPOLE', 'MULLIKEN_CHARGES')
f=open( 'psi4out.xyz', 'w' )
f.write( "25  " )
f.write( str(ee) + "\n" )
f.write( MOL.save_string_xyz() )
f.close()
--------------------------------------------------------------------------

    Molecular point group: c1

    Geometry (in Angstrom), charge = 0, multiplicity = 1:

       Center              X                  Y                   Z               Mass
    ------------   -----------------  -----------------  -----------------  -----------------
           O          2.376702945471     0.655996548786    -0.949426702087    15.994914619560
           C          2.357841945471    -0.536648451214    -0.949915702087    12.000000000000
           C          1.060871945471    -1.325829451214    -0.950302702087    12.000000000000
           C          3.638500945471    -1.346011451214    -0.950121702087    12.000000000000
           C         -0.194618054529    -0.458663451214    -0.948704702087    12.000000000000
           H          1.072281945471    -1.985095451214    -1.817266702087     1.007825032070
           H          1.072999945471    -1.987300451214    -0.085021702087     1.007825032070
           C         -0.759756054529    -0.247837451214     0.456974297913    12.000000000000
           H         -0.945453054529    -0.918623451214    -1.583379702087     1.007825032070
           H          0.034898945471     0.500459548786    -1.402082702087     1.007825032070
           C         -2.019791054529     0.619258548786     0.470695297913    12.000000000000
           H         -0.984454054529    -1.213742451214     0.907070297913     1.007825032070
           H         -0.001151054529     0.212227548786     1.088579297913     1.007825032070
           C         -2.591208054529     0.834638548786     1.873231297913    12.000000000000
           H         -2.779071054529     0.159941548786    -0.159811702087     1.007825032070
           H         -1.796131054529     1.585406548786     0.021774297913     1.007825032070
           C         -3.849838054529     1.701532548786     1.878711297913    12.000000000000
           H         -2.816286054529    -0.130393451214     2.322540297913     1.007825032070
           H         -1.833629054529     1.295113548786     2.504020297913     1.007825032070
           H         -4.638871054529     1.250698548786     1.283458297913     1.007825032070
           H         -4.231351054529     1.835524548786     2.886280297913     1.007825032070
           H         -3.649005054529     2.686700548786     1.467305297913     1.007825032070
           H          3.679744945471    -1.989952451214    -1.823767702087     1.007825032070
           H          4.490594945471    -0.680603451214    -0.951608702087     1.007825032070
           H          3.681140945471    -1.987544451214    -0.074763702087     1.007825032070

  Charge       = 0
  Multiplicity = 1
  Basis Set: 6-31G*
  Basis Set:

    Orbital Energies (a.u.)
    -----------------------

    Doubly Occupied:

       1A    -20.551424     2A    -11.327162     3A    -11.230901
       4A    -11.228978     5A    -11.214154     6A    -11.212967
       7A    -11.212543     8A    -11.210206     9A    -11.206119
      10A     -1.397064    11A     -1.091254    12A     -1.054803
      13A     -1.013791    14A     -0.967534    15A     -0.888533
      16A     -0.814668    17A     -0.788473    18A     -0.729200
      19A     -0.668723    20A     -0.638370    21A     -0.633251
      22A     -0.622237    23A     -0.590962    24A     -0.583469
      25A     -0.575381    26A     -0.556824    27A     -0.532674
      28A     -0.525057    29A     -0.514455    30A     -0.496627
      31A     -0.483302    32A     -0.471762    33A     -0.461928
      34A     -0.458255    35A     -0.440261    36A     -0.402414

  @DF-RHF Final Energy:  -387.13368848438364

   => Energetics <=

    Nuclear Repulsion Energy =            445.0463662079974370
    One-Electron Energy =               -1406.7684340805840293
    Two-Electron Energy =                 574.5883793882010195
    DFT Exchange-Correlation Energy =       0.0000000000000000
    Empirical Dispersion Energy =           0.0000000000000000
    PCM Polarization Energy =               0.0000000000000000
    EFP Energy =                            0.0000000000000000
    Total Energy =                       -387.1336884843856296

  Mulliken Charges: (a.u.)
   Center  Symbol    Alpha    Beta     Spin     Total
       1     O     4.26112  4.26112  0.00000 -0.52225
       2     C     2.73713  2.73713  0.00000  0.52573
       3     C     3.21404  3.21404  0.00000 -0.42807
       4     C     3.28689  3.28689  0.00000 -0.57378
       5     C     3.15502  3.15502  0.00000 -0.31005
       6     H     0.40686  0.40686  0.00000  0.18628
       7     H     0.40820  0.40820  0.00000  0.18360
       8     C     3.15533  3.15533  0.00000 -0.31066
       9     H     0.42125  0.42125  0.00000  0.15750
      10     H     0.39893  0.39893  0.00000  0.20214
      11     C     3.15166  3.15166  0.00000 -0.30332
      12     H     0.42655  0.42655  0.00000  0.14690
      13     H     0.41746  0.41746  0.00000  0.16508
      14     C     3.15162  3.15162  0.00000 -0.30323
      15     H     0.42521  0.42521  0.00000  0.14957
      16     H     0.42026  0.42026  0.00000  0.15947
      17     C     3.23928  3.23928  0.00000 -0.47857
      18     H     0.42446  0.42446  0.00000  0.15108
      19     H     0.42212  0.42212  0.00000  0.15575
      20     H     0.42241  0.42241  0.00000  0.15517
      21     H     0.41984  0.41984  0.00000  0.16032
      22     H     0.42101  0.42101  0.00000  0.15798
      23     H     0.40854  0.40854  0.00000  0.18291
      24     H     0.39642  0.39642  0.00000  0.20715
      25     H     0.40835  0.40835  0.00000  0.18330

   Total alpha = 36.00000, Total beta = 36.00000, Total charge = -0.00000
