  ==> Input File <==

--------------------------------------------------------------------------
set {
	reference rhf
	basis cc-pvtz
}

set_num_threads( 4 )
memory 2 gb

molecule MOL {
0 1

H	 -3.642953	 0.223825	 0.000000
C	 -2.571844	 0.155001	 0.000000
C	 -1.957580	 -1.086132	 0.000000
C	 -1.807160	 1.303787	 0.000000
H	 -2.551493	 -1.979629	 0.000000
C	 -0.582719	 -1.174294	 0.000000
H	 -2.279934	 2.266806	 0.000000
C	 -0.427220	 1.213406	 0.000000
H	 -0.094904	 -2.127556	 0.000000
C	 0.196908	 -0.024061	 0.000000
H	 0.151409	 2.115254	 0.000000
C	 1.690041	 -0.173233	 0.000000
C	 2.505239	 0.598734	 1.012017
O	 2.225611	 -0.888831	 -0.785141
H	 2.351113	 1.664921	 0.895953
H	 3.547546	 0.367331	 0.861092
H	 2.217759	 0.330118	 2.021561

	symmetry c1
}
set optking {
	frozen_dihedral = ("
		13 12 10 8
	")
}

ee = optimize('scf')
oeprop('DIPOLE', 'QUADRUPOLE', 'MULLIKEN_CHARGES')
f=open( 'psi4out.xyz', 'w' )
f.write( "17  " )
f.write( str(ee) + "\n" )
f.write( MOL.save_string_xyz() )
f.close()
--------------------------------------------------------------------------

    Molecular point group: c1
  Charge       = 0
  Multiplicity = 1
  Basis Set: CC-PVTZ
  Basis Set:
  @DF-RHF Final Energy:  -382.60078522239627
    Total Energy =                       -382.6007852223966665
    Molecular point group: c1
  Basis Set: CC-PVTZ
  Basis Set:
  Basis Set: CC-PVTZ
  Basis Set:
  @DF-RHF Final Energy:  -382.59985922465978
    Total Energy =                       -382.5998592246602357
  Basis Set: CC-PVTZ
  Basis Set:
  Basis Set: CC-PVTZ
  Basis Set:
  @DF-RHF Final Energy:  -382.60147660125966
    Total Energy =                       -382.6014766012597192
  Basis Set: CC-PVTZ
  Basis Set:
  Basis Set: CC-PVTZ
  Basis Set:
  @DF-RHF Final Energy:  -382.60159207164594
    Total Energy =                       -382.6015920716461096
  Basis Set: CC-PVTZ
  Basis Set:
  Basis Set: CC-PVTZ
  Basis Set:
  @DF-RHF Final Energy:  -382.60159726476525
    Total Energy =                       -382.6015972647653598
  Basis Set: CC-PVTZ
  Basis Set:
  Basis Set: CC-PVTZ
  Basis Set:
  @DF-RHF Final Energy:  -382.60160044592715
    Total Energy =                       -382.6016004459271471
  Basis Set: CC-PVTZ
  Basis Set:
  Basis Set: CC-PVTZ
  Basis Set:
  @DF-RHF Final Energy:  -382.60160150614070
    Total Energy =                       -382.6016015061405824
  Basis Set: CC-PVTZ
  Basis Set:
  Charge       = 0
  Multiplicity = 1
  Basis Set: CC-PVTZ
  Basis Set:

    Orbital Energies (a.u.)
    -----------------------

    Doubly Occupied:

       1A    -20.543878     2A    -11.328910     3A    -11.245531
       4A    -11.244205     5A    -11.241338     6A    -11.239994
       7A    -11.239103     8A    -11.237455     9A    -11.230235
      10A     -1.404478    11A     -1.171223    12A     -1.053546
      13A     -1.030359    14A     -1.000369    15A     -0.863609
      16A     -0.840497    17A     -0.764501    18A     -0.709521
      19A     -0.662711    20A     -0.650888    21A     -0.627468
      22A     -0.621339    23A     -0.603324    24A     -0.592602
      25A     -0.560987    26A     -0.530345    27A     -0.517791
      28A     -0.506412    29A     -0.496477    30A     -0.414405
      31A     -0.349574    32A     -0.346939

  @DF-RHF Final Energy:  -382.60160148581406

   => Energetics <=

    Nuclear Repulsion Energy =            404.1038551747089969
    One-Electron Energy =               -1319.6708832010704100
    Two-Electron Energy =                 532.9654265405476963
    DFT Exchange-Correlation Energy =       0.0000000000000000
    Empirical Dispersion Energy =           0.0000000000000000
    PCM Polarization Energy =               0.0000000000000000
    EFP Energy =                            0.0000000000000000
    Total Energy =                       -382.6016014858137169
    Molecular point group: c1
  Basis Set: CC-PVTZ
  Basis Set:

  -Total Gradient:
     Atom            X                  Y                   Z
    ------   -----------------  -----------------  -----------------
       1       -0.000000899906     0.000005862315    -0.000006582575
       2        0.000091319229    -0.000157607891     0.000011986256
       3       -0.000033686236     0.000164228575     0.000050604577
       4        0.000007925428    -0.000172177297    -0.000008122867
       5       -0.000003951057     0.000001388995     0.000001792129
       6        0.000024336326     0.000244064920    -0.000089333356
       7       -0.000008405942    -0.000007111466     0.000009969190
       8       -0.000083552601     0.000280821807    -0.003616029984
       9        0.000050260494    -0.000215878599     0.000044722552
      10       -0.000127006790    -0.001435943549     0.006284604458
      11        0.000109009389     0.000009407659     0.000000465565
      12       -0.000021296375     0.003825902104    -0.004723325752
      13        0.000267088779    -0.002629184650     0.001995089843
      14        0.000025896273    -0.000029808067     0.000004846574
      15       -0.000101832584     0.000071870464     0.000038075566
      16       -0.000018834752     0.000007483271    -0.000005282983
      17       -0.000176369669     0.000036681411     0.000006520808

  **** Optimization is complete! (in 8 steps) ****
    Final optimized geometry and variables:
    Molecular point group: c1

    Geometry (in Angstrom), charge = 0, multiplicity = 1:

    H           -3.636232307968     0.254107459678    -0.059018694953
    C           -2.565695009557     0.180069072176    -0.044451771080
    C           -1.957343453964    -1.062403094851    -0.045664461669
    C           -1.794379844239     1.325266067164    -0.031860143149
    H           -2.554804634452    -1.953529828637    -0.062136316134
    C           -0.581127192786    -1.157651489356    -0.041276680164
    H           -2.262707093836     2.290537110657    -0.046405683376
    C           -0.415458539272     1.229878053974    -0.000890117891
    H           -0.102493047919    -2.116753374278    -0.072392391544
    C            0.198475147271    -0.011625786010     0.002124803060
    H            0.173767477140     2.126532398163     0.009555076631
    C            1.693386048331    -0.156287897442    -0.039089222964
    C            2.509781917733     0.646072262739     0.945938003545
    O            2.202531443022    -0.941575133546    -0.770635778513
    H            2.318881002202     1.707961887834     0.851591699873
    H            3.558815020127     0.448946098556     0.788551399909
    H            2.225983862988     0.358421310858     1.952235864637

  Mulliken Charges: (a.u.)
   Center  Symbol    Alpha    Beta     Spin     Total
       1     H     0.42095  0.42095  0.00000  0.15810
       2     C     3.07917  3.07917  0.00000 -0.15834
       3     C     3.06736  3.06736  0.00000 -0.13471
       4     C     3.06892  3.06892  0.00000 -0.13784
       5     H     0.42099  0.42099  0.00000  0.15803
       6     C     3.08442  3.08442  0.00000 -0.16883
       7     H     0.42181  0.42181  0.00000  0.15637
       8     C     3.09349  3.09349  0.00000 -0.18698
       9     H     0.41447  0.41447  0.00000  0.17107
      10     C     2.98016  2.98016  0.00000  0.03967
      11     H     0.42332  0.42332  0.00000  0.15335
      12     C     2.86818  2.86818  0.00000  0.26364
      13     C     3.15236  3.15236  0.00000 -0.30473
      14     O     4.17140  4.17140  0.00000 -0.34280
      15     H     0.45167  0.45167  0.00000  0.09667
      16     H     0.43542  0.43542  0.00000  0.12916
      17     H     0.44591  0.44591  0.00000  0.10818

   Total alpha = 32.00000, Total beta = 32.00000, Total charge = -0.00000
