  ==> Input File <==

--------------------------------------------------------------------------
set {
	reference rhf
	basis cc-pvtz
}

set_num_threads( 4 )
memory 2 gb

molecule MOL {
0 1

H	 1.604570	 -0.116514	 -1.259718
O	 1.675515	 -0.612943	 -0.465627
C	 1.135873	 0.113391	 0.608264
C	 0.027642	 1.012027	 0.090274
H	 1.902972	 0.727968	 1.072615
H	 0.756163	 -0.561896	 1.370018
C	 -1.138737	 0.285728	 -0.581921
H	 0.464661	 1.708096	 -0.618252
H	 -0.340737	 1.603071	 0.925246
C	 -1.933983	 -0.631436	 0.343653
H	 -0.763151	 -0.285569	 -1.422081
H	 -1.808359	 1.035291	 -0.992333
H	 -2.789188	 -1.049673	 -0.174718
H	 -1.335629	 -1.461368	 0.700418
H	 -2.305435	 -0.092167	 1.209725

	symmetry c1
}
set optking {
	frozen_dihedral = ("
		1 2 3 4
	")
}

ee = optimize('scf')
oeprop('DIPOLE', 'QUADRUPOLE', 'MULLIKEN_CHARGES')
f=open( 'psi4out.xyz', 'w' )
f.write( "15  " )
f.write( str(ee) + "\n" )
f.write( MOL.save_string_xyz() )
f.close()
--------------------------------------------------------------------------

    Molecular point group: c1
  Charge       = 0
  Multiplicity = 1
  Basis Set: CC-PVTZ
  Basis Set:
  @DF-RHF Final Energy:  -232.23427962318283
    Total Energy =                       -232.2342796231828288
    Molecular point group: c1
  Basis Set: CC-PVTZ
  Basis Set:
  Basis Set: CC-PVTZ
  Basis Set:
  @DF-RHF Final Energy:  -232.23567999512144
    Total Energy =                       -232.2356799951214725
  Basis Set: CC-PVTZ
  Basis Set:
  Basis Set: CC-PVTZ
  Basis Set:
  @DF-RHF Final Energy:  -232.23604419391273
    Total Energy =                       -232.2360441939127327
  Basis Set: CC-PVTZ
  Basis Set:
  Basis Set: CC-PVTZ
  Basis Set:
  @DF-RHF Final Energy:  -232.23604755692327
    Total Energy =                       -232.2360475569233245
  Basis Set: CC-PVTZ
  Basis Set:
  Charge       = 0
  Multiplicity = 1
  Basis Set: CC-PVTZ
  Basis Set:

    Orbital Energies (a.u.)
    -----------------------

    Doubly Occupied:

       1A    -20.544945     2A    -11.264711     3A    -11.221053
       4A    -11.218578     5A    -11.208660     6A     -1.363186
       7A     -1.072057     8A     -0.974834     9A     -0.881002
      10A     -0.793282    11A     -0.668465    12A     -0.650544
      13A     -0.637858    14A     -0.586057    15A     -0.571936
      16A     -0.545326    17A     -0.506993    18A     -0.484876
      19A     -0.477046    20A     -0.457872    21A     -0.431721

  @DF-RHF Final Energy:  -232.23604822127103

   => Energetics <=

    Nuclear Repulsion Energy =            191.7345441808502926
    One-Electron Energy =                -694.8191812653533361
    Two-Electron Energy =                 270.8485888632320666
    DFT Exchange-Correlation Energy =       0.0000000000000000
    Empirical Dispersion Energy =           0.0000000000000000
    PCM Polarization Energy =               0.0000000000000000
    EFP Energy =                            0.0000000000000000
    Total Energy =                       -232.2360482212709485
    Molecular point group: c1
  Basis Set: CC-PVTZ
  Basis Set:

  -Total Gradient:
     Atom            X                  Y                   Z
    ------   -----------------  -----------------  -----------------
       1       -0.002024544498    -0.000940638137    -0.000401241919
       2        0.002848567684     0.001777807919     0.000588693840
       3       -0.001896557315    -0.001792581407     0.000173222380
       4        0.001018543281     0.000967287590    -0.000345583197
       5        0.000065404740    -0.000033158445    -0.000078840153
       6       -0.000027575265    -0.000059670169     0.000001920945
       7       -0.000029160001     0.000132257782     0.000010546349
       8        0.000000659721    -0.000049717560    -0.000003383669
       9       -0.000017578101     0.000021142589     0.000002656957
      10        0.000020393248    -0.000003519173     0.000004077737
      11        0.000039104085     0.000030178115     0.000012908527
      12       -0.000030804270    -0.000010386868     0.000014825143
      13        0.000003444448    -0.000026520080     0.000001365197
      14        0.000030643470    -0.000009646783     0.000036859963
      15       -0.000000541226    -0.000002835374    -0.000018028100

  **** Optimization is complete! (in 5 steps) ****
    Final optimized geometry and variables:
    Molecular point group: c1

    Geometry (in Angstrom), charge = 0, multiplicity = 1:

    H            1.704936935515    -0.192606570047    -1.235558875939
    O            1.744918795508    -0.651952699410    -0.417096304948
    C            1.138957992388     0.107621170166     0.596304637220
    C            0.016400995317     1.005235796617     0.096030041978
    H            1.887674223249     0.724949608306     1.085693734642
    H            0.774581747479    -0.595556693114     1.333014669505
    C           -1.158146090711     0.284967168823    -0.570458808651
    H            0.437938613067     1.722578273561    -0.605756443097
    H           -0.346308845746     1.587722826288     0.938759545900
    C           -1.936667413516    -0.642904747168     0.358043185831
    H           -0.801785048716    -0.283188166225    -1.423487755451
    H           -1.833960261168     1.035924834271    -0.967408293050
    H           -2.794608770669    -1.063612238853    -0.153295679166
    H           -1.327479977193    -1.468996216096     0.703531027182
    H           -2.301363488847    -0.108949036182     1.229815121982

  Mulliken Charges: (a.u.)
   Center  Symbol    Alpha    Beta     Spin     Total
       1     H     0.39293  0.39293  0.00000  0.21413
       2     O     4.20725  4.20725  0.00000 -0.41449
       3     C     2.96438  2.96438  0.00000  0.07124
       4     C     3.11880  3.11880  0.00000 -0.23761
       5     H     0.46309  0.46309  0.00000  0.07382
       6     H     0.46251  0.46251  0.00000  0.07498
       7     C     3.08168  3.08168  0.00000 -0.16336
       8     H     0.44953  0.44953  0.00000  0.10094
       9     H     0.45047  0.45047  0.00000  0.09905
      10     C     3.15391  3.15391  0.00000 -0.30782
      11     H     0.45560  0.45560  0.00000  0.08881
      12     H     0.44847  0.44847  0.00000  0.10306
      13     H     0.44621  0.44621  0.00000  0.10758
      14     H     0.44962  0.44962  0.00000  0.10077
      15     H     0.45555  0.45555  0.00000  0.08890

   Total alpha = 21.00000, Total beta = 21.00000, Total charge = -0.00000
