  ==> Input File <==

--------------------------------------------------------------------------
set {
	reference rhf
	basis 6-31G*
}

set_num_threads( 4 )
memory 2 gb

molecule MOL {
0 1

H	 2.332609	 0.878551	 -1.051851
C	 2.357710	 0.000000	 -0.417167
C	 1.175432	 0.000000	 0.532082
H	 3.291263	 0.000000	 0.136880
H	 2.332609	 -0.878551	 -1.051851
O	 0.000000	 0.000000	 -0.221444
H	 1.206604	 0.877321	 1.177902
H	 1.206604	 -0.877321	 1.177902
C	 -1.175432	 0.000000	 0.532082
C	 -1.304273	 -1.341863	 1.226099
H	 -2.034859	 0.177706	 -0.114101
H	 -1.150717	 0.806133	 1.265080
H	 -1.340149	 -2.142742	 0.496297
H	 -2.210416	 -1.376777	 1.822902
H	 -0.454767	 -1.513434	 1.877412

	symmetry c1
}
set optking {
	frozen_dihedral = ("
		11 9 6 3
	")
}

ee = optimize('scf')
oeprop('DIPOLE', 'QUADRUPOLE', 'MULLIKEN_CHARGES')
f=open( 'psi4out.xyz', 'w' )
f.write( "15  " )
f.write( str(ee) + "\n" )
f.write( MOL.save_string_xyz() )
f.close()
--------------------------------------------------------------------------

    Molecular point group: c1
  Charge       = 0
  Multiplicity = 1
  Basis Set: 6-31G*
  Basis Set:
  @DF-RHF Final Energy:  -232.13775294445145
    Total Energy =                       -232.1377529444512788
    Molecular point group: c1
  Basis Set: 6-31G*
  Basis Set:
  Basis Set: 6-31G*
  Basis Set:
  @DF-RHF Final Energy:  -232.13960457877440
    Total Energy =                       -232.1396045787744242
  Basis Set: 6-31G*
  Basis Set:
  Basis Set: 6-31G*
  Basis Set:
  @DF-RHF Final Energy:  -232.14173584351900
    Total Energy =                       -232.1417358435188021
  Basis Set: 6-31G*
  Basis Set:
  Basis Set: 6-31G*
  Basis Set:
  @DF-RHF Final Energy:  -232.14195285773812
    Total Energy =                       -232.1419528577381470
  Basis Set: 6-31G*
  Basis Set:
  Basis Set: 6-31G*
  Basis Set:
  @DF-RHF Final Energy:  -232.14196948774782
    Total Energy =                       -232.1419694877478150
  Basis Set: 6-31G*
  Basis Set:
  Charge       = 0
  Multiplicity = 1
  Basis Set: 6-31G*
  Basis Set:

    Orbital Energies (a.u.)
    -----------------------

    Doubly Occupied:

       1A    -20.550145     2A    -11.268436     3A    -11.267444
       4A    -11.211651     5A    -11.208181     6A     -1.374697
       7A     -1.040365     8A     -0.986951     9A     -0.864731
      10A     -0.809501    11A     -0.673270    12A     -0.651296
      13A     -0.638392    14A     -0.580235    15A     -0.546925
      16A     -0.543029    17A     -0.524354    18A     -0.503350
      19A     -0.487352    20A     -0.455162    21A     -0.408335

  @DF-RHF Final Energy:  -232.14197032075049

   => Energetics <=

    Nuclear Repulsion Energy =            192.7771912822642548
    One-Electron Energy =                -696.6507189047863449
    Two-Electron Energy =                 271.7315573017717725
    DFT Exchange-Correlation Energy =       0.0000000000000000
    Empirical Dispersion Energy =           0.0000000000000000
    PCM Polarization Energy =               0.0000000000000000
    EFP Energy =                            0.0000000000000000
    Total Energy =                       -232.1419703207503176
    Molecular point group: c1
  Basis Set: 6-31G*
  Basis Set:

  -Total Gradient:
     Atom            X                  Y                   Z
    ------   -----------------  -----------------  -----------------
       1       -0.000000633797     0.000000818466    -0.000000818279
       2        0.000028641600    -0.000007338287     0.000008628222
       3       -0.000001319983    -0.000805901992    -0.000011377943
       4        0.000003558398     0.000003310638    -0.000006138770
       5        0.000001829126     0.000001710184     0.000000071494
       6        0.000013062685     0.000945583950    -0.000000824374
       7        0.000002790155     0.000005475390     0.000003828783
       8       -0.000003303023     0.000002605768     0.000003693758
       9        0.000083053416     0.000810068280     0.000084273559
      10        0.000019585401    -0.000006793481     0.000007845244
      11       -0.000142468378    -0.000941473182    -0.000084943931
      12       -0.000012098662    -0.000008375135     0.000001348765
      13       -0.000002450714    -0.000002345716    -0.000003837583
      14        0.000010275045     0.000015032381    -0.000013953001
      15       -0.000000521269    -0.000012377263     0.000012204058

  **** Optimization is complete! (in 6 steps) ****
    Final optimized geometry and variables:
    Molecular point group: c1

    Geometry (in Angstrom), charge = 0, multiplicity = 1:

    H            2.060133648030     1.314272370159    -1.350432243981
    C            2.163774155410     0.385434742457    -0.801120193061
    C            1.015778935440     0.217216672062     0.175627859597
    H            3.113602749517     0.396906481172    -0.275199847479
    H            2.174396934206    -0.431352481252    -1.514030844568
    O           -0.178282841536     0.201627526622    -0.551426174339
    H            1.005274834608     1.037843153259     0.893004060008
    H            1.138859688459    -0.704533951975     0.738978530747
    C           -1.361477362993     0.243902581479     0.193273649847
    C           -1.647846608011    -1.035102485416     0.971595594530
    H           -2.151999120887     0.405433814673    -0.528716471851
    H           -1.347962572604     1.099854320319     0.867260919095
    H           -1.620801015611    -1.892672735834     0.307650282107
    H           -2.635493292670    -0.980614864696     1.419960391701
    H           -0.933422748195    -1.200096708734     1.770790296914

  Mulliken Charges: (a.u.)
   Center  Symbol    Alpha    Beta     Spin     Total
       1     H     0.41391  0.41391  0.00000  0.17219
       2     C     3.24322  3.24322  0.00000 -0.48643
       3     C     2.98980  2.98980  0.00000  0.02040
       4     H     0.42306  0.42306  0.00000  0.15387
       5     H     0.41327  0.41327  0.00000  0.17346
       6     O     4.30988  4.30988  0.00000 -0.61976
       7     H     0.43334  0.43334  0.00000  0.13332
       8     H     0.43001  0.43001  0.00000  0.13998
       9     C     2.99008  2.99008  0.00000  0.01985
      10     C     3.25478  3.25478  0.00000 -0.50956
      11     H     0.41484  0.41484  0.00000  0.17032
      12     H     0.43155  0.43155  0.00000  0.13690
      13     H     0.41296  0.41296  0.00000  0.17409
      14     H     0.42019  0.42019  0.00000  0.15962
      15     H     0.41912  0.41912  0.00000  0.16177

   Total alpha = 21.00000, Total beta = 21.00000, Total charge =  0.00000
