  ==> Input File <==

--------------------------------------------------------------------------
set {
	reference rhf
	basis 6-31G*
}

set_num_threads( 1 )
memory 2 gb

molecule MOL {
0 1

H	 0.244075	 2.501547	 2.169590
C	 -0.236214	 1.572784	 2.501771
C	 -1.466313	 1.178215	 1.724736
O	 0.216975	 0.958654	 3.412383
C	 -1.220012	 1.144545	 0.209990
H	 -1.811166	 0.219304	 2.093892
H	 -2.235247	 1.917381	 1.946162
C	 -0.252658	 0.041456	 -0.226725
H	 -2.173847	 1.006845	 -0.290532
H	 -0.844075	 2.112963	 -0.116499
C	 1.180775	 0.282413	 0.250794
H	 -0.266029	 -0.034465	 -1.312038
H	 -0.597733	 -0.921000	 0.146291
C	 2.148627	 -0.814315	 -0.201312
H	 1.516199	 1.249228	 -0.115937
H	 1.192670	 0.346017	 1.338083
C	 3.580890	 -0.659131	 0.322722
H	 2.166869	 -0.852443	 -1.289387
H	 1.762857	 -1.776509	 0.128956
C	 4.324889	 0.564933	 -0.213704
H	 4.142010	 -1.551473	 0.056605
H	 3.564836	 -0.624694	 1.410140
H	 4.342616	 0.565491	 -1.300421
H	 3.866655	 1.493402	 0.110242
H	 5.353900	 0.572371	 0.132816

	symmetry c1
}
set optking {
	frozen_dihedral = ("
		6 3 5 8,
		6 3 2 4,
		12 8 11 14,
		8 11 14 18,
		20 17 14 18
	")
}

ee = energy('scf')
oeprop('DIPOLE', 'QUADRUPOLE', 'MULLIKEN_CHARGES')
f=open( 'psi4out.xyz', 'w' )
f.write( "25  " )
f.write( str(ee) + "\n" )
f.write( MOL.save_string_xyz() )
f.close()
--------------------------------------------------------------------------

    Molecular point group: c1

    Geometry (in Angstrom), charge = 0, multiplicity = 1:

       Center              X                  Y                   Z               Mass
    ------------   -----------------  -----------------  -----------------  -----------------
           H         -0.697019632487     2.022800500733     1.294255384570     1.007825032070
           C         -1.177308632487     1.094037500733     1.626436384570    12.000000000000
           C         -2.407407632487     0.699468500733     0.849401384570    12.000000000000
           O         -0.724119632487     0.479907500733     2.537048384570    15.994914619560
           C         -2.161106632487     0.665798500733    -0.665344615430    12.000000000000
           H         -2.752260632487    -0.259442499267     1.218557384570     1.007825032070
           H         -3.176341632487     1.438634500733     1.070827384570     1.007825032070
           C         -1.193752632487    -0.437290499267    -1.102059615430    12.000000000000
           H         -3.114941632487     0.528098500733    -1.165866615430     1.007825032070
           H         -1.785169632487     1.634216500733    -0.991833615430     1.007825032070
           C          0.239680367513    -0.196333499267    -0.624540615430    12.000000000000
           H         -1.207123632487    -0.513211499267    -2.187372615430     1.007825032070
           H         -1.538827632487    -1.399746499267    -0.729043615430     1.007825032070
           C          1.207532367513    -1.293061499267    -1.076646615430    12.000000000000
           H          0.575104367513     0.770481500733    -0.991271615430     1.007825032070
           H          0.251575367513    -0.132729499267     0.462748384570     1.007825032070
           C          2.639795367513    -1.137877499267    -0.552612615430    12.000000000000
           H          1.225774367513    -1.331189499267    -2.164721615430     1.007825032070
           H          0.821762367513    -2.255255499267    -0.746378615430     1.007825032070
           C          3.383794367513     0.086186500733    -1.089038615430    12.000000000000
           H          3.200915367513    -2.030219499267    -0.818729615430     1.007825032070
           H          2.623741367513    -1.103440499267     0.534805384570     1.007825032070
           H          3.401521367513     0.086744500733    -2.175755615430     1.007825032070
           H          2.925560367513     1.014655500733    -0.765092615430     1.007825032070
           H          4.412805367513     0.093624500733    -0.742518615430     1.007825032070

  Charge       = 0
  Multiplicity = 1
  Basis Set: 6-31G*
  Basis Set:

    Orbital Energies (a.u.)
    -----------------------

    Doubly Occupied:

       1A    -20.559410     2A    -11.327825     3A    -11.235684
       4A    -11.234931     5A    -11.222480     6A    -11.214307
       7A    -11.213759     8A    -11.213120     9A    -11.207139
      10A     -1.402872    11A     -1.105153    12A     -1.066031
      13A     -1.008377    14A     -0.943225    15A     -0.880120
      16A     -0.812131    17A     -0.790937    18A     -0.777293
      19A     -0.664899    20A     -0.656561    21A     -0.643703
      22A     -0.619924    23A     -0.609822    24A     -0.576349
      25A     -0.568015    26A     -0.559552    27A     -0.537114
      28A     -0.522833    29A     -0.511971    30A     -0.506224
      31A     -0.484564    32A     -0.470721    33A     -0.456458
      34A     -0.449187    35A     -0.441712    36A     -0.408430

  @DF-RHF Final Energy:  -387.11479569569588

   => Energetics <=

    Nuclear Repulsion Energy =            461.1744723827307553
    One-Electron Energy =               -1438.7727274905084869
    Two-Electron Energy =                 590.4834594120809470
    DFT Exchange-Correlation Energy =       0.0000000000000000
    Empirical Dispersion Energy =           0.0000000000000000
    PCM Polarization Energy =               0.0000000000000000
    EFP Energy =                            0.0000000000000000
    Total Energy =                       -387.1147956956967846

  Mulliken Charges: (a.u.)
   Center  Symbol    Alpha    Beta     Spin     Total
       1     H     0.43004  0.43004  0.00000  0.13992
       2     C     2.83151  2.83151  0.00000  0.33698
       3     C     3.20446  3.20446  0.00000 -0.40893
       4     O     4.24292  4.24292  0.00000 -0.48584
       5     C     3.16882  3.16882  0.00000 -0.33765
       6     H     0.39941  0.39941  0.00000  0.20118
       7     H     0.40612  0.40612  0.00000  0.18777
       8     C     3.15242  3.15242  0.00000 -0.30484
       9     H     0.41130  0.41130  0.00000  0.17740
      10     H     0.41919  0.41919  0.00000  0.16161
      11     C     3.17587  3.17587  0.00000 -0.35174
      12     H     0.41825  0.41825  0.00000  0.16351
      13     H     0.41881  0.41881  0.00000  0.16239
      14     C     3.15052  3.15052  0.00000 -0.30105
      15     H     0.42316  0.42316  0.00000  0.15368
      16     H     0.40418  0.40418  0.00000  0.19164
      17     C     3.15375  3.15375  0.00000 -0.30750
      18     H     0.42520  0.42520  0.00000  0.14959
      19     H     0.42079  0.42079  0.00000  0.15841
      20     C     3.24091  3.24091  0.00000 -0.48182
      21     H     0.42118  0.42118  0.00000  0.15764
      22     H     0.41820  0.41820  0.00000  0.16359
      23     H     0.42329  0.42329  0.00000  0.15343
      24     H     0.42105  0.42105  0.00000  0.15791
      25     H     0.41864  0.41864  0.00000  0.16273

   Total alpha = 36.00000, Total beta = 36.00000, Total charge = -0.00000
