                              Psi4 1.0.54 Driver

  ==> Input File <==

--------------------------------------------------------------------------
set {
	reference rhf
	basis cc-pvtz
}

set_num_threads( 4 )
memory 2 gb

molecule MOL {
0 1

H	 -2.123894	 -0.667238	 -0.609809
O	 -2.041679	 -0.058866	 0.103463
C	 -0.959304	 0.780994	 -0.094939
C	 0.354905	 0.037902	 -0.006215
H	 -0.985899	 1.279578	 -1.057596
H	 -0.969809	 1.529522	 0.682889
F	 1.233212	 0.525822	 -0.864296
F	 0.867988	 0.158560	 1.200344
F	 0.226304	 -1.241899	 -0.262227

	symmetry c1
}
set optking {
	frozen_dihedral = ("
		7 4 3 5
	")
}

ee,wfn = optimize('scf', return_wfn=True)
oeprop( wfn, 'DIPOLE', 'QUADRUPOLE', 'MULLIKEN_CHARGES')
f=open( 'psi4out.xyz', 'w' )
f.write( "9  " )
f.write( str(ee) + "\n" )
f.write( MOL.save_string_xyz() )
f.close()
--------------------------------------------------------------------------

    Molecular point group: c1
  Charge       = 0
  Multiplicity = 1
  Basis Set: CC-PVTZ
  Basis Set:
  @DF-RHF Final Energy:  -450.84202221184489
    Total Energy =                       -450.8420222118450056
    Molecular point group: c1
  Basis Set: CC-PVTZ
  Basis Set:
  Basis Set: CC-PVTZ
  Basis Set:
  @DF-RHF Final Energy:  -450.84263028661809
    Total Energy =                       -450.8426302866181459
  Basis Set: CC-PVTZ
  Basis Set:
  Basis Set: CC-PVTZ
  Basis Set:
  @DF-RHF Final Energy:  -450.84294621535145
    Total Energy =                       -450.8429462153515033
  Basis Set: CC-PVTZ
  Basis Set:
  Basis Set: CC-PVTZ
  Basis Set:
  @DF-RHF Final Energy:  -450.84298012184360
    Total Energy =                       -450.8429801218433681
  Basis Set: CC-PVTZ
  Basis Set:
  Basis Set: CC-PVTZ
  Basis Set:
  @DF-RHF Final Energy:  -450.84298498731363
    Total Energy =                       -450.8429849873136277
  Basis Set: CC-PVTZ
  Basis Set:
  Charge       = 0
  Multiplicity = 1
  Basis Set: CC-PVTZ
  Basis Set:

    Orbital Energies (a.u.)
    -----------------------

    Doubly Occupied:

       1A    -26.339290     2A    -26.338663     3A    -26.338223
       4A    -20.583463     5A    -11.495927     6A    -11.309810
       7A     -1.748744     8A     -1.644862     9A     -1.643730
      10A     -1.407331    11A     -1.047414    12A     -0.930600
      13A     -0.838257    14A     -0.835657    15A     -0.815681
      16A     -0.729301    17A     -0.719106    18A     -0.705311
      19A     -0.671238    20A     -0.667490    21A     -0.649603
      22A     -0.631988    23A     -0.619379    24A     -0.529913
      25A     -0.484436

  @DF-RHF Final Energy:  -450.84298532980927

   => Energetics <=

    Nuclear Repulsion Energy =            277.0888050621039156
    One-Electron Energy =               -1176.4127436799058160
    Two-Electron Energy =                 448.4809532879928611
    DFT Exchange-Correlation Energy =       0.0000000000000000
    Empirical Dispersion Energy =           0.0000000000000000
    PCM Polarization Energy =               0.0000000000000000
    EFP Energy =                            0.0000000000000000
    Total Energy =                       -450.8429853298090393
    Molecular point group: c1
  Basis Set: CC-PVTZ
  Basis Set:

  -Total Gradient:
     Atom            X                  Y                   Z
    ------   -----------------  -----------------  -----------------
       1       -0.000019158281     0.000020402863     0.000031717886
       2        0.000053170856    -0.000002833117    -0.000042841856
       3       -0.003532826731    -0.006469776589    -0.003782869144
       4        0.002514677037     0.004898128207     0.004868330799
       5        0.002484143405     0.004543074846     0.002308810038
       6        0.000004185391     0.000008346917    -0.000002943602
       7       -0.001454416680    -0.002957162202    -0.003308075377
       8       -0.000030160360     0.000005315856    -0.000106036033
       9       -0.000019614641    -0.000045496778     0.000033907292

  **** Optimization is complete! (in 6 steps) ****
    Final optimized geometry and variables:
    Molecular point group: c1

    Geometry (in Angstrom), charge = 0, multiplicity = 1:

    H           -2.134034869631    -0.676482613638    -0.494786895276
    O           -2.063806661508     0.010322082746     0.144278062006
    C           -0.956991127480     0.798338345633    -0.101901170780
    C            0.360365489115     0.030737165916    -0.012431537809
    H           -0.979237588738     1.304774269360    -1.059880176546
    H           -0.931970657093     1.563830317519     0.659544796891
    F            1.240750233830     0.516394433919    -0.865011252031
    F            0.894477152355     0.076224052585     1.185600692425
    F            0.193748146831    -1.241266808339    -0.322357807154

  Mulliken Charges: (a.u.)
   Center  Symbol    Alpha    Beta     Spin     Total
       1     H     0.38572  0.38572  0.00000  0.22855
       2     O     4.18814  4.18814  0.00000 -0.37628
       3     C     3.00030  3.00030  0.00000 -0.00060
       4     C     2.67869  2.67869  0.00000  0.64262
       5     H     0.46268  0.46268  0.00000  0.07464
       6     H     0.44984  0.44984  0.00000  0.10033
       7     F     4.61166  4.61166  0.00000 -0.22332
       8     F     4.60758  4.60758  0.00000 -0.21517
       9     F     4.61538  4.61538  0.00000 -0.23077

   Total alpha = 25.00000, Total beta = 25.00000, Total charge = -0.00000

*** Psi4 exiting successfully. Buy a developer a beer!
