                              Psi4 1.0.54 Driver

  ==> Input File <==

--------------------------------------------------------------------------
set {
	reference rhf
	basis cc-pvtz
}

set_num_threads( 4 )
memory 2 gb

molecule MOL {
0 1

H	 1.998918	 2.037377	 -0.560998
O	 1.082214	 1.968020	 -0.369981
C	 0.700177	 0.619554	 -0.266242
C	 -0.713111	 0.588314	 0.266177
H	 1.356355	 0.086877	 0.415381
H	 0.735522	 0.130288	 -1.236163
O	 -1.421673	 -0.521378	 -0.196983
H	 -1.244794	 1.469161	 -0.069059
H	 -0.685100	 0.604721	 1.352683
H	 -0.933408	 -1.297830	 0.014544

	symmetry c1
}
set optking {
	frozen_dihedral = ("
		5 3 4 7
	")
}

ee,wfn = optimize('scf', return_wfn=True)
oeprop( wfn, 'DIPOLE', 'QUADRUPOLE', 'MULLIKEN_CHARGES')
f=open( 'psi4out.xyz', 'w' )
f.write( "10  " )
f.write( str(ee) + "\n" )
f.write( MOL.save_string_xyz() )
f.close()
--------------------------------------------------------------------------

    Molecular point group: c1
  Charge       = 0
  Multiplicity = 1
  Basis Set: CC-PVTZ
  Basis Set:
  @DF-RHF Final Energy:  -229.02127853147840
    Total Energy =                       -229.0212785314783446
    Molecular point group: c1
  Basis Set: CC-PVTZ
  Basis Set:
  Basis Set: CC-PVTZ
  Basis Set:
  @DF-RHF Final Energy:  -229.02222730278933
    Total Energy =                       -229.0222273027894175
  Basis Set: CC-PVTZ
  Basis Set:
  Basis Set: CC-PVTZ
  Basis Set:
  @DF-RHF Final Energy:  -229.02242125541684
    Total Energy =                       -229.0224212554167593
  Basis Set: CC-PVTZ
  Basis Set:
  Basis Set: CC-PVTZ
  Basis Set:
  @DF-RHF Final Energy:  -229.02245284288048
    Total Energy =                       -229.0224528428804831
  Basis Set: CC-PVTZ
  Basis Set:
  Basis Set: CC-PVTZ
  Basis Set:
  @DF-RHF Final Energy:  -229.02247264398684
    Total Energy =                       -229.0224726439868164
  Basis Set: CC-PVTZ
  Basis Set:
  Basis Set: CC-PVTZ
  Basis Set:
  @DF-RHF Final Energy:  -229.02251318754904
    Total Energy =                       -229.0225131875490661
  Basis Set: CC-PVTZ
  Basis Set:
  Basis Set: CC-PVTZ
  Basis Set:
  @DF-RHF Final Energy:  -229.02253498646920
    Total Energy =                       -229.0225349864691111
  Basis Set: CC-PVTZ
  Basis Set:
  Charge       = 0
  Multiplicity = 1
  Basis Set: CC-PVTZ
  Basis Set:

    Orbital Energies (a.u.)
    -----------------------

    Doubly Occupied:

       1A    -20.553224     2A    -20.552276     3A    -11.270174
       4A    -11.267049     5A     -1.376752     6A     -1.363785
       7A     -0.998117     8A     -0.847075     9A     -0.714562
      10A     -0.704781    11A     -0.634417    12A     -0.606431
      13A     -0.584856    14A     -0.529042    15A     -0.491134
      16A     -0.446540    17A     -0.442499

  @DF-RHF Final Energy:  -229.02253570743582

   => Energetics <=

    Nuclear Repulsion Energy =            131.3311130275427274
    One-Electron Energy =                -573.9418683614908332
    Two-Electron Energy =                 213.5882196265121138
    DFT Exchange-Correlation Energy =       0.0000000000000000
    Empirical Dispersion Energy =           0.0000000000000000
    PCM Polarization Energy =               0.0000000000000000
    EFP Energy =                            0.0000000000000000
    Total Energy =                       -229.0225357074359636
    Molecular point group: c1
  Basis Set: CC-PVTZ
  Basis Set:

  -Total Gradient:
     Atom            X                  Y                   Z
    ------   -----------------  -----------------  -----------------
       1        0.000016169731     0.000023800901    -0.000001493931
       2        0.000031923088     0.000056656227    -0.000003358022
       3       -0.001514604460    -0.004609400069    -0.004311299360
       4        0.001804443624    -0.001784188561     0.004778433422
       5        0.000833655765     0.004231042200     0.002590961525
       6       -0.000004081132     0.000000483340     0.000005194252
       7       -0.001186241291     0.002099110607    -0.003063572514
       8        0.000024250807     0.000040943398     0.000013356816
       9        0.000007578303    -0.000010142198     0.000000609910
      10       -0.000013094431    -0.000048305849    -0.000008832098

  **** Optimization is complete! (in 8 steps) ****
    Final optimized geometry and variables:
    Molecular point group: c1

    Geometry (in Angstrom), charge = 0, multiplicity = 1:

    H            2.083937452958     1.378019537382    -0.398180719783
    O            1.174998132218     1.311679790506    -0.171688504515
    C            0.782614641812    -0.035766002816    -0.125360198576
    C           -0.647474259852    -0.073138636507     0.395758748685
    H            1.449645558325    -0.576764386363     0.542361041221
    H            0.809443159102    -0.490523385643    -1.109296652048
    O           -1.364957757358    -1.174981469076    -0.088580559926
    H           -1.153214548202     0.807010294296     0.026339983191
    H           -0.665168558287    -0.033133167141     1.479917105199
    H           -1.118939338850    -1.957401569882     0.369928955043

  Mulliken Charges: (a.u.)
   Center  Symbol    Alpha    Beta     Spin     Total
       1     H     0.39331  0.39331  0.00000  0.21339
       2     O     4.19910  4.19910  0.00000 -0.39819
       3     C     2.96946  2.96946  0.00000  0.06107
       4     C     2.97487  2.97487  0.00000  0.05027
       5     H     0.47926  0.47926  0.00000  0.04149
       6     H     0.46913  0.46913  0.00000  0.06175
       7     O     4.19997  4.19997  0.00000 -0.39993
       8     H     0.45196  0.45196  0.00000  0.09609
       9     H     0.46778  0.46778  0.00000  0.06444
      10     H     0.39518  0.39518  0.00000  0.20963

   Total alpha = 17.00000, Total beta = 17.00000, Total charge = -0.00000

*** Psi4 exiting successfully. Buy a developer a beer!
