                              Psi4 1.0.54 Driver

  ==> Input File <==

--------------------------------------------------------------------------
set {
	reference rhf
	basis cc-pvtz
}

set_num_threads( 4 )
memory 2 gb

molecule MOL {
0 1

H	 0.366869	 4.316865	 -1.893806
C	 1.293819	 4.517481	 -1.339367
C	 1.234243	 4.200704	 0.130324
O	 2.235283	 4.959219	 -1.901347
C	 0.730555	 2.781822	 0.410948
H	 2.213829	 4.368465	 0.558812
H	 0.547685	 4.917976	 0.574692
C	 1.692148	 1.688117	 -0.048761
H	 0.556925	 2.684257	 1.477096
H	 -0.236450	 2.642318	 -0.066162
C	 1.181757	 0.280428	 0.247371
H	 2.653424	 1.833902	 0.436832
H	 1.877162	 1.785152	 -1.115429
C	 2.151032	 -0.811012	 -0.202643
H	 0.990894	 0.192423	 1.312346
H	 0.224384	 0.134389	 -0.248014
C	 3.580021	 -0.656538	 0.320835
H	 2.170545	 -0.847575	 -1.289412
H	 1.766632	 -1.772905	 0.124928
C	 4.327657	 0.562694	 -0.213579
H	 4.138806	 -1.549270	 0.057813
H	 3.561991	 -0.620783	 1.406976
H	 4.355973	 0.557257	 -1.298551
H	 3.867136	 1.491650	 0.100501
H	 5.351524	 0.571613	 0.142204

	symmetry c1
}
set optking {
	frozen_dihedral = ("
		8 11 14 18
	")
}

ee,wfn = optimize('scf', return_wfn=True)
oeprop( wfn, 'DIPOLE', 'QUADRUPOLE', 'MULLIKEN_CHARGES')
f=open( 'psi4out.xyz', 'w' )
f.write( "25  " )
f.write( str(ee) + "\n" )
f.write( MOL.save_string_xyz() )
f.close()
--------------------------------------------------------------------------

    Molecular point group: c1
  Charge       = 0
  Multiplicity = 1
  Basis Set: CC-PVTZ
  Basis Set:
  @DF-RHF Final Energy:  -387.23013786545528
    Total Energy =                       -387.2301378654558448
    Molecular point group: c1
  Basis Set: CC-PVTZ
  Basis Set:
  Basis Set: CC-PVTZ
  Basis Set:
  @DF-RHF Final Energy:  -387.24862421911456
    Total Energy =                       -387.2486242191145038
  Basis Set: CC-PVTZ
  Basis Set:
  Basis Set: CC-PVTZ
  Basis Set:
  @DF-RHF Final Energy:  -387.25299844190289
    Total Energy =                       -387.2529984419024913
  Basis Set: CC-PVTZ
  Basis Set:
  Basis Set: CC-PVTZ
  Basis Set:
  @DF-RHF Final Energy:  -387.25386158563072
    Total Energy =                       -387.2538615856308297
  Basis Set: CC-PVTZ
  Basis Set:
  @DF-RHF Final Energy:  -387.25410875156774
    Total Energy =                       -387.2541087515677418
  @DF-RHF Final Energy:  -387.25477614519593
    Total Energy =                       -387.2547761451965016
  @DF-RHF Final Energy:  -387.25499944568816
    Total Energy =                       -387.2549994456883269
  @DF-RHF Final Energy:  -387.25519399113705
    Total Energy =                       -387.2551939911371619
  @DF-RHF Final Energy:  -387.25533274358304
    Total Energy =                       -387.2553327435832671
  Basis Set: CC-PVTZ
  Basis Set:
  @DF-RHF Final Energy:  -387.25537932558814
    Total Energy =                       -387.2553793255879100
  Basis Set: CC-PVTZ
  Basis Set:
  Basis Set: CC-PVTZ
  Basis Set:
  @DF-RHF Final Energy:  -387.25537927196314
    Total Energy =                       -387.2553792719634203
  Basis Set: CC-PVTZ
  Basis Set:
  Basis Set: CC-PVTZ
  Basis Set:
  @DF-RHF Final Energy:  -387.25538234975841
    Total Energy =                       -387.2553823497580652
  Basis Set: CC-PVTZ
  Basis Set:
  Charge       = 0
  Multiplicity = 1
  Basis Set: CC-PVTZ
  Basis Set:

    Orbital Energies (a.u.)
    -----------------------

    Doubly Occupied:

       1A    -20.551577     2A    -11.321143     3A    -11.233916
       4A    -11.232910     5A    -11.221280     6A    -11.218842
       7A    -11.215793     8A    -11.215132     9A    -11.205827
      10A     -1.406560    11A     -1.104885    12A     -1.068124
      13A     -1.011805    14A     -0.947887    15A     -0.872775
      16A     -0.825135    17A     -0.789280    18A     -0.777414
      19A     -0.668941    20A     -0.661387    21A     -0.629340
      22A     -0.625281    23A     -0.610007    24A     -0.594269
      25A     -0.570997    26A     -0.556895    27A     -0.534267
      28A     -0.523081    29A     -0.519366    30A     -0.494236
      31A     -0.488679    32A     -0.485569    33A     -0.461253
      34A     -0.451200    35A     -0.442650    36A     -0.411990

  @DF-RHF Final Energy:  -387.25538397572592

   => Energetics <=

    Nuclear Repulsion Energy =            450.4400871696449826
    One-Electron Energy =               -1417.4915616526491249
    Two-Electron Energy =                 579.7960905072779951
    DFT Exchange-Correlation Energy =       0.0000000000000000
    Empirical Dispersion Energy =           0.0000000000000000
    PCM Polarization Energy =               0.0000000000000000
    EFP Energy =                            0.0000000000000000
    Total Energy =                       -387.2553839757260903
    Molecular point group: c1
  Basis Set: CC-PVTZ
  Basis Set:

  -Total Gradient:
     Atom            X                  Y                   Z
    ------   -----------------  -----------------  -----------------
       1       -0.000010836939     0.000000244428    -0.000007455901
       2        0.000004297042    -0.000004695805     0.000021490381
       3        0.000001332986    -0.000033024254     0.000015477589
       4        0.000005853050     0.000002980060    -0.000007106072
       5        0.000009510221    -0.000002869266    -0.000008119207
       6        0.000014047297     0.000001775826    -0.000005602342
       7       -0.000017481509     0.000012232096     0.000003568944
       8        0.000812098480     0.000169942072     0.001467212790
       9       -0.000004693244     0.000014605311     0.000005936541
      10        0.000001566482     0.000001918173    -0.000007970021
      11       -0.001546164097    -0.000607298286    -0.002067648282
      12       -0.000036417916     0.000004588394    -0.000004991221
      13        0.000007387025     0.000000189460    -0.000015555700
      14        0.002306071511     0.002045494497     0.000465752669
      15       -0.000009842208     0.000001927666     0.000008216965
      16        0.000006409178     0.000003360678    -0.000003512525
      17        0.000004566064    -0.000001136759    -0.000013645646
      18       -0.001579932407    -0.001601383410     0.000141871364
      19       -0.000000488270    -0.000010922653    -0.000004256835
      20        0.000009588968     0.000008872003    -0.000015361180
      21       -0.000006481836    -0.000003887319     0.000007908125
      22        0.000021243117     0.000010835203    -0.000017802508
      23       -0.000014312124    -0.000004262010     0.000023934152
      24        0.000014866930    -0.000011475051     0.000017263793
      25        0.000007812197     0.000001988947     0.000000394127

  **** Optimization is complete! (in 13 steps) ****
    Final optimized geometry and variables:
    Molecular point group: c1

    Geometry (in Angstrom), charge = 0, multiplicity = 1:

    H           -1.962354987918     2.223635015302    -1.611947894674
    C           -1.093578893037     2.548593005105    -1.023295381634
    C           -1.172015505449     2.238109240666     0.446774944955
    O           -0.194934446684     3.104934376179    -1.552789286911
    C           -1.482434132222     0.764249674366     0.724424177101
    H           -0.245048529194     2.545258452391     0.913448320182
    H           -1.971222606774     2.854380438847     0.852692116773
    C           -0.359992243740    -0.186249961465     0.311134563066
    H           -1.679557661025     0.649564906022     1.784889356407
    H           -2.402157561744     0.487678379787     0.214987686246
    C           -0.682818287309    -1.642187864013     0.638518450292
    H            0.552498616873     0.114369547733     0.814093130152
    H           -0.168579753470    -0.085476985515    -0.754239560931
    C            0.340029334124    -2.689801734805     0.185048218307
    H           -0.812597295920    -1.730298365511     1.714994977152
    H           -1.643363088974    -1.897754081745     0.199351957323
    C            1.785322735997    -2.500107951005     0.671771211452
    H            0.321488160848    -2.771644686627    -0.898898911015
    H           -0.019348752799    -3.647752237041     0.548078417695
    C            2.692531957133    -1.718840718857    -0.277568924531
    H            2.227661927739    -3.479351359992     0.821824865642
    H            1.780505594350    -2.025420950377     1.649364043564
    H            2.761487835183    -2.219427824729    -1.237531206450
    H            2.336173014803    -0.713423873941    -0.458670301342
    H            3.696146446409    -1.643928230906     0.125999049380

  Mulliken Charges: (a.u.)
   Center  Symbol    Alpha    Beta     Spin     Total
       1     H     0.46399  0.46399  0.00000  0.07202
       2     C     2.90458  2.90458  0.00000  0.19085
       3     C     3.08938  3.08938  0.00000 -0.17876
       4     O     4.16639  4.16639  0.00000 -0.33278
       5     C     3.11660  3.11660  0.00000 -0.23319
       6     H     0.44291  0.44291  0.00000  0.11417
       7     H     0.44036  0.44036  0.00000  0.11928
       8     C     3.09878  3.09878  0.00000 -0.19756
       9     H     0.44298  0.44298  0.00000  0.11404
      10     H     0.44895  0.44895  0.00000  0.10210
      11     C     3.09669  3.09669  0.00000 -0.19338
      12     H     0.44657  0.44657  0.00000  0.10686
      13     H     0.44586  0.44586  0.00000  0.10827
      14     C     3.09896  3.09896  0.00000 -0.19792
      15     H     0.45193  0.45193  0.00000  0.09615
      16     H     0.44839  0.44839  0.00000  0.10322
      17     C     3.10038  3.10038  0.00000 -0.20075
      18     H     0.45329  0.45329  0.00000  0.09341
      19     H     0.44472  0.44472  0.00000  0.11056
      20     C     3.14916  3.14916  0.00000 -0.29832
      21     H     0.44473  0.44473  0.00000  0.11054
      22     H     0.45234  0.45234  0.00000  0.09532
      23     H     0.45415  0.45415  0.00000  0.09170
      24     H     0.44995  0.44995  0.00000  0.10010
      25     H     0.44796  0.44796  0.00000  0.10407

   Total alpha = 36.00000, Total beta = 36.00000, Total charge = -0.00000

*** Psi4 exiting successfully. Buy a developer a beer!
