                              Psi4 1.0.54 Driver

  ==> Input File <==

--------------------------------------------------------------------------
set {
	reference rhf
	basis cc-pvtz
}

set_num_threads( 4 )
memory 2 gb

molecule MOL {
0 1

H	 -3.144994	 -1.202467	 -0.018751
O	 -2.321472	 -0.864941	 -0.318626
C	 -2.021813	 0.336996	 0.342658
C	 -0.669613	 0.837286	 -0.127252
H	 -2.780861	 1.084746	 0.127159
H	 -2.006390	 0.184138	 1.420053
C	 0.490865	 -0.082543	 0.241244
H	 -0.708709	 0.967192	 -1.204587
H	 -0.507562	 1.822272	 0.303070
C	 1.839800	 0.429565	 -0.255472
H	 0.305636	 -1.070211	 -0.165276
H	 0.527397	 -0.195943	 1.322876
C	 2.775864	 -0.688442	 -0.702271
H	 1.679423	 1.115773	 -1.082575
H	 2.319415	 1.007542	 0.530406
H	 2.338809	 -1.263050	 -1.512039
H	 3.723187	 -0.292955	 -1.050801
H	 2.983726	 -1.374099	 0.112661

	symmetry c1
}
set optking {
	frozen_dihedral = ("
		14 10 7 11
	")
}

ee,wfn = optimize('scf', return_wfn=True)
oeprop( wfn, 'DIPOLE', 'QUADRUPOLE', 'MULLIKEN_CHARGES')
f=open( 'psi4out.xyz', 'w' )
f.write( "18  " )
f.write( str(ee) + "\n" )
f.write( MOL.save_string_xyz() )
f.close()
--------------------------------------------------------------------------

    Molecular point group: c1
  Charge       = 0
  Multiplicity = 1
  Basis Set: CC-PVTZ
  Basis Set:
  @DF-RHF Final Energy:  -271.28305992695584
    Total Energy =                       -271.2830599269556160
    Molecular point group: c1
  Basis Set: CC-PVTZ
  Basis Set:
  Basis Set: CC-PVTZ
  Basis Set:
  @DF-RHF Final Energy:  -271.28334875906205
    Total Energy =                       -271.2833487590618233
  Basis Set: CC-PVTZ
  Basis Set:
  Basis Set: CC-PVTZ
  Basis Set:
  @DF-RHF Final Energy:  -271.28343524233469
    Total Energy =                       -271.2834352423346900
  Basis Set: CC-PVTZ
  Basis Set:
  Basis Set: CC-PVTZ
  Basis Set:
  @DF-RHF Final Energy:  -271.28343665669166
    Total Energy =                       -271.2834366566913218
  Basis Set: CC-PVTZ
  Basis Set:
  Charge       = 0
  Multiplicity = 1
  Basis Set: CC-PVTZ
  Basis Set:

    Orbital Energies (a.u.)
    -----------------------

    Doubly Occupied:

       1A    -20.546235     2A    -11.265930     3A    -11.211087
       4A    -11.208937     5A    -11.204783     6A    -11.202804
       7A     -1.364137     8A     -1.075068     9A     -1.010076
      10A     -0.914281    11A     -0.819845    12A     -0.785145
      13A     -0.707643    14A     -0.643257    15A     -0.622760
      16A     -0.581036    17A     -0.573262    18A     -0.564317
      19A     -0.518810    20A     -0.502990    21A     -0.494752
      22A     -0.467974    23A     -0.452578    24A     -0.449017
      25A     -0.431942

  @DF-RHF Final Energy:  -271.28343681136073

   => Energetics <=

    Nuclear Repulsion Energy =            249.3820365526902094
    One-Electron Energy =                -862.0936160725834725
    Two-Electron Energy =                 341.4281427085326186
    DFT Exchange-Correlation Energy =       0.0000000000000000
    Empirical Dispersion Energy =           0.0000000000000000
    PCM Polarization Energy =               0.0000000000000000
    EFP Energy =                            0.0000000000000000
    Total Energy =                       -271.2834368113606160
    Molecular point group: c1
  Basis Set: CC-PVTZ
  Basis Set:

  -Total Gradient:
     Atom            X                  Y                   Z
    ------   -----------------  -----------------  -----------------
       1        0.000004403575     0.000002316008     0.000001314772
       2       -0.000005824584    -0.000009262981    -0.000012527900
       3       -0.000000442819     0.000007922972     0.000018242873
       4        0.000005828465    -0.000010792604    -0.000007620496
       5       -0.000004666230     0.000002230701     0.000002578432
       6        0.000002495549     0.000003429064    -0.000004557338
       7       -0.002411919052     0.003118416581    -0.003586312203
       8        0.000001291126    -0.000004674735     0.000004477862
       9        0.000002960611    -0.000007697833    -0.000002966367
      10        0.000793761347    -0.004483558416    -0.002707778122
      11        0.001895965865    -0.001869030764     0.003413918183
      12        0.000001646216     0.000005029165     0.000015955487
      13        0.000004247539     0.000005561648    -0.000013968904
      14       -0.000283040293     0.003219832099     0.002853815910
      15        0.000006907947     0.000005329388     0.000013891841
      16       -0.000001209729     0.000007785005     0.000009234592
      17       -0.000002031435    -0.000000747629     0.000002411365
      18       -0.000010374095     0.000007912329    -0.000000109985

  **** Optimization is complete! (in 5 steps) ****
    Final optimized geometry and variables:
    Molecular point group: c1

    Geometry (in Angstrom), charge = 0, multiplicity = 1:

    H           -3.137102245070    -1.138635504396     0.187450988182
    O           -2.318440902391    -0.812136075457    -0.136717666327
    C           -1.980143644000     0.381995297820     0.519853436111
    C           -0.637819328666     0.865726593865     0.007218929363
    H           -2.735290054488     1.141535716827     0.333668870946
    H           -1.930415856376     0.223337012476     1.595296946031
    C            0.519691915232    -0.076340606676     0.319595674496
    H           -0.711836429963     1.011903123578    -1.066062714333
    H           -0.442479512172     1.841657232522     0.444994992249
    C            1.884333041623     0.453526497274    -0.145020145589
    H            0.333336597877    -1.053052418343    -0.110551832558
    H            0.555566285144    -0.244891696842     1.393763732284
    C            2.857131595761    -0.643193156875    -0.560066525124
    H            1.747056170365     1.162355343503    -0.956617180290
    H            2.328888621645     1.035990814409     0.657560595913
    H            2.475019211165    -1.202563108066    -1.407129023850
    H            3.820591959951    -0.231687643156    -0.839149825670
    H            3.019951689682    -1.345867863384     0.250797920741

  Mulliken Charges: (a.u.)
   Center  Symbol    Alpha    Beta     Spin     Total
       1     H     0.39580  0.39580  0.00000  0.20840
       2     O     4.19832  4.19832  0.00000 -0.39665
       3     C     2.97401  2.97401  0.00000  0.05197
       4     C     3.09156  3.09156  0.00000 -0.18313
       5     H     0.46562  0.46562  0.00000  0.06876
       6     H     0.47381  0.47381  0.00000  0.05237
       7     C     3.08894  3.08894  0.00000 -0.17789
       8     H     0.45184  0.45184  0.00000  0.09633
       9     H     0.45335  0.45335  0.00000  0.09330
      10     C     3.08509  3.08509  0.00000 -0.17019
      11     H     0.44495  0.44495  0.00000  0.11010
      12     H     0.45832  0.45832  0.00000  0.08336
      13     C     3.14773  3.14773  0.00000 -0.29545
      14     H     0.45604  0.45604  0.00000  0.08793
      15     H     0.45495  0.45495  0.00000  0.09010
      16     H     0.45414  0.45414  0.00000  0.09172
      17     H     0.45056  0.45056  0.00000  0.09888
      18     H     0.45497  0.45497  0.00000  0.09007

   Total alpha = 25.00000, Total beta = 25.00000, Total charge = -0.00000

*** Psi4 exiting successfully. Buy a developer a beer!
