                              Psi4 1.0.54 Driver

  ==> Input File <==

--------------------------------------------------------------------------
set {
	reference rhf
	basis cc-pvtz
}

set_num_threads( 4 )
memory 2 gb

molecule MOL {
0 1

H	 -3.258660	 -0.290394	 1.471450
C	 -3.307964	 -0.275695	 0.374072
C	 -2.653809	 0.914422	 -0.273689
O	 -3.855140	 -1.148880	 -0.205112
C	 -1.216901	 1.136108	 0.207794
H	 -2.700131	 0.790676	 -1.347875
H	 -3.256452	 1.781007	 -0.010713
C	 -0.247837	 0.040196	 -0.230469
H	 -0.872882	 2.093195	 -0.169002
H	 -1.209325	 1.218376	 1.291938
C	 1.181757	 0.280428	 0.247371
H	 -0.259600	 -0.030819	 -1.314870
H	 -0.591284	 -0.923375	 0.136958
C	 2.151032	 -0.811012	 -0.202643
H	 1.515939	 1.247397	 -0.115449
H	 1.191514	 0.341223	 1.333422
C	 3.580021	 -0.656538	 0.320835
H	 2.170545	 -0.847575	 -1.289412
H	 1.766632	 -1.772905	 0.124928
C	 4.388777	 -1.950895	 0.361316
H	 3.533897	 -0.244423	 1.324043
H	 4.105681	 0.078193	 -0.283448
H	 3.883747	 -2.707121	 0.953821
H	 4.550622	 -2.360090	 -0.628660
H	 5.362890	 -1.781250	 0.805488

	symmetry c1
}
set optking {
	frozen_dihedral = ("
		20 17 14 18
	")
}

ee,wfn = optimize('scf', return_wfn=True)
oeprop( wfn, 'DIPOLE', 'QUADRUPOLE', 'MULLIKEN_CHARGES')
f=open( 'psi4out.xyz', 'w' )
f.write( "25  " )
f.write( str(ee) + "\n" )
f.write( MOL.save_string_xyz() )
f.close()
--------------------------------------------------------------------------

    Molecular point group: c1
  Charge       = 0
  Multiplicity = 1
  Basis Set: CC-PVTZ
  Basis Set:
  @DF-RHF Final Energy:  -387.25995824177244
    Total Energy =                       -387.2599582417725514
    Molecular point group: c1
  Basis Set: CC-PVTZ
  Basis Set:
  Basis Set: CC-PVTZ
  Basis Set:
  @DF-RHF Final Energy:  -387.26054608368293
    Total Energy =                       -387.2605460836824705
  Basis Set: CC-PVTZ
  Basis Set:
  Basis Set: CC-PVTZ
  Basis Set:
  @DF-RHF Final Energy:  -387.26059510032599
    Total Energy =                       -387.2605951003255313
  Basis Set: CC-PVTZ
  Basis Set:
  Basis Set: CC-PVTZ
  Basis Set:
  @DF-RHF Final Energy:  -387.26053450687340
    Total Energy =                       -387.2605345068736824
  Basis Set: CC-PVTZ
  Basis Set:
  Basis Set: CC-PVTZ
  Basis Set:
  @DF-RHF Final Energy:  -387.26060165449860
    Total Energy =                       -387.2606016544983731
  Basis Set: CC-PVTZ
  Basis Set:
  Charge       = 0
  Multiplicity = 1
  Basis Set: CC-PVTZ
  Basis Set:

    Orbital Energies (a.u.)
    -----------------------

    Doubly Occupied:

       1A    -20.551386     2A    -11.320987     3A    -11.233795
       4A    -11.232851     5A    -11.221644     6A    -11.218106
       7A    -11.215802     8A    -11.214721     9A    -11.208419
      10A     -1.406405    11A     -1.105246    12A     -1.070996
      13A     -1.016240    14A     -0.944624    15A     -0.868544
      16A     -0.814774    17A     -0.794610    18A     -0.787668
      19A     -0.667816    20A     -0.666425    21A     -0.640597
      22A     -0.618685    23A     -0.605344    24A     -0.595285
      25A     -0.569772    26A     -0.550231    27A     -0.543186
      28A     -0.523291    29A     -0.505785    30A     -0.502046
      31A     -0.489161    32A     -0.477531    33A     -0.467025
      34A     -0.464132    35A     -0.441478    36A     -0.411890

  @DF-RHF Final Energy:  -387.26060202712875

   => Energetics <=

    Nuclear Repulsion Energy =            436.1640910377150817
    One-Electron Energy =               -1388.9163881680774466
    Two-Electron Energy =                 565.4916951032339512
    DFT Exchange-Correlation Energy =       0.0000000000000000
    Empirical Dispersion Energy =           0.0000000000000000
    PCM Polarization Energy =               0.0000000000000000
    EFP Energy =                            0.0000000000000000
    Total Energy =                       -387.2606020271284706
    Molecular point group: c1
  Basis Set: CC-PVTZ
  Basis Set:

  -Total Gradient:
     Atom            X                  Y                   Z
    ------   -----------------  -----------------  -----------------
       1       -0.000022871966     0.000010861860    -0.000010624833
       2        0.000057394699    -0.000038050779     0.000017510280
       3       -0.000031832388     0.000003109284    -0.000000022870
       4       -0.000014922860     0.000017302142     0.000000495243
       5        0.000019896788    -0.000009615736     0.000015760356
       6        0.000002885682     0.000001491860     0.000000951603
       7        0.000013302290    -0.000000674012    -0.000002796146
       8       -0.000000721669    -0.000005423297    -0.000030130546
       9       -0.000002021293     0.000002352154    -0.000004172687
      10       -0.000000713528     0.000001417451    -0.000001334993
      11        0.000018343331     0.000014789707    -0.000018866956
      12        0.000002878053    -0.000001816600    -0.000001653167
      13        0.000000250649     0.000001709450     0.000001265892
      14        0.000252570417    -0.004717413435     0.001504959908
      15       -0.000018220558     0.000015146712    -0.000010878779
      16        0.000029228081    -0.000008648936     0.000007166331
      17        0.000983789182     0.001329154026    -0.003707749057
      18       -0.000494852093     0.003699889953    -0.000353931862
      19       -0.000032772937    -0.000030812876    -0.000018189804
      20       -0.000774271818    -0.000337509493     0.002592756196
      21        0.000017631542    -0.000013640749     0.000008933259
      22        0.000039609497     0.000003772438     0.000003174135
      23       -0.000004248604     0.000018611234     0.000000558280
      24       -0.000010718451     0.000026310815     0.000016076592
      25       -0.000029612037     0.000017686828    -0.000009256375

  **** Optimization is complete! (in 6 steps) ****
    Final optimized geometry and variables:
    Molecular point group: c1

    Geometry (in Angstrom), charge = 0, multiplicity = 1:

    H           -3.319426176761     0.128519442903     1.315917471298
    C           -3.334382354377     0.124316000494     0.217448086500
    C           -2.611627059588     1.273942036784    -0.430599896770
    O           -3.899994652639    -0.736123075532    -0.363080606487
    C           -1.182961910476     1.446918478206     0.093183611070
    H           -2.628950434073     1.131034197724    -1.503275287911
    H           -3.186366227820     2.169129701207    -0.203446221894
    C           -0.246312430511     0.304087454246    -0.292615906050
    H           -0.787819565245     2.381434898192    -0.290131545758
    H           -1.206519998851     1.550657561233     1.175218050722
    C            1.176555525667     0.497982350668     0.222964411155
    H           -0.229857187168     0.208921668288    -1.375027414747
    H           -0.638472163460    -0.636811465896     0.085224766415
    C            2.118409320258    -0.643893655487    -0.154393886860
    H            1.573729342182     1.433653918656    -0.164234314865
    H            1.155812890061     0.601993266920     1.305059457394
    C            3.558377201450    -0.409808228042     0.307669159315
    H            2.102378316963    -0.750297648419    -1.235917797068
    H            1.741957491839    -1.572903759564     0.263933194394
    C            4.381662854842    -1.691090744510     0.390525907381
    H            3.546256054923     0.054975813991     1.289979248784
    H            4.041902918076     0.300287278719    -0.356160001385
    H            3.952983758664    -2.379150752936     1.110947824451
    H            4.419727960688    -2.199564211209    -0.567560517060
    H            5.401369846430    -1.484434019636     0.694647519617

  Mulliken Charges: (a.u.)
   Center  Symbol    Alpha    Beta     Spin     Total
       1     H     0.46420  0.46420  0.00000  0.07161
       2     C     2.90475  2.90475  0.00000  0.19051
       3     C     3.08905  3.08905  0.00000 -0.17810
       4     O     4.16625  4.16625  0.00000 -0.33250
       5     C     3.11652  3.11652  0.00000 -0.23304
       6     H     0.44291  0.44291  0.00000  0.11418
       7     H     0.44050  0.44050  0.00000  0.11901
       8     C     3.09094  3.09094  0.00000 -0.18188
       9     H     0.44308  0.44308  0.00000  0.11384
      10     H     0.44984  0.44984  0.00000  0.10033
      11     C     3.09000  3.09000  0.00000 -0.18001
      12     H     0.44985  0.44985  0.00000  0.10031
      13     H     0.44832  0.44832  0.00000  0.10335
      14     C     3.08791  3.08791  0.00000 -0.17582
      15     H     0.45325  0.45325  0.00000  0.09350
      16     H     0.45428  0.45428  0.00000  0.09143
      17     C     3.08539  3.08539  0.00000 -0.17079
      18     H     0.45327  0.45327  0.00000  0.09346
      19     H     0.45330  0.45330  0.00000  0.09341
      20     C     3.14916  3.14916  0.00000 -0.29832
      21     H     0.45653  0.45653  0.00000  0.08694
      22     H     0.45249  0.45249  0.00000  0.09501
      23     H     0.45499  0.45499  0.00000  0.09003
      24     H     0.45445  0.45445  0.00000  0.09110
      25     H     0.44877  0.44877  0.00000  0.10245

   Total alpha = 36.00000, Total beta = 36.00000, Total charge = -0.00000

*** Psi4 exiting successfully. Buy a developer a beer!
