                              Psi4 1.0.54 Driver

  ==> Input File <==

--------------------------------------------------------------------------
set {
	reference rhf
	basis cc-pvtz
}

set_num_threads( 4 )
memory 2 gb

molecule MOL {
0 1

O	 -2.440701	 -0.934798	 -0.415053
C	 -1.922978	 0.063265	 -0.045005
C	 -2.632749	 1.372204	 0.158357
O	 -0.637375	 0.157174	 0.243149
H	 -2.187724	 2.129143	 -0.474664
H	 -3.677681	 1.257276	 -0.079438
H	 -2.516788	 1.693160	 1.185542
C	 0.162530	 -1.009518	 0.097799
C	 1.587210	 -0.664190	 0.477086
H	 0.096803	 -1.356267	 -0.924704
H	 -0.233803	 -1.785900	 0.736810
C	 2.256770	 0.342732	 -0.454344
H	 2.154716	 -1.590834	 0.479041
H	 1.598751	 -0.289614	 1.496104
C	 1.461018	 0.580213	 -1.733406
H	 2.383978	 1.285024	 0.071967
H	 3.251561	 -0.006433	 -0.705972
H	 1.955942	 1.301042	 -2.373594
H	 0.468165	 0.959340	 -1.514551
H	 1.345578	 -0.338776	 -2.298339

	symmetry c1
}
set optking {
	frozen_dihedral = ("
		16 12 9 8
	")
}

ee,wfn = optimize('scf', return_wfn=True)
oeprop( wfn, 'DIPOLE', 'QUADRUPOLE', 'MULLIKEN_CHARGES')
f=open( 'psi4out.xyz', 'w' )
f.write( "20  " )
f.write( str(ee) + "\n" )
f.write( MOL.save_string_xyz() )
f.close()
--------------------------------------------------------------------------

    Molecular point group: c1
  Charge       = 0
  Multiplicity = 1
  Basis Set: CC-PVTZ
  Basis Set:
  @DF-RHF Final Energy:  -384.07376189522688
    Total Energy =                       -384.0737618952267667
    Molecular point group: c1
  Basis Set: CC-PVTZ
  Basis Set:
  Basis Set: CC-PVTZ
  Basis Set:
  @DF-RHF Final Energy:  -384.06979882843416
    Total Energy =                       -384.0697988284343865
  Basis Set: CC-PVTZ
  Basis Set:
  Basis Set: CC-PVTZ
  Basis Set:
  @DF-RHF Final Energy:  -384.07848076918793
    Total Energy =                       -384.0784807691878768
  Basis Set: CC-PVTZ
  Basis Set:
  Basis Set: CC-PVTZ
  Basis Set:
  @DF-RHF Final Energy:  -384.07902213319983
    Total Energy =                       -384.0790221331996008
  Basis Set: CC-PVTZ
  Basis Set:
  @DF-RHF Final Energy:  -384.07872955822256
    Total Energy =                       -384.0787295582222214
  @DF-RHF Final Energy:  -384.07888010897204
    Total Energy =                       -384.0788801089713616
  Basis Set: CC-PVTZ
  Basis Set:
  @DF-RHF Final Energy:  -384.07910338855316
    Total Energy =                       -384.0791033885532215
  Basis Set: CC-PVTZ
  Basis Set:
  Basis Set: CC-PVTZ
  Basis Set:
  @DF-RHF Final Energy:  -384.07910892867085
    Total Energy =                       -384.0791089286709621
  Basis Set: CC-PVTZ
  Basis Set:
  Basis Set: CC-PVTZ
  Basis Set:
  @DF-RHF Final Energy:  -384.07911253785812
    Total Energy =                       -384.0791125378582365
  Basis Set: CC-PVTZ
  Basis Set:
  Charge       = 0
  Multiplicity = 1
  Basis Set: CC-PVTZ
  Basis Set:

    Orbital Energies (a.u.)
    -----------------------

    Doubly Occupied:

       1A    -20.593681     2A    -20.532481     3A    -11.366343
       4A    -11.279623     5A    -11.231580     6A    -11.224253
       7A    -11.220586     8A    -11.210579     9A     -1.470415
      10A     -1.364621    11A     -1.083491    12A     -1.026883
      13A     -0.980684    14A     -0.894456    15A     -0.803192
      16A     -0.772764    17A     -0.692638    18A     -0.690881
      19A     -0.665755    20A     -0.627819    21A     -0.615089
      22A     -0.580750    23A     -0.571347    24A     -0.560559
      25A     -0.542455    26A     -0.529189    27A     -0.523478
      28A     -0.480328    29A     -0.472545    30A     -0.468897
      31A     -0.451187    32A     -0.440534

  @DF-RHF Final Energy:  -384.07911264905721

   => Energetics <=

    Nuclear Repulsion Energy =            394.0276771326143148
    One-Electron Energy =               -1304.2754193019884497
    Two-Electron Energy =                 526.1686295203174950
    DFT Exchange-Correlation Energy =       0.0000000000000000
    Empirical Dispersion Energy =           0.0000000000000000
    PCM Polarization Energy =               0.0000000000000000
    EFP Energy =                            0.0000000000000000
    Total Energy =                       -384.0791126490565830
    Molecular point group: c1
  Basis Set: CC-PVTZ
  Basis Set:

  -Total Gradient:
     Atom            X                  Y                   Z
    ------   -----------------  -----------------  -----------------
       1       -0.000002030290    -0.000004916880     0.000011758589
       2       -0.000012326798    -0.000003981308    -0.000009860521
       3        0.000008443808     0.000006044223    -0.000011096747
       4        0.000027231968    -0.000002454817     0.000009014675
       5        0.000001194430    -0.000001275874     0.000007141185
       6        0.000002563436    -0.000002148161     0.000000717131
       7       -0.000002789832    -0.000004177677     0.000001205361
       8        0.001310597607    -0.002636241935    -0.002797874715
       9       -0.000804500065     0.003449983944     0.004331865174
      10        0.000002248881    -0.000008549258    -0.000001011616
      11       -0.000006424219     0.000000959685     0.000009919505
      12       -0.005311005721     0.001022329273    -0.002943910994
      13       -0.000006105385    -0.000003399238     0.000000396098
      14        0.000005638185     0.000003740171     0.000005165699
      15       -0.000004880924    -0.000001803023     0.000014675568
      16        0.004790846207    -0.001806281815     0.001370366122
      17        0.000004161455    -0.000004393534     0.000000457253
      18       -0.000002600206    -0.000003061442     0.000000422979
      19       -0.000000223537    -0.000002528981    -0.000001645651
      20       -0.000000039006     0.000002156642     0.000002294904

  **** Optimization is complete! (in 10 steps) ****
    Final optimized geometry and variables:
    Molecular point group: c1

    Geometry (in Angstrom), charge = 0, multiplicity = 1:

    O           -2.175356927710    -1.028063939290    -0.141851885813
    C           -1.681016997648    -0.063019730247     0.333157530446
    C           -2.441758279778     1.141090809418     0.812023672941
    O           -0.379694682898     0.081727569770     0.506345363859
    H           -2.117097770579     2.017168145405     0.265371611727
    H           -3.497815725535     0.983190578205     0.665449019660
    H           -2.231313815580     1.311163060398     1.859956153524
    C            0.466817918423    -0.989864190371     0.102809428484
    C            1.899477459929    -0.633738574533     0.441506548201
    H            0.326259707188    -1.172888895847    -0.951615028251
    H            0.169189520603    -1.883229163058     0.633044053417
    C            2.562113444252     0.516040877858    -0.355173218328
    H            2.468003910770    -1.544467192450     0.279049051276
    H            1.960449692113    -0.426365154736     1.503015044926
    C            1.884980802515     0.950186079392    -1.651484111003
    H            2.698478198241     1.370605464599     0.297621901020
    H            3.572592591122     0.201616154775    -0.596983459405
    H            2.464430989363     1.734440501563    -2.124321252134
    H            0.888001916064     1.333892935126    -1.480065477461
    H            1.812659909985     0.131357621840    -2.358926058765

  Mulliken Charges: (a.u.)
   Center  Symbol    Alpha    Beta     Spin     Total
       1     O     4.19696  4.19696  0.00000 -0.39392
       2     C     2.81005  2.81005  0.00000  0.37991
       3     C     3.13809  3.13809  0.00000 -0.27618
       4     O     4.15814  4.15814  0.00000 -0.31627
       5     H     0.44636  0.44636  0.00000  0.10728
       6     H     0.43786  0.43786  0.00000  0.12427
       7     H     0.44560  0.44560  0.00000  0.10880
       8     C     2.99619  2.99619  0.00000  0.00762
       9     C     3.09445  3.09445  0.00000 -0.18891
      10     H     0.44676  0.44676  0.00000  0.10647
      11     H     0.43778  0.43778  0.00000  0.12444
      12     C     3.08369  3.08369  0.00000 -0.16738
      13     H     0.45083  0.45083  0.00000  0.09835
      14     H     0.44842  0.44842  0.00000  0.10316
      15     C     3.15970  3.15970  0.00000 -0.31941
      16     H     0.45025  0.45025  0.00000  0.09951
      17     H     0.45178  0.45178  0.00000  0.09644
      18     H     0.44398  0.44398  0.00000  0.11204
      19     H     0.44993  0.44993  0.00000  0.10015
      20     H     0.45318  0.45318  0.00000  0.09363

   Total alpha = 32.00000, Total beta = 32.00000, Total charge =  0.00000

*** Psi4 exiting successfully. Buy a developer a beer!
