  ==> Input File <==

--------------------------------------------------------------------------
set {
	reference rhf
	basis cc-pvtz
}

set_num_threads( 4 )
memory 2 gb

molecule MOL {
0 1

H	 -2.498963	 -0.741158	 -0.729149
O	 -2.346257	 -0.289210	 0.080372
C	 -1.183935	 0.486039	 -0.009831
C	 0.062853	 -0.375310	 0.027457
H	 -1.178881	 1.094526	 -0.908634
H	 -1.184406	 1.155156	 0.838676
O	 0.880071	 0.083234	 1.053781
H	 0.583124	 -0.318631	 -0.930145
H	 -0.217861	 -1.414485	 0.185221
C	 2.055031	 -0.638760	 1.225292
H	 2.674984	 -0.607013	 0.332025
H	 2.601049	 -0.193006	 2.043737
H	 1.850384	 -1.679428	 1.465396

	symmetry c1
}
set optking {
	frozen_dihedral = ("
		8 4 3 5
	")
}

ee = optimize('scf')
oeprop('DIPOLE', 'QUADRUPOLE', 'MULLIKEN_CHARGES')
f=open( 'psi4out.xyz', 'w' )
f.write( "13  " )
f.write( str(ee) + "\n" )
f.write( MOL.save_string_xyz() )
f.close()
--------------------------------------------------------------------------

    Molecular point group: c1
  Charge       = 0
  Multiplicity = 1
  Basis Set: CC-PVTZ
  Basis Set:
  @DF-RHF Final Energy:  -268.05534552262770
    Total Energy =                       -268.0553455226277038
    Molecular point group: c1
  Basis Set: CC-PVTZ
  Basis Set:
  Basis Set: CC-PVTZ
  Basis Set:
  @DF-RHF Final Energy:  -268.05590064365026
    Total Energy =                       -268.0559006436503751
  Basis Set: CC-PVTZ
  Basis Set:
  Basis Set: CC-PVTZ
  Basis Set:
  @DF-RHF Final Energy:  -268.05609504668320
    Total Energy =                       -268.0560950466831400
  Basis Set: CC-PVTZ
  Basis Set:
  Basis Set: CC-PVTZ
  Basis Set:
  @DF-RHF Final Energy:  -268.05609827380977
    Total Energy =                       -268.0560982738097664
  Basis Set: CC-PVTZ
  Basis Set:
  Charge       = 0
  Multiplicity = 1
  Basis Set: CC-PVTZ
  Basis Set:

    Orbital Energies (a.u.)
    -----------------------

    Doubly Occupied:

       1A    -20.553515     2A    -20.550254     3A    -11.269109
       4A    -11.267926     5A    -11.265575     6A     -1.388956
       7A     -1.366077     8A     -1.016230     9A     -0.912904
      10A     -0.843410    11A     -0.707237    12A     -0.669455
      13A     -0.666612    14A     -0.642982    15A     -0.588046
      16A     -0.569913    17A     -0.545053    18A     -0.492485
      19A     -0.481839    20A     -0.440388    21A     -0.421388

  @DF-RHF Final Energy:  -268.05609865701570

   => Energetics <=

    Nuclear Repulsion Energy =            190.3955599661514100
    One-Electron Energy =                -743.5846117530004449
    Two-Electron Energy =                 285.1329531298333677
    DFT Exchange-Correlation Energy =       0.0000000000000000
    Empirical Dispersion Energy =           0.0000000000000000
    PCM Polarization Energy =               0.0000000000000000
    EFP Energy =                            0.0000000000000000
    Total Energy =                       -268.0560986570156956
    Molecular point group: c1
  Basis Set: CC-PVTZ
  Basis Set:

  -Total Gradient:
     Atom            X                  Y                   Z
    ------   -----------------  -----------------  -----------------
       1       -0.000006000164    -0.000015615340    -0.000003874096
       2        0.000047954289     0.000035374994    -0.000016294457
       3        0.001447469781     0.002306050932     0.001497007466
       4       -0.001565467628    -0.002389623677    -0.001123086282
       5       -0.000986695804    -0.001525700444    -0.001026527029
       6        0.000003162248     0.000004340374     0.000003722472
       7       -0.000046732530    -0.000011562921    -0.000042762903
       8        0.001090353037     0.001619148745     0.000708776027
       9       -0.000002271120    -0.000007635538     0.000003422877
      10        0.000024614407    -0.000019451813    -0.000005430830
      11        0.000002036719     0.000002253999     0.000001114182
      12       -0.000012810777     0.000003300983    -0.000001921077
      13        0.000004387549    -0.000000880295     0.000005853648

  **** Optimization is complete! (in 5 steps) ****
    Final optimized geometry and variables:
    Molecular point group: c1

    Geometry (in Angstrom), charge = 0, multiplicity = 1:

    H           -2.408947958060    -0.532622106984    -1.237808708655
    O           -2.251127983068    -0.101178942179    -0.418434131364
    C           -1.062567091312     0.641832521223    -0.479272583909
    C            0.193343375253    -0.231316311261    -0.414261438617
    H           -1.057162960988     1.251503127432    -1.377021349723
    H           -1.061291519958     1.297027931324     0.377462024489
    O            1.015450701832     0.233282631682     0.611527179513
    H            0.743731393912    -0.196309565698    -1.353525492984
    H           -0.102058423152    -1.260559606791    -0.227395987165
    C            2.205119820184    -0.469214933463     0.754626797965
    H            2.814091514920    -0.410021370876    -0.145119246458
    H            2.752846734317    -0.028515862938     1.574729556527
    H            2.023600330102    -1.518168318487     0.978096931454

  Mulliken Charges: (a.u.)
   Center  Symbol    Alpha    Beta     Spin     Total
       1     H     0.39542  0.39542  0.00000  0.20917
       2     O     4.19974  4.19974  0.00000 -0.39948
       3     C     2.97418  2.97418  0.00000  0.05164
       4     C     2.97159  2.97159  0.00000  0.05682
       5     H     0.46797  0.46797  0.00000  0.06406
       6     H     0.44893  0.44893  0.00000  0.10215
       7     O     4.17252  4.17252  0.00000 -0.34505
       8     H     0.47897  0.47897  0.00000  0.04207
       9     H     0.47188  0.47188  0.00000  0.05624
      10     C     3.02960  3.02960  0.00000 -0.05919
      11     H     0.47236  0.47236  0.00000  0.05528
      12     H     0.44590  0.44590  0.00000  0.10820
      13     H     0.47096  0.47096  0.00000  0.05809

   Total alpha = 21.00000, Total beta = 21.00000, Total charge = -0.00000
