  ==> Input File <==

--------------------------------------------------------------------------
set {
	reference rhf
	basis 6-31G*
}

set_num_threads( 4 )
memory 2 gb

molecule MOL {
0 1

O	 2.757044	 -0.363179	 -0.275592
C	 1.705091	 0.115954	 0.001797
C	 0.381791	 -0.609817	 0.001258
O	 1.557211	 1.384816	 0.361322
C	 -0.823008	 0.326187	 0.001381
H	 0.371250	 -1.265087	 -0.865474
H	 0.370908	 -1.265746	 0.867490
C	 -2.149452	 -0.435131	 -0.000098
H	 -0.770201	 0.977095	 -0.865636
H	 -0.771220	 0.975655	 0.869608
C	 -3.368779	 0.488503	 -0.000883
H	 -2.193746	 -1.087250	 -0.871175
H	 -2.195311	 -1.087803	 0.870418
C	 -4.693822	 -0.272754	 -0.001129
H	 -3.325798	 1.139422	 -0.871284
H	 -3.326423	 1.139959	 0.869145
H	 -4.781274	 -0.907928	 -0.878124
H	 -5.538651	 0.408946	 -0.001420
H	 -4.781694	 -0.907783	 0.875984
C	 2.727348	 2.180949	 0.404991
H	 3.434506	 1.778480	 1.115958
H	 2.404719	 3.163099	 0.713483
H	 3.191510	 2.228188	 -0.569601

	symmetry c1
}
set optking {
	frozen_dihedral = ("
		1 2 3 6
	")
}

ee = optimize('scf')
oeprop('DIPOLE', 'QUADRUPOLE', 'MULLIKEN_CHARGES')
f=open( 'psi4out.xyz', 'w' )
f.write( "23  " )
f.write( str(ee) + "\n" )
f.write( MOL.save_string_xyz() )
f.close()
--------------------------------------------------------------------------

    Molecular point group: c1
  Charge       = 0
  Multiplicity = 1
  Basis Set: 6-31G*
  Basis Set:
  @DF-RHF Final Energy:  -422.97260675684066
    Total Energy =                       -422.9726067568408325
    Molecular point group: c1
  Basis Set: 6-31G*
  Basis Set:
  Basis Set: 6-31G*
  Basis Set:
  @DF-RHF Final Energy:  -422.97293467811983
    Total Energy =                       -422.9729346781194863
  Basis Set: 6-31G*
  Basis Set:
  Basis Set: 6-31G*
  Basis Set:
  @DF-RHF Final Energy:  -422.97375335239553
    Total Energy =                       -422.9737533523951925
  Basis Set: 6-31G*
  Basis Set:
  Basis Set: 6-31G*
  Basis Set:
  @DF-RHF Final Energy:  -422.97377533061660
    Total Energy =                       -422.9737753306174000
  Basis Set: 6-31G*
  Basis Set:
  Basis Set: 6-31G*
  Basis Set:
  @DF-RHF Final Energy:  -422.97384147399373
    Total Energy =                       -422.9738414739936161
  Basis Set: 6-31G*
  Basis Set:
  Basis Set: 6-31G*
  Basis Set:
  @DF-RHF Final Energy:  -422.97385862947579
    Total Energy =                       -422.9738586294751030
  Basis Set: 6-31G*
  Basis Set:
  Charge       = 0
  Multiplicity = 1
  Basis Set: 6-31G*
  Basis Set:

    Orbital Energies (a.u.)
    -----------------------

    Doubly Occupied:

       1A    -20.606308     2A    -20.540599     3A    -11.372258
       4A    -11.281566     5A    -11.235669     6A    -11.223463
       7A    -11.220205     8A    -11.219093     9A    -11.211523
      10A     -1.470095    11A     -1.360800    12A     -1.095790
      13A     -1.044616    14A     -0.983022    15A     -0.936134
      16A     -0.848041    17A     -0.797198    18A     -0.774425
      19A     -0.692763    20A     -0.684042    21A     -0.670028
      22A     -0.653377    23A     -0.610336    24A     -0.592265
      25A     -0.576984    26A     -0.562674    27A     -0.555696
      28A     -0.523051    29A     -0.522494    30A     -0.506820
      31A     -0.488581    32A     -0.480422    33A     -0.470063
      34A     -0.468864    35A     -0.452079    36A     -0.425311

  @DF-RHF Final Energy:  -422.97385870740004

   => Energetics <=

    Nuclear Repulsion Energy =            455.0864945198229634
    One-Electron Energy =               -1477.8073944729583218
    Two-Electron Energy =                 599.7470412457353177
    DFT Exchange-Correlation Energy =       0.0000000000000000
    Empirical Dispersion Energy =           0.0000000000000000
    PCM Polarization Energy =               0.0000000000000000
    EFP Energy =                            0.0000000000000000
    Total Energy =                       -422.9738587074000407
    Molecular point group: c1
  Basis Set: 6-31G*
  Basis Set:

  -Total Gradient:
     Atom            X                  Y                   Z
    ------   -----------------  -----------------  -----------------
       1        0.000099362014    -0.000164212122     0.000680932174
       2       -0.000177239152     0.000290640966    -0.001094176680
       3        0.000337308503    -0.000616626187     0.000718105816
       4        0.000010129513     0.000052625073    -0.000013935539
       5        0.000007326727    -0.000023691999     0.000063525198
       6       -0.000246457692     0.000471274773    -0.000380850809
       7       -0.000011095474    -0.000002813583     0.000005841003
       8       -0.000010567650     0.000007717533    -0.000012385275
       9       -0.000017703318    -0.000007517027     0.000017107465
      10        0.000006234931     0.000006624472     0.000009038832
      11       -0.000002974867     0.000001072195    -0.000024723962
      12        0.000010380062    -0.000014962064     0.000004955068
      13       -0.000002959688     0.000019639863     0.000006121547
      14        0.000003319432    -0.000001679372    -0.000004241253
      15       -0.000001950678     0.000006066670    -0.000003175814
      16        0.000004620628    -0.000006311187    -0.000002700904
      17       -0.000002706766     0.000000989021    -0.000000812531
      18        0.000001861416     0.000000854004     0.000002652039
      19        0.000001451912    -0.000002395845     0.000000411635
      20       -0.000007189806    -0.000029270753     0.000046979450
      21        0.000008967817     0.000013870059    -0.000004897004
      22       -0.000005781199     0.000001237235    -0.000005742095
      23       -0.000004336673    -0.000003131725    -0.000008028363

  **** Optimization is complete! (in 7 steps) ****
    Final optimized geometry and variables:
    Molecular point group: c1

    Geometry (in Angstrom), charge = 0, multiplicity = 1:

    O            2.897917981142    -0.727554313872    -0.331303292561
    C            1.882218884313    -0.172694119365    -0.055851281634
    C            0.535930909895    -0.862486144887    -0.037717171522
    O            1.829172124577     1.102426932046     0.297626520106
    C           -0.697139885266     0.041028605883    -0.035260335129
    H            0.527350716057    -1.527832335432    -0.893927201944
    H            0.538025157902    -1.502453171065     0.841535030822
    C           -1.996888813433    -0.765476460887    -0.057335586751
    H           -0.664889573890     0.701272994789    -0.897687130967
    H           -0.678113656710     0.681377015658     0.840062472880
    C           -3.247632237686     0.115106232136    -0.060332606194
    H           -2.010064618512    -1.410021012577    -0.934691782954
    H           -2.026888326616    -1.427519015838     0.806715371767
    C           -4.545129334319    -0.691983076506    -0.081149578385
    H           -3.219805525533     0.776188414007    -0.923788206195
    H           -3.236444525768     0.758406544638     0.816779679195
    H           -4.602031852550    -1.320428478415    -0.965420801527
    H           -5.413268491704    -0.040293598830    -0.082478784726
    H           -4.618643541757    -1.338949461224     0.788438361316
    C            3.056523714979     1.808700578206     0.335438660791
    H            3.730148189701     1.359520790505     1.050687717494
    H            2.808066169576     2.815015019321     0.634586870122
    H            3.522625159319     1.810692201386    -0.639115991562

  Mulliken Charges: (a.u.)
   Center  Symbol    Alpha    Beta     Spin     Total
       1     O     4.28923  4.28923  0.00000 -0.57846
       2     C     2.60463  2.60463  0.00000  0.79074
       3     C     3.21078  3.21078  0.00000 -0.42155
       4     O     4.30402  4.30402  0.00000 -0.60804
       5     C     3.15254  3.15254  0.00000 -0.30508
       6     H     0.39782  0.39782  0.00000  0.20436
       7     H     0.39932  0.39932  0.00000  0.20137
       8     C     3.15383  3.15383  0.00000 -0.30766
       9     H     0.41680  0.41680  0.00000  0.16641
      10     H     0.41148  0.41148  0.00000  0.17704
      11     C     3.15154  3.15154  0.00000 -0.30309
      12     H     0.42253  0.42253  0.00000  0.15493
      13     H     0.42310  0.42310  0.00000  0.15379
      14     C     3.23963  3.23963  0.00000 -0.47926
      15     H     0.42199  0.42199  0.00000  0.15603
      16     H     0.42196  0.42196  0.00000  0.15608
      17     H     0.42122  0.42122  0.00000  0.15756
      18     H     0.41845  0.41845  0.00000  0.16310
      19     H     0.42136  0.42136  0.00000  0.15728
      20     C     3.09265  3.09265  0.00000 -0.18530
      21     H     0.40838  0.40838  0.00000  0.18324
      22     H     0.40863  0.40863  0.00000  0.18275
      23     H     0.40811  0.40811  0.00000  0.18379

   Total alpha = 36.00000, Total beta = 36.00000, Total charge = -0.00000
