  ==> Input File <==

--------------------------------------------------------------------------
set {
	reference rhf
	basis 6-31G*
}

set_num_threads( 4 )
memory 2 gb

molecule MOL {
0 1

H	 3.569267	 0.747876	 0.726984
O	 2.658146	 0.600684	 0.961394
C	 2.077727	 -0.067559	 -0.035091
C	 0.624473	 -0.343591	 0.253101
O	 2.672755	 -0.385971	 -1.012624
C	 -0.265902	 0.883932	 0.072916
H	 0.324016	 -1.163849	 -0.390541
H	 0.565024	 -0.726111	 1.268924
C	 -1.728698	 0.646073	 0.462102
H	 -0.209144	 1.219470	 -0.958188
H	 0.135059	 1.692851	 0.673903
C	 -2.482460	 -0.343073	 -0.431425
H	 -2.245265	 1.602650	 0.432430
H	 -1.779332	 0.308348	 1.496285
C	 -3.960546	 -0.461025	 -0.060175
H	 -2.395034	 -0.026811	 -1.468912
H	 -2.024850	 -1.327147	 -0.371646
H	 -4.472726	 -1.168004	 -0.705284
H	 -4.465146	 0.496508	 -0.151489
H	 -4.081218	 -0.800940	 0.964585

	symmetry c1
}
set optking {
	frozen_dihedral = ("
		5 3 4 7
	")
}

ee = optimize('scf')
oeprop('DIPOLE', 'QUADRUPOLE', 'MULLIKEN_CHARGES')
f=open( 'psi4out.xyz', 'w' )
f.write( "20  " )
f.write( str(ee) + "\n" )
f.write( MOL.save_string_xyz() )
f.close()
--------------------------------------------------------------------------

    Molecular point group: c1
  Charge       = 0
  Multiplicity = 1
  Basis Set: 6-31G*
  Basis Set:
  @DF-RHF Final Energy:  -383.94684626784010
    Total Energy =                       -383.9468462678401011
    Molecular point group: c1
  Basis Set: 6-31G*
  Basis Set:
  Basis Set: 6-31G*
  Basis Set:
  @DF-RHF Final Energy:  -383.94667382715659
    Total Energy =                       -383.9466738271564736
  Basis Set: 6-31G*
  Basis Set:
  Basis Set: 6-31G*
  Basis Set:
  @DF-RHF Final Energy:  -383.94706312586737
    Total Energy =                       -383.9470631258673734
  Basis Set: 6-31G*
  Basis Set:
  Basis Set: 6-31G*
  Basis Set:
  @DF-RHF Final Energy:  -383.94736506754583
    Total Energy =                       -383.9473650675459453
  Basis Set: 6-31G*
  Basis Set:
  Basis Set: 6-31G*
  Basis Set:
  @DF-RHF Final Energy:  -383.94733043352784
    Total Energy =                       -383.9473304335275543
  Basis Set: 6-31G*
  Basis Set:
  Basis Set: 6-31G*
  Basis Set:
  @DF-RHF Final Energy:  -383.94736915828594
    Total Energy =                       -383.9473691582857100
  Basis Set: 6-31G*
  Basis Set:
  Charge       = 0
  Multiplicity = 1
  Basis Set: 6-31G*
  Basis Set:

    Orbital Energies (a.u.)
    -----------------------

    Doubly Occupied:

       1A    -20.612663     2A    -20.549150     3A    -11.379342
       4A    -11.238177     5A    -11.233196     6A    -11.224502
       7A    -11.221779     8A    -11.213608     9A     -1.473395
      10A     -1.363755    11A     -1.099538    12A     -1.042229
      13A     -0.960826    14A     -0.864518    15A     -0.822657
      16A     -0.788807    17A     -0.701005    18A     -0.686478
      19A     -0.644132    20A     -0.632163    21A     -0.621625
      22A     -0.592418    23A     -0.578358    24A     -0.554528
      25A     -0.540732    26A     -0.521290    27A     -0.498450
      28A     -0.483576    29A     -0.475490    30A     -0.470089
      31A     -0.458652    32A     -0.435109

  @DF-RHF Final Energy:  -383.94736926397002

   => Energetics <=

    Nuclear Repulsion Energy =            376.5618594760231872
    One-Electron Energy =               -1269.0539861011591256
    Two-Electron Energy =                 508.5447573611659777
    DFT Exchange-Correlation Energy =       0.0000000000000000
    Empirical Dispersion Energy =           0.0000000000000000
    PCM Polarization Energy =               0.0000000000000000
    EFP Energy =                            0.0000000000000000
    Total Energy =                       -383.9473692639699607
    Molecular point group: c1
  Basis Set: 6-31G*
  Basis Set:

  -Total Gradient:
     Atom            X                  Y                   Z
    ------   -----------------  -----------------  -----------------
       1       -0.000000940390    -0.000000864580    -0.000004149073
       2       -0.000017038809    -0.000005425049     0.000003179500
       3        0.000127608869    -0.000402808090     0.000176027582
       4       -0.000124570184     0.000355944913    -0.000253158365
       5       -0.000071782854     0.000243868227    -0.000106549946
       6       -0.000002535681     0.000012266172    -0.000007809739
       7        0.000068405692    -0.000196976861     0.000185921096
       8        0.000007381104    -0.000009508585    -0.000016518213
       9       -0.000014388255     0.000010185123    -0.000013887964
      10        0.000014974587     0.000004101802     0.000017182720
      11       -0.000008664702    -0.000002701661     0.000000852356
      12        0.000018524669    -0.000006384092     0.000019717232
      13       -0.000018758131    -0.000005832038     0.000000184729
      14        0.000007792308     0.000000157407    -0.000001381562
      15       -0.000003664285     0.000012699178    -0.000004041585
      16        0.000009485771    -0.000002934609     0.000005271034
      17        0.000009680943    -0.000009581314     0.000002151630
      18       -0.000000238288     0.000003600513    -0.000003283930
      19       -0.000003085737     0.000002194423     0.000003406820
      20        0.000001813360    -0.000002000878    -0.000003114320

  **** Optimization is complete! (in 7 steps) ****
    Final optimized geometry and variables:
    Molecular point group: c1

    Geometry (in Angstrom), charge = 0, multiplicity = 1:

    H            3.573338570265     0.720223168638     0.630812041806
    O            2.681650747526     0.534851305179     0.908989528959
    C            2.075358115287    -0.139223965908    -0.068354649502
    C            0.636501795733    -0.444396257696     0.253548838138
    O            2.633504449374    -0.425851527533    -1.077471948346
    C           -0.248048774863     0.800574474327     0.069284177155
    H            0.327813294407    -1.246118004845    -0.402244780818
    H            0.574497796465    -0.789060522191     1.280387825557
    C           -1.716838954709     0.571868799542     0.440636854488
    H           -0.180886738202     1.133317327651    -0.963479288019
    H            0.148709142280     1.602038080510     0.684284232513
    C           -2.463417092703    -0.415864386847    -0.459840007502
    H           -2.226633536344     1.531861219121     0.401912202691
    H           -1.778637541633     0.237921713128     1.474986609207
    C           -3.947350538058    -0.521441482249    -0.108682876198
    H           -2.358647326910    -0.105061488146    -1.497176839831
    H           -2.013094628680    -1.402127157097    -0.388940686105
    H           -4.454679169021    -1.227927399325    -0.757951258395
    H           -4.444285180646     0.438947640679    -0.211664954941
    H           -4.085022655410    -0.855960662272     0.915699892361

  Mulliken Charges: (a.u.)
   Center  Symbol    Alpha    Beta     Spin     Total
       1     H     0.26782  0.26782  0.00000  0.46437
       2     O     4.34772  4.34772  0.00000 -0.69545
       3     C     2.63327  2.63327  0.00000  0.73347
       4     C     3.19958  3.19958  0.00000 -0.39916
       5     O     4.27825  4.27825  0.00000 -0.55650
       6     C     3.16825  3.16825  0.00000 -0.33649
       7     H     0.39585  0.39585  0.00000  0.20829
       8     H     0.40324  0.40324  0.00000  0.19352
       9     C     3.15367  3.15367  0.00000 -0.30734
      10     H     0.41106  0.41106  0.00000  0.17788
      11     H     0.40654  0.40654  0.00000  0.18692
      12     C     3.15505  3.15505  0.00000 -0.31009
      13     H     0.41787  0.41787  0.00000  0.16425
      14     H     0.42150  0.42150  0.00000  0.15701
      15     C     3.23965  3.23965  0.00000 -0.47931
      16     H     0.42033  0.42033  0.00000  0.15934
      17     H     0.42088  0.42088  0.00000  0.15825
      18     H     0.41750  0.41750  0.00000  0.16500
      19     H     0.42084  0.42084  0.00000  0.15833
      20     H     0.42114  0.42114  0.00000  0.15772

   Total alpha = 32.00000, Total beta = 32.00000, Total charge =  0.00000
