                              Psi4 1.0.54 Driver

  ==> Input File <==

--------------------------------------------------------------------------
set {
	reference rhf
	basis cc-pvtz
}

set_num_threads( 4 )
memory 2 gb

molecule MOL {
0 1

H	 2.107238	 1.460703	 -2.207090
C	 1.879627	 0.938428	 -1.283939
C	 0.382700	 0.679137	 -1.181566
H	 2.212368	 1.547872	 -0.452807
H	 2.456386	 0.021899	 -1.276346
N	 0.000297	 0.000045	 0.046090
H	 -0.125190	 1.633045	 -1.216558
H	 0.041269	 0.122584	 -2.058837
C	 -1.359159	 0.315706	 0.454404
C	 0.243178	 -1.432439	 -0.013277
C	 -2.416729	 -0.286720	 -0.460525
H	 -1.478729	 1.390261	 0.442008
H	 -1.539692	 0.003361	 1.486761
C	 0.507426	 -2.054217	 1.351275
H	 1.111114	 -1.606464	 -0.634133
H	 -0.586981	 -1.949613	 -0.502438
H	 -2.285276	 0.073129	 -1.473515
H	 -2.371743	 -1.368476	 -0.483209
H	 -3.408658	 -0.007405	 -0.121593
H	 1.371992	 -1.592993	 1.812475
H	 -0.331869	 -1.936384	 2.025423
H	 0.697750	 -3.117221	 1.248262

	symmetry c1
}
set optking {
	frozen_dihedral = ("
		3 6 9 11
	")
}

ee,wfn = optimize('scf', return_wfn=True)
oeprop( wfn, 'DIPOLE', 'QUADRUPOLE', 'MULLIKEN_CHARGES')
f=open( 'psi4out.xyz', 'w' )
f.write( "22  " )
f.write( str(ee) + "\n" )
f.write( MOL.save_string_xyz() )
f.close()
--------------------------------------------------------------------------

    Molecular point group: c1
  Charge       = 0
  Multiplicity = 1
  Basis Set: CC-PVTZ
  Basis Set:
  @DF-RHF Final Energy:  -290.47049003746116
    Total Energy =                       -290.4704900374609338
    Molecular point group: c1
  Basis Set: CC-PVTZ
  Basis Set:
  Basis Set: CC-PVTZ
  Basis Set:
  @DF-RHF Final Energy:  -290.46884057017064
    Total Energy =                       -290.4688405701705847
  Basis Set: CC-PVTZ
  Basis Set:
  Basis Set: CC-PVTZ
  Basis Set:
  @DF-RHF Final Energy:  -290.47159276538849
    Total Energy =                       -290.4715927653882659
  Basis Set: CC-PVTZ
  Basis Set:
  Basis Set: CC-PVTZ
  Basis Set:
  @DF-RHF Final Energy:  -290.47454821795702
    Total Energy =                       -290.4745482179570217
  Basis Set: CC-PVTZ
  Basis Set:
  @DF-RHF Final Energy:  -290.47487362209267
    Total Energy =                       -290.4748736220925593
  @DF-RHF Final Energy:  -290.47495374426484
    Total Energy =                       -290.4749537442648375
  Basis Set: CC-PVTZ
  Basis Set:
  @DF-RHF Final Energy:  -290.47499359859449
    Total Energy =                       -290.4749935985945513
  Basis Set: CC-PVTZ
  Basis Set:
  Basis Set: CC-PVTZ
  Basis Set:
  @DF-RHF Final Energy:  -290.47500500327232
    Total Energy =                       -290.4750050032723721
  Basis Set: CC-PVTZ
  Basis Set:
  Basis Set: CC-PVTZ
  Basis Set:
  @DF-RHF Final Energy:  -290.47500658475320
    Total Energy =                       -290.4750065847532028
  Basis Set: CC-PVTZ
  Basis Set:
  Charge       = 0
  Multiplicity = 1
  Basis Set: CC-PVTZ
  Basis Set:

    Orbital Energies (a.u.)
    -----------------------

    Doubly Occupied:

       1A    -15.530609     2A    -11.238225     3A    -11.237513
       4A    -11.237446     5A    -11.204801     6A    -11.204755
       7A    -11.202442     8A     -1.223574     9A     -1.025199
      10A     -1.020873    11A     -0.956975    12A     -0.863582
      13A     -0.842818    14A     -0.758029    15A     -0.660186
      16A     -0.644713    17A     -0.617840    18A     -0.597158
      19A     -0.570855    20A     -0.551469    21A     -0.544133
      22A     -0.522466    23A     -0.515491    24A     -0.505829
      25A     -0.493599    26A     -0.481401    27A     -0.468553
      28A     -0.460067    29A     -0.337132

  @DF-RHF Final Energy:  -290.47500690128908

   => Energetics <=

    Nuclear Repulsion Energy =            339.2554923744447137
    One-Electron Energy =               -1064.4255206439888752
    Two-Electron Energy =                 434.6950213682550839
    DFT Exchange-Correlation Energy =       0.0000000000000000
    Empirical Dispersion Energy =           0.0000000000000000
    PCM Polarization Energy =               0.0000000000000000
    EFP Energy =                            0.0000000000000000
    Total Energy =                       -290.4750069012891345
    Molecular point group: c1
  Basis Set: CC-PVTZ
  Basis Set:

  -Total Gradient:
     Atom            X                  Y                   Z
    ------   -----------------  -----------------  -----------------
       1        0.000004921639     0.000000809348     0.000003514839
       2       -0.000002569622     0.000016582391    -0.000000234920
       3        0.000319830381     0.000349694556     0.000186147802
       4        0.000001860139    -0.000001721363     0.000000723550
       5       -0.000009468911     0.000004637502     0.000006791642
       6       -0.000435698302    -0.000722382390    -0.000168035077
       7       -0.000001362570    -0.000005250448     0.000006285513
       8       -0.000000939541     0.000003391988     0.000005818101
       9        0.000120367930     0.000788586673    -0.000311208735
      10       -0.000011837409    -0.000032057936    -0.000002406170
      11       -0.000000651738    -0.000433476154     0.000285658307
      12        0.000000063747    -0.000003981694    -0.000007030492
      13       -0.000003153170     0.000004410404    -0.000007110505
      14       -0.000009333423     0.000015664978     0.000006645614
      15       -0.000017325726     0.000008246956     0.000011507772
      16        0.000022164872    -0.000000374702     0.000007935257
      17        0.000005402310     0.000000697430     0.000002386282
      18        0.000002870952     0.000009618712     0.000003596041
      19        0.000004623701    -0.000000828307    -0.000004417229
      20       -0.000016594681    -0.000015748321    -0.000008958557
      21        0.000027430315    -0.000004149918    -0.000019792444
      22       -0.000000600893     0.000017630295     0.000002183407

  **** Optimization is complete! (in 10 steps) ****
    Final optimized geometry and variables:
    Molecular point group: c1

    Geometry (in Angstrom), charge = 0, multiplicity = 1:

    H            1.908077497386     1.555349724244    -2.521518183604
    C            1.837703232203     1.014137013507    -1.583823902465
    C            0.378786478746     0.880545296499    -1.163883836374
    H            2.397213499287     1.555468388679    -0.830922656118
    H            2.313773171116     0.052339024671    -1.727252370071
    N            0.211970148169     0.215945743157     0.117395132981
    H           -0.038977281626     1.876346301050    -1.082563776900
    H           -0.181178685880     0.379107013387    -1.956665711018
    C           -0.913421602067     0.708914450624     0.892163338403
    C            0.320541484112    -1.227862765358     0.022870275902
    C           -2.315278677778     0.377311616913     0.373217679947
    H           -0.810154859670     1.785226890424     0.959895374048
    H           -0.820125126433     0.339922468373     1.905274294459
    C            0.519828680574    -1.921586214115     1.363861922524
    H            1.179028652515    -1.449581848922    -0.596019920188
    H           -0.538784192771    -1.668993863663    -0.487989829043
    H           -2.468010241003     0.745017117063    -0.635144565899
    H           -2.507157594562    -0.688861061418     0.371919220480
    H           -3.060060905312     0.842267218399     1.010068079967
    H            1.352049751635    -1.481216476959     1.899682051621
    H           -0.358036059255    -1.863660621158     1.994980534430
    H            0.733229143326    -2.972371995115     1.203355957697

  Mulliken Charges: (a.u.)
   Center  Symbol    Alpha    Beta     Spin     Total
       1     H     0.45366  0.45366  0.00000  0.09268
       2     C     3.13925  3.13925  0.00000 -0.27850
       3     C     3.04194  3.04194  0.00000 -0.08387
       4     H     0.45230  0.45230  0.00000  0.09540
       5     H     0.45641  0.45641  0.00000  0.08717
       6     N     3.61394  3.61394  0.00000 -0.22788
       7     H     0.45266  0.45266  0.00000  0.09468
       8     H     0.46421  0.46421  0.00000  0.07158
       9     C     3.06119  3.06119  0.00000 -0.12239
      10     C     3.04382  3.04382  0.00000 -0.08763
      11     C     3.15208  3.15208  0.00000 -0.30416
      12     H     0.44853  0.44853  0.00000  0.10294
      13     H     0.44901  0.44901  0.00000  0.10198
      14     C     3.15185  3.15185  0.00000 -0.30370
      15     H     0.44821  0.44821  0.00000  0.10359
      16     H     0.46488  0.46488  0.00000  0.07024
      17     H     0.45218  0.45218  0.00000  0.09564
      18     H     0.45339  0.45339  0.00000  0.09322
      19     H     0.44743  0.44743  0.00000  0.10514
      20     H     0.44886  0.44886  0.00000  0.10228
      21     H     0.45475  0.45475  0.00000  0.09049
      22     H     0.44944  0.44944  0.00000  0.10111

   Total alpha = 29.00000, Total beta = 29.00000, Total charge = -0.00000

*** Psi4 exiting successfully. Buy a developer a beer!
