  ==> Input File <==

--------------------------------------------------------------------------
set {
	reference rhf
	basis 6-31G*
}

set_num_threads( 1 )
memory 2 gb

molecule MOL {
0 1

O	 -0.098474	 0.545707	 0.965154
C	 0.486307	 0.169203	 0.000779
C	 1.608116	 -0.841643	 0.000302
O	 0.224931	 0.598982	 -1.225834
C	 2.990107	 -0.200498	 -0.000684
H	 1.468623	 -1.481519	 -0.865924
H	 1.469683	 -1.481289	 0.866878
H	 3.129736	 0.423364	 -0.875135
H	 3.757882	 -0.966877	 -0.001197
H	 3.130964	 0.423383	 0.873533
C	 -0.813924	 1.560683	 -1.378521
C	 -0.915850	 1.888362	 -2.853156
H	 -0.573451	 2.435753	 -0.790295
H	 -1.736887	 1.146442	 -0.996248
H	 0.018043	 2.297044	 -3.221914
H	 -1.699409	 2.621412	 -3.015399
H	 -1.151822	 1.000739	 -3.429089

	symmetry c1
}
set optking {
	frozen_dihedral = ("
		2 4 11 13,
		11 4 2 3
	")
}

ee = energy('scf')
oeprop('DIPOLE', 'QUADRUPOLE', 'MULLIKEN_CHARGES')
f=open( 'psi4out.xyz', 'w' )
f.write( "17  " )
f.write( str(ee) + "\n" )
f.write( MOL.save_string_xyz() )
f.close()
--------------------------------------------------------------------------

    Molecular point group: c1

    Geometry (in Angstrom), charge = 0, multiplicity = 1:

       Center              X                  Y                   Z               Mass
    ------------   -----------------  -----------------  -----------------  -----------------
           O         -0.589854291885     0.000079379162     1.616575470149    15.994914619560
           C         -0.005073291885    -0.376424620838     0.652200470149    12.000000000000
           C          1.116735708115    -1.387270620838     0.651723470149    12.000000000000
           O         -0.266449291885     0.053354379162    -0.574412529851    15.994914619560
           C          2.498726708115    -0.746125620838     0.650737470149    12.000000000000
           H          0.977242708115    -2.027146620838    -0.214502529851     1.007825032070
           H          0.978302708115    -2.026916620838     1.518299470149     1.007825032070
           H          2.638355708115    -0.122263620838    -0.223713529851     1.007825032070
           H          3.266501708115    -1.512504620838     0.650224470149     1.007825032070
           H          2.639583708115    -0.122244620838     1.524954470149     1.007825032070
           C         -1.305304291885     1.015055379162    -0.727099529851    12.000000000000
           C         -1.407230291885     1.342734379162    -2.201734529851    12.000000000000
           H         -1.064831291885     1.890125379162    -0.138873529851     1.007825032070
           H         -2.228267291885     0.600814379162    -0.344826529851     1.007825032070
           H         -0.473337291885     1.751416379162    -2.570492529851     1.007825032070
           H         -2.190789291885     2.075784379162    -2.363977529851     1.007825032070
           H         -1.643202291885     0.455111379162    -2.777667529851     1.007825032070

  Charge       = 0
  Multiplicity = 1
  Basis Set: 6-31G*
  Basis Set:

    Orbital Energies (a.u.)
    -----------------------

    Doubly Occupied:

       1A    -20.601532     2A    -20.542697     3A    -11.370250
       4A    -11.284529     5A    -11.235812     6A    -11.226756
       7A    -11.222375     8A     -1.467143     9A     -1.360723
      10A     -1.073341    11A     -1.031619    12A     -0.909712
      13A     -0.854510    14A     -0.777131    15A     -0.692990
      16A     -0.681458    17A     -0.668721    18A     -0.613259
      19A     -0.599303    20A     -0.575263    21A     -0.554060
      22A     -0.540871    23A     -0.529013    24A     -0.506339
      25A     -0.501144    26A     -0.498821    27A     -0.451236
      28A     -0.431146

  @DF-RHF Final Energy:  -344.90970195017655

   => Energetics <=

    Nuclear Repulsion Energy =            316.2262085064681969
    One-Electron Energy =               -1096.6683351678659619
    Two-Electron Energy =                 435.5324247112201874
    DFT Exchange-Correlation Energy =       0.0000000000000000
    Empirical Dispersion Energy =           0.0000000000000000
    PCM Polarization Energy =               0.0000000000000000
    EFP Energy =                            0.0000000000000000
    Total Energy =                       -344.9097019501775776

  Mulliken Charges: (a.u.)
   Center  Symbol    Alpha    Beta     Spin     Total
       1     O     4.28497  4.28497  0.00000 -0.56994
       2     C     2.61572  2.61572  0.00000  0.76855
       3     C     3.19414  3.19414  0.00000 -0.38827
       4     O     4.30909  4.30909  0.00000 -0.61817
       5     C     3.24919  3.24919  0.00000 -0.49838
       6     H     0.40454  0.40454  0.00000  0.19091
       7     H     0.40051  0.40051  0.00000  0.19897
       8     H     0.41009  0.41009  0.00000  0.17982
       9     H     0.41151  0.41151  0.00000  0.17698
      10     H     0.40867  0.40867  0.00000  0.18267
      11     C     3.00255  3.00255  0.00000 -0.00510
      12     C     3.24848  3.24848  0.00000 -0.49695
      13     H     0.41030  0.41030  0.00000  0.17940
      14     H     0.40997  0.40997  0.00000  0.18007
      15     H     0.41216  0.41216  0.00000  0.17568
      16     H     0.41626  0.41626  0.00000  0.16749
      17     H     0.41187  0.41187  0.00000  0.17626

   Total alpha = 28.00000, Total beta = 28.00000, Total charge = -0.00000
