                              Psi4 1.0.54 Driver

  ==> Input File <==

--------------------------------------------------------------------------
set {
	reference rhf
	basis cc-pvtz
}

set_num_threads( 4 )
memory 2 gb

molecule MOL {
0 1

H	 -3.436473	 1.252944	 -1.023892
O	 -3.458596	 0.315260	 -0.960865
C	 -3.176635	 -0.080824	 0.355601
C	 -1.763371	 0.265266	 0.799691
H	 -3.321825	 -1.153438	 0.379502
H	 -3.895468	 0.357385	 1.043382
C	 -0.673390	 -0.426948	 -0.013392
H	 -1.631049	 1.344913	 0.747560
H	 -1.664587	 -0.001624	 1.849167
C	 0.737842	 -0.043159	 0.423759
H	 -0.806103	 -0.190518	 -1.063345
H	 -0.797221	 -1.503753	 0.074146
C	 0.789280	 1.293013	 1.162032
H	 1.137508	 -0.831122	 1.054847
H	 1.385388	 0.006479	 -0.449211
C	 2.193093	 1.760424	 1.550213
H	 0.172734	 1.232505	 2.055934
H	 0.335156	 2.054059	 0.533383
C	 2.891611	 0.887806	 2.590287
H	 2.122695	 2.772396	 1.937167
H	 2.810421	 1.820655	 0.657634
H	 2.294187	 0.804350	 3.492616
H	 3.849470	 1.312876	 2.867886
H	 3.075653	 -0.114212	 2.221920

	symmetry c1
}
set optking {
	frozen_dihedral = ("
		13 10 7 11
	")
}

ee,wfn = optimize('scf', return_wfn=True)
oeprop( wfn, 'DIPOLE', 'QUADRUPOLE', 'MULLIKEN_CHARGES')
f=open( 'psi4out.xyz', 'w' )
f.write( "24  " )
f.write( str(ee) + "\n" )
f.write( MOL.save_string_xyz() )
f.close()
--------------------------------------------------------------------------

    Molecular point group: c1
  Charge       = 0
  Multiplicity = 1
  Basis Set: CC-PVTZ
  Basis Set:
  @DF-RHF Final Energy:  -349.36865179884046
    Total Energy =                       -349.3686517988401761
    Molecular point group: c1
  Basis Set: CC-PVTZ
  Basis Set:
  Basis Set: CC-PVTZ
  Basis Set:
  @DF-RHF Final Energy:  -349.29396512517985
    Total Energy =                       -349.2939651251800228
  Basis Set: CC-PVTZ
  Basis Set:
  Basis Set: CC-PVTZ
  Basis Set:
  @DF-RHF Final Energy:  -349.36373905562095
    Total Energy =                       -349.3637390556210676
  Basis Set: CC-PVTZ
  Basis Set:
  Basis Set: CC-PVTZ
  Basis Set:
  @DF-RHF Final Energy:  -349.37201142574810
    Total Energy =                       -349.3720114257479281
  Basis Set: CC-PVTZ
  Basis Set:
  @DF-RHF Final Energy:  -349.37262368244183
    Total Energy =                       -349.3726236824420539
  Basis Set: CC-PVTZ
  Basis Set:
  @DF-RHF Final Energy:  -349.37262939426404
    Total Energy =                       -349.3726293942636971
  Basis Set: CC-PVTZ
  Basis Set:
  Basis Set: CC-PVTZ
  Basis Set:
  @DF-RHF Final Energy:  -349.37263293391504
    Total Energy =                       -349.3726329339153835
  Basis Set: CC-PVTZ
  Basis Set:
  Basis Set: CC-PVTZ
  Basis Set:
  @DF-RHF Final Energy:  -349.37263998085990
    Total Energy =                       -349.3726399808599581
  Basis Set: CC-PVTZ
  Basis Set:
  Charge       = 0
  Multiplicity = 1
  Basis Set: CC-PVTZ
  Basis Set:

    Orbital Energies (a.u.)
    -----------------------

    Doubly Occupied:

       1A    -20.546022     2A    -11.265303     3A    -11.215081
       4A    -11.213047     5A    -11.211152     6A    -11.210359
       7A    -11.209373     8A    -11.205872     9A     -1.363915
      10A     -1.088431    11A     -1.047660    12A     -0.984353
      13A     -0.917968    14A     -0.856198    15A     -0.811621
      16A     -0.762694    17A     -0.678739    18A     -0.652992
      19A     -0.628094    20A     -0.621251    21A     -0.600595
      22A     -0.579172    23A     -0.565335    24A     -0.540314
      25A     -0.523788    26A     -0.511638    27A     -0.497081
      28A     -0.481620    29A     -0.474778    30A     -0.456529
      31A     -0.445809    32A     -0.437665    33A     -0.426779

  @DF-RHF Final Energy:  -349.37263999867611

   => Energetics <=

    Nuclear Repulsion Energy =            389.5735355103979032
    One-Electron Energy =               -1245.8298891551967245
    Two-Electron Energy =                 506.8837136461224873
    DFT Exchange-Correlation Energy =       0.0000000000000000
    Empirical Dispersion Energy =           0.0000000000000000
    PCM Polarization Energy =               0.0000000000000000
    EFP Energy =                            0.0000000000000000
    Total Energy =                       -349.3726399986762772
    Molecular point group: c1
  Basis Set: CC-PVTZ
  Basis Set:

  -Total Gradient:
     Atom            X                  Y                   Z
    ------   -----------------  -----------------  -----------------
       1       -0.000000296402     0.000000683630     0.000017636734
       2       -0.000030265096    -0.000037855389    -0.000007648093
       3        0.000015989248     0.000011894716    -0.000025229130
       4        0.000009189752     0.000024938340     0.000040353333
       5       -0.000020940490     0.000001086355    -0.000032112627
       6       -0.000008693633     0.000010078546    -0.000007678444
       7       -0.001414997795     0.006677278234     0.003272994756
       8        0.000012914660     0.000018811480     0.000019997807
       9        0.000007888075    -0.000000845137    -0.000003912425
      10        0.002859670468     0.001158167839    -0.005794541105
      11        0.000488496174    -0.006052544609    -0.001285171393
      12        0.000037741952    -0.000001159979     0.000012174258
      13       -0.001946878642    -0.001766309491     0.003831865391
      14       -0.000013528671     0.000009242518    -0.000014593753
      15       -0.000013325275    -0.000011664518    -0.000017754699
      16        0.000000104832    -0.000040676824    -0.000002957905
      17        0.000014234741     0.000016445212     0.000006525873
      18       -0.000037751149    -0.000010951708    -0.000015553860
      19        0.000023570961     0.000015178685    -0.000010419802
      20       -0.000017883498    -0.000016501073    -0.000011212712
      21        0.000015419692     0.000001098489     0.000025454603
      22        0.000003573671     0.000011776386    -0.000011071113
      23        0.000018264973    -0.000011070681     0.000012551818
      24       -0.000002498547    -0.000007101021     0.000000302481

  **** Optimization is complete! (in 9 steps) ****
    Final optimized geometry and variables:
    Molecular point group: c1

    Geometry (in Angstrom), charge = 0, multiplicity = 1:

    H           -2.610670958345     1.465281098611    -2.221994894226
    O           -2.819700097009     0.549459105896    -2.186532195892
    C           -2.862868143584     0.121972137554    -0.850767374753
    C           -1.517582531919     0.209076953536    -0.143918701630
    H           -3.203578651428    -0.905181905977    -0.880171003573
    H           -3.604203604306     0.692312795798    -0.296623341804
    C           -0.454406101906    -0.687001816901    -0.773151903187
    H           -1.194182140695     1.246312538462    -0.138912275000
    H           -1.670495827492    -0.067631667147     0.896233181386
    C            0.932264432436    -0.720119304315    -0.092520840501
    H           -0.342246736541    -0.452518362477    -1.824852253666
    H           -0.841515466274    -1.702897037000    -0.772265344033
    C            1.335662346998     0.526224562050     0.697575090724
    H            0.957247161482    -1.567817245249     0.583802262084
    H            1.684966546406    -0.920902160681    -0.848214146577
    C            2.761621267889     0.478626598905     1.252230561038
    H            0.644167591972     0.682488911184     1.519511355308
    H            1.252454109008     1.401498659360     0.058587644940
    C            2.999350886144    -0.584542928089     2.322248694609
    H            2.996201699084     1.451426476682     1.673623040000
    H            3.460264641347     0.327695785242     0.433607442874
    H            2.305490111953    -0.467042928746     3.148720840118
    H            4.003725854112    -0.507104231146     2.722841322808
    H            2.882149654504    -1.588168279194     1.932313376600

  Mulliken Charges: (a.u.)
   Center  Symbol    Alpha    Beta     Spin     Total
       1     H     0.39530  0.39530  0.00000  0.20939
       2     O     4.20379  4.20379  0.00000 -0.40758
       3     C     2.97833  2.97833  0.00000  0.04335
       4     C     3.10785  3.10785  0.00000 -0.21570
       5     H     0.45843  0.45843  0.00000  0.08313
       6     H     0.45982  0.45982  0.00000  0.08036
       7     C     3.09235  3.09235  0.00000 -0.18470
       8     H     0.45477  0.45477  0.00000  0.09046
       9     H     0.45161  0.45161  0.00000  0.09679
      10     C     3.09907  3.09907  0.00000 -0.19815
      11     H     0.44359  0.44359  0.00000  0.11283
      12     H     0.45316  0.45316  0.00000  0.09368
      13     C     3.09879  3.09879  0.00000 -0.19757
      14     H     0.45222  0.45222  0.00000  0.09556
      15     H     0.44902  0.44902  0.00000  0.10196
      16     C     3.09041  3.09041  0.00000 -0.18082
      17     H     0.45067  0.45067  0.00000  0.09866
      18     H     0.44987  0.44987  0.00000  0.10027
      19     C     3.15276  3.15276  0.00000 -0.30552
      20     H     0.44872  0.44872  0.00000  0.10255
      21     H     0.45455  0.45455  0.00000  0.09090
      22     H     0.45562  0.45562  0.00000  0.08876
      23     H     0.44636  0.44636  0.00000  0.10729
      24     H     0.45295  0.45295  0.00000  0.09410

   Total alpha = 33.00000, Total beta = 33.00000, Total charge =  0.00000

*** Psi4 exiting successfully. Buy a developer a beer!
