  ==> Input File <==

--------------------------------------------------------------------------
set {
	reference rhf
	basis 6-31G*
}

set_num_threads( 4 )
memory 2 gb

molecule MOL {
0 1

O	 3.225979	 0.970355	 -0.599647
C	 2.701189	 0.057885	 -0.047330
C	 1.245376	 -0.013843	 0.345420
O	 3.347903	 -1.046386	 0.304773
C	 0.455112	 1.231400	 -0.050772
H	 0.838542	 -0.913825	 -0.103701
H	 1.208210	 -0.175333	 1.419774
C	 -0.998893	 1.219485	 0.433193
H	 0.482531	 1.345121	 -1.130325
H	 0.957290	 2.103070	 0.354729
C	 -1.883438	 0.145884	 -0.207175
H	 -1.431207	 2.195402	 0.224832
H	 -1.019646	 1.105716	 1.516076
C	 -3.347647	 0.245583	 0.225435
H	 -1.822183	 0.231698	 -1.291012
H	 -1.510341	 -0.844814	 0.042401
C	 -4.285673	 0.674069	 -0.904450
H	 -3.432098	 0.952553	 1.049022
H	 -3.673913	 -0.716857	 0.616536
C	 -5.745411	 0.774922	 -0.463208
H	 -3.960482	 1.635174	 -1.297095
H	 -4.205902	 -0.033797	 -1.726851
H	 -6.385114	 1.080382	 -1.285449
H	 -5.864159	 1.501500	 0.335653
H	 -6.111178	 -0.180212	 -0.096864
C	 4.728119	 -1.109107	 -0.004993
H	 4.882018	 -1.033965	 -1.071845
H	 5.068212	 -2.067527	 0.355250
H	 5.265056	 -0.311663	 0.488280

	symmetry c1
}
set optking {
	frozen_dihedral = ("
		17 14 11 15
	")
}

ee = optimize('scf')
oeprop('DIPOLE', 'QUADRUPOLE', 'MULLIKEN_CHARGES')
f=open( 'psi4out.xyz', 'w' )
f.write( "29  " )
f.write( str(ee) + "\n" )
f.write( MOL.save_string_xyz() )
f.close()
--------------------------------------------------------------------------

    Molecular point group: c1
  Charge       = 0
  Multiplicity = 1
  Basis Set: 6-31G*
  Basis Set:
  @DF-RHF Final Energy:  -501.03866948266500
    Total Energy =                       -501.0386694826645453
    Molecular point group: c1
  Basis Set: 6-31G*
  Basis Set:
  Basis Set: 6-31G*
  Basis Set:
  @DF-RHF Final Energy:  -501.03888998669561
    Total Energy =                       -501.0388899866954944
  Basis Set: 6-31G*
  Basis Set:
  Basis Set: 6-31G*
  Basis Set:
  @DF-RHF Final Energy:  -501.03897023580464
    Total Energy =                       -501.0389702358056638
  Basis Set: 6-31G*
  Basis Set:
  Basis Set: 6-31G*
  Basis Set:
  @DF-RHF Final Energy:  -501.03895331692490
    Total Energy =                       -501.0389533169247898
  Basis Set: 6-31G*
  Basis Set:
  @DF-RHF Final Energy:  -501.03896435765716
    Total Energy =                       -501.0389643576568233
  Basis Set: 6-31G*
  Basis Set:
  @DF-RHF Final Energy:  -501.03897543873643
    Total Energy =                       -501.0389754387360881
  Basis Set: 6-31G*
  Basis Set:
  Basis Set: 6-31G*
  Basis Set:
  @DF-RHF Final Energy:  -501.03897092092700
    Total Energy =                       -501.0389709209264311
  Basis Set: 6-31G*
  Basis Set:
  Basis Set: 6-31G*
  Basis Set:
  @DF-RHF Final Energy:  -501.03897646160578
    Total Energy =                       -501.0389764616056709
  Basis Set: 6-31G*
  Basis Set:
  Charge       = 0
  Multiplicity = 1
  Basis Set: 6-31G*
  Basis Set:

    Orbital Energies (a.u.)
    -----------------------

    Doubly Occupied:

       1A    -20.603362     2A    -20.545183     3A    -11.371996
       4A    -11.280656     5A    -11.234770     6A    -11.218864
       7A    -11.217864     8A    -11.215973     9A    -11.215673
      10A    -11.214106    11A    -11.208653    12A     -1.469058
      13A     -1.362500    14A     -1.097065    15A     -1.065728
      16A     -1.018661    17A     -0.976320    18A     -0.927948
      19A     -0.862306    20A     -0.803693    21A     -0.787584
      22A     -0.763904    23A     -0.701002    24A     -0.682247
      25A     -0.671847    26A     -0.640557    27A     -0.626598
      28A     -0.612174    29A     -0.596805    30A     -0.579427
      31A     -0.561510    32A     -0.555850    33A     -0.534493
      34A     -0.528932    35A     -0.521604    36A     -0.504264
      37A     -0.496231    38A     -0.477720    39A     -0.473343
      40A     -0.462540    41A     -0.455923    42A     -0.447939
      43A     -0.442308    44A     -0.436153

  @DF-RHF Final Energy:  -501.03897643382084

   => Energetics <=

    Nuclear Repulsion Energy =            610.7463150237556420
    One-Electron Energy =               -1892.6279176916282267
    Two-Electron Energy =                 780.8426262340515223
    DFT Exchange-Correlation Energy =       0.0000000000000000
    Empirical Dispersion Energy =           0.0000000000000000
    PCM Polarization Energy =               0.0000000000000000
    EFP Energy =                            0.0000000000000000
    Total Energy =                       -501.0389764338210625
    Molecular point group: c1
  Basis Set: 6-31G*
  Basis Set:

  -Total Gradient:
     Atom            X                  Y                   Z
    ------   -----------------  -----------------  -----------------
       1        0.000000725553     0.000000175797     0.000002426955
       2       -0.000001399778    -0.000003913560    -0.000007400158
       3       -0.000001338480     0.000000322208     0.000001446262
       4        0.000000784169     0.000001397101     0.000001806742
       5        0.000000140013     0.000003616315    -0.000003013913
       6        0.000000251813    -0.000001443905     0.000000538782
       7        0.000000027840     0.000000619996    -0.000001313738
       8       -0.000004990495     0.000000059050    -0.000000807476
       9        0.000002582167     0.000003157539    -0.000000372542
      10        0.000000721686    -0.000002413864     0.000000734373
      11       -0.000276078469    -0.002569115233    -0.000302572441
      12       -0.000007035978    -0.000001402320     0.000002252251
      13        0.000003271774    -0.000001153016    -0.000001407314
      14        0.000286791591     0.002072147272     0.000470272631
      15        0.000172259915     0.001689981599     0.000151908382
      16        0.000000398821    -0.000001812826     0.000000323344
      17       -0.000178620484    -0.001190780321    -0.000313794567
      18        0.000001648396     0.000002210518    -0.000001688064
      19       -0.000000178093     0.000001524931     0.000001456236
      20       -0.000000806387    -0.000003806712    -0.000001471460
      21       -0.000002264463     0.000001046295     0.000002587681
      22        0.000003348869     0.000001297999    -0.000001883653
      23       -0.000000052774    -0.000000492779    -0.000000021373
      24        0.000001294371    -0.000000610291    -0.000000227449
      25       -0.000001558267    -0.000000580608     0.000000141358
      26       -0.000000031249    -0.000000092520     0.000000102897
      27       -0.000000067842     0.000000012562    -0.000000017130
      28        0.000000100415     0.000000068660     0.000000000096
      29        0.000000075349    -0.000000019887    -0.000000006713

  **** Optimization is complete! (in 9 steps) ****
    Final optimized geometry and variables:
    Molecular point group: c1

    Geometry (in Angstrom), charge = 0, multiplicity = 1:

    O            3.230833431799     0.703168880865    -0.512764733800
    C            2.712991404398    -0.212299866692     0.041139070622
    C            1.258747955344    -0.292568586028     0.438037074078
    O            3.367200961445    -1.312671144552     0.391610008546
    C            0.459763317913     0.947688900070     0.043307132751
    H            0.856200349896    -1.195349815872    -0.009313363566
    H            1.225629643575    -0.453563887759     1.512597087332
    C           -0.991525887739     0.928010124769     0.533454260256
    H            0.482036707870     1.059808221613    -1.036619716673
    H            0.958853113388     1.822815562625     0.445255394928
    C           -1.873850580918    -0.155043007828    -0.098407440044
    H           -1.432933639916     1.899615345280     0.321969038654
    H           -1.008110486024     0.819450100148     1.616913776364
    C           -3.356545881202    -0.043841421898     0.321102064563
    H           -1.794859395729    -0.067909161670    -1.180114435788
    H           -1.491778055999    -1.138021888555     0.158495466303
    C           -4.282226377085     0.394431014814    -0.816710433655
    H           -3.452710741492     0.656437107380     1.147907726747
    H           -3.706913126376    -1.000276939161     0.701266584027
    C           -5.740108691221     0.533850364517    -0.381818171480
    H           -3.933161867988     1.342853084371    -1.220931929498
    H           -4.213792062960    -0.325859944591    -1.628914311102
    H           -6.371080102728     0.838775514482    -1.210995094936
    H           -5.845671329189     1.276050415684     0.404513157693
    H           -6.127004277490    -0.407121033986    -0.000516073276
    C            4.746907769101    -1.367275360463     0.078062136207
    H            4.897432359334    -1.291422656511    -0.989226042590
    H            5.093638757010    -2.323595441161     0.437539745339
    H            5.280459652236    -0.566577170185     0.569734585920

  Mulliken Charges: (a.u.)
   Center  Symbol    Alpha    Beta     Spin     Total
       1     O     4.28595  4.28595  0.00000 -0.57190
       2     C     2.60481  2.60481  0.00000  0.79037
       3     C     3.20966  3.20966  0.00000 -0.41932
       4     O     4.30745  4.30745  0.00000 -0.61489
       5     C     3.15441  3.15441  0.00000 -0.30882
       6     H     0.39896  0.39896  0.00000  0.20208
       7     H     0.40119  0.40119  0.00000  0.19762
       8     C     3.15863  3.15863  0.00000 -0.31726
       9     H     0.41313  0.41313  0.00000  0.17374
      10     H     0.40874  0.40874  0.00000  0.18251
      11     C     3.15821  3.15821  0.00000 -0.31643
      12     H     0.41833  0.41833  0.00000  0.16334
      13     H     0.42338  0.42338  0.00000  0.15323
      14     C     3.15419  3.15419  0.00000 -0.30838
      15     H     0.42017  0.42017  0.00000  0.15966
      16     H     0.42053  0.42053  0.00000  0.15894
      17     C     3.15307  3.15307  0.00000 -0.30614
      18     H     0.42091  0.42091  0.00000  0.15819
      19     H     0.42135  0.42135  0.00000  0.15731
      20     C     3.24007  3.24007  0.00000 -0.48014
      21     H     0.42292  0.42292  0.00000  0.15415
      22     H     0.42228  0.42228  0.00000  0.15543
      23     H     0.41908  0.41908  0.00000  0.16185
      24     H     0.42159  0.42159  0.00000  0.15681
      25     H     0.42185  0.42185  0.00000  0.15629
      26     C     3.09240  3.09240  0.00000 -0.18480
      27     H     0.40909  0.40909  0.00000  0.18182
      28     H     0.40852  0.40852  0.00000  0.18297
      29     H     0.40913  0.40913  0.00000  0.18175

   Total alpha = 44.00000, Total beta = 44.00000, Total charge =  0.00000
