  ==> Input File <==

--------------------------------------------------------------------------
set {
	reference rhf
	basis 6-31G*
}

set_num_threads( 4 )
memory 2 gb

molecule MOL {
0 1

H	 3.301756	 -0.418749	 -0.016088
C	 2.241448	 -0.239425	 -0.012629
C	 1.434719	 -0.889273	 0.913516
C	 1.688606	 0.637495	 -0.930973
H	 1.871313	 -1.568501	 1.623137
C	 0.072653	 -0.661268	 0.920725
H	 2.315793	 1.138329	 -1.645847
C	 0.322016	 0.865381	 -0.922712
H	 -0.568075	 -1.153411	 1.628124
C	 -0.488460	 0.219100	 0.000000
H	 -0.113633	 1.545921	 -1.634065
C	 -1.949954	 0.470334	 0.000000
O	 -2.781584	 -0.381627	 0.000000
H	 -2.238022	 1.526388	 0.000000

	symmetry c1
}
set optking {
	frozen_dihedral = ("
		8 10 12 14
	")
}

ee = optimize('scf')
oeprop('DIPOLE', 'QUADRUPOLE', 'MULLIKEN_CHARGES')
f=open( 'psi4out.xyz', 'w' )
f.write( "14  " )
f.write( str(ee) + "\n" )
f.write( MOL.save_string_xyz() )
f.close()
--------------------------------------------------------------------------

    Molecular point group: c1
  Charge       = 0
  Multiplicity = 1
  Basis Set: 6-31G*
  Basis Set:
  @DF-RHF Final Energy:  -343.42478475224266
    Total Energy =                       -343.4247847522428856
    Molecular point group: c1
  Basis Set: 6-31G*
  Basis Set:
  Basis Set: 6-31G*
  Basis Set:
  @DF-RHF Final Energy:  -343.42298989517735
    Total Energy =                       -343.4229898951773521
  Basis Set: 6-31G*
  Basis Set:
  Basis Set: 6-31G*
  Basis Set:
  @DF-RHF Final Energy:  -343.42564035383714
    Total Energy =                       -343.4256403538372524
  Basis Set: 6-31G*
  Basis Set:
  Basis Set: 6-31G*
  Basis Set:
  @DF-RHF Final Energy:  -343.42571663461609
    Total Energy =                       -343.4257166346158101
  Basis Set: 6-31G*
  Basis Set:
  Basis Set: 6-31G*
  Basis Set:
  @DF-RHF Final Energy:  -343.42571787451971
    Total Energy =                       -343.4257178745200463
  Basis Set: 6-31G*
  Basis Set:
  Charge       = 0
  Multiplicity = 1
  Basis Set: 6-31G*
  Basis Set:

    Orbital Energies (a.u.)
    -----------------------

    Doubly Occupied:

       1A    -20.567193     2A    -11.333381     3A    -11.251413
       4A    -11.248344     5A    -11.247245     6A    -11.246505
       7A    -11.244142     8A    -11.242567     9A     -1.406907
      10A     -1.169729    11A     -1.045525    12A     -1.029965
      13A     -0.887849    14A     -0.841976    15A     -0.792705
      16A     -0.720639    17A     -0.676661    18A     -0.651805
      19A     -0.628405    20A     -0.617069    21A     -0.601530
      22A     -0.542695    23A     -0.526529    24A     -0.506747
      25A     -0.502606    26A     -0.422180    27A     -0.347879
      28A     -0.346018

  @DF-RHF Final Energy:  -343.42571815420627

   => Energetics <=

    Nuclear Repulsion Energy =            323.0556252278189504
    One-Electron Energy =               -1105.6702677810612840
    Two-Electron Energy =                 439.1889243990361820
    DFT Exchange-Correlation Energy =       0.0000000000000000
    Empirical Dispersion Energy =           0.0000000000000000
    PCM Polarization Energy =               0.0000000000000000
    EFP Energy =                            0.0000000000000000
    Total Energy =                       -343.4257181542061517
    Molecular point group: c1
  Basis Set: 6-31G*
  Basis Set:

  -Total Gradient:
     Atom            X                  Y                   Z
    ------   -----------------  -----------------  -----------------
       1        0.000001215612    -0.000002690437     0.000000856008
       2       -0.000001459796     0.000002669998    -0.000008831071
       3        0.000000069329     0.000008850585     0.000004233806
       4        0.000015218756    -0.000010481870     0.000005657571
       5        0.000003703896     0.000001711025    -0.000003121360
       6        0.000014472555     0.000018289496     0.000010631689
       7        0.000001651937    -0.000001095136     0.000002712800
       8       -0.000580014855    -0.004878025219    -0.003794919229
       9        0.000000303744     0.000008660869     0.000005596670
      10        0.000780028904     0.007212666272     0.007982468537
      11       -0.000001095810     0.000005725495     0.000005877787
      12       -0.000040947085    -0.002717597587    -0.011822131189
      13       -0.000010889508     0.000026353998    -0.000002326890
      14       -0.000182257676     0.000324962509     0.007613294870

  **** Optimization is complete! (in 6 steps) ****
    Final optimized geometry and variables:
    Molecular point group: c1

    Geometry (in Angstrom), charge = 0, multiplicity = 1:

    H            3.294991110673    -0.441250226733    -0.031220696013
    C            2.237305971499    -0.247672051542    -0.022736001758
    C            1.424464084275    -0.887599240809     0.901979758790
    C            1.689413613023     0.634985074147    -0.939196244465
    H            1.851371197939    -1.577701078892     1.607073824231
    C            0.061897767932    -0.650213449974     0.906440100455
    H            2.317196867243     1.119199949458    -1.665093710126
    C            0.328464658564     0.892236570063    -0.918159324292
    H           -0.580884857148    -1.162532256928     1.598219901583
    C           -0.486279175444     0.262285180001     0.012720596407
    H           -0.097484173172     1.583991682068    -1.624811364971
    C           -1.962684696258     0.465560429082    -0.028761958939
    O           -2.752790816097    -0.416987507974     0.078222088778
    H           -2.300614706287     1.504947772002    -0.081224724903

  Mulliken Charges: (a.u.)
   Center  Symbol    Alpha    Beta     Spin     Total
       1     H     0.39503  0.39503  0.00000  0.20993
       2     C     3.09425  3.09425  0.00000 -0.18850
       3     C     3.10240  3.10240  0.00000 -0.20480
       4     C     3.10139  3.10139  0.00000 -0.20278
       5     H     0.39456  0.39456  0.00000  0.21088
       6     C     3.09183  3.09183  0.00000 -0.18367
       7     H     0.39518  0.39518  0.00000  0.20964
       8     C     3.10295  3.10295  0.00000 -0.20589
       9     H     0.38371  0.38371  0.00000  0.23258
      10     C     3.04231  3.04231  0.00000 -0.08463
      11     H     0.39392  0.39392  0.00000  0.21215
      12     C     2.84522  2.84522  0.00000  0.30956
      13     O     4.23377  4.23377  0.00000 -0.46754
      14     H     0.42347  0.42347  0.00000  0.15307

   Total alpha = 28.00000, Total beta = 28.00000, Total charge =  0.00000
