  ==> Input File <==

--------------------------------------------------------------------------
set {
	reference rhf
	basis 6-31G*
}

set_num_threads( 4 )
memory 2 gb

molecule MOL {
0 1

H	 3.089270	 -1.380733	 0.000000
O	 2.178328	 -1.639175	 0.000000
C	 1.368216	 -0.558384	 0.000000
C	 1.391108	 0.388798	 -1.015691
C	 0.492856	 -0.412920	 1.062081
H	 2.073098	 0.273711	 -1.841330
C	 0.539495	 1.479771	 -0.968751
H	 0.474156	 -1.143810	 1.847272
C	 -0.356390	 0.682201	 1.101431
H	 0.566325	 2.206191	 -1.760567
C	 -0.338571	 1.633111	 0.088897
C	 -1.299322	 0.844592	 2.239578
H	 -1.000937	 2.479749	 0.127376
O	 -1.390917	 0.087911	 3.152590
H	 -1.931953	 1.735997	 2.190342

	symmetry c1
}
set optking {
	frozen_dihedral = ("
		4 3 2 1
	")
}

ee = optimize('scf')
oeprop('DIPOLE', 'QUADRUPOLE', 'MULLIKEN_CHARGES')
f=open( 'psi4out.xyz', 'w' )
f.write( "15  " )
f.write( str(ee) + "\n" )
f.write( MOL.save_string_xyz() )
f.close()
--------------------------------------------------------------------------

    Molecular point group: c1
  Charge       = 0
  Multiplicity = 1
  Basis Set: 6-31G*
  Basis Set:
  @DF-RHF Final Energy:  -418.28290832941150
    Total Energy =                       -418.2829083294116117
    Molecular point group: c1
  Basis Set: 6-31G*
  Basis Set:
  Basis Set: 6-31G*
  Basis Set:
  @DF-RHF Final Energy:  -418.28331942954782
    Total Energy =                       -418.2833194295479871
  Basis Set: 6-31G*
  Basis Set:
  Basis Set: 6-31G*
  Basis Set:
  @DF-RHF Final Energy:  -418.28298091813110
    Total Energy =                       -418.2829809181308747
  Basis Set: 6-31G*
  Basis Set:
  Basis Set: 6-31G*
  Basis Set:
  @DF-RHF Final Energy:  -418.28343448118579
    Total Energy =                       -418.2834344811856226
  Basis Set: 6-31G*
  Basis Set:
  Basis Set: 6-31G*
  Basis Set:
  @DF-RHF Final Energy:  -418.28344140907899
    Total Energy =                       -418.2834414090783639
  Basis Set: 6-31G*
  Basis Set:
  Charge       = 0
  Multiplicity = 1
  Basis Set: 6-31G*
  Basis Set:

    Orbital Energies (a.u.)
    -----------------------

    Doubly Occupied:

       1A    -20.590844     2A    -20.564537     3A    -11.333108
       4A    -11.305611     5A    -11.252550     6A    -11.251693
       7A    -11.250769     8A    -11.249957     9A    -11.242425
      10A     -1.407787    11A     -1.405097    12A     -1.170101
      13A     -1.048819    14A     -1.026591    15A     -0.897897
      16A     -0.844920    17A     -0.806095    18A     -0.737926
      19A     -0.699070    20A     -0.683741    21A     -0.645027
      22A     -0.635705    23A     -0.617318    24A     -0.606109
      25A     -0.555896    26A     -0.546412    27A     -0.535848
      28A     -0.502695    29A     -0.486316    30A     -0.423656
      31A     -0.352462    32A     -0.337363

  @DF-RHF Final Energy:  -418.28344231744273

   => Energetics <=

    Nuclear Repulsion Energy =            402.7047266242690853
    One-Electron Energy =               -1367.9476450798422320
    Two-Electron Energy =                 546.9594761381306398
    DFT Exchange-Correlation Energy =       0.0000000000000000
    Empirical Dispersion Energy =           0.0000000000000000
    PCM Polarization Energy =               0.0000000000000000
    EFP Energy =                            0.0000000000000000
    Total Energy =                       -418.2834423174424501
    Molecular point group: c1
  Basis Set: 6-31G*
  Basis Set:

  -Total Gradient:
     Atom            X                  Y                   Z
    ------   -----------------  -----------------  -----------------
       1        0.000083364362     0.000000363227     0.001649647173
       2       -0.000449122779    -0.000457243305    -0.002338486532
       3        0.001210155667     0.001173202676     0.001183395067
       4       -0.000813399029    -0.000762660655    -0.000550582215
       5       -0.000024265909     0.000002583691     0.000023310291
       6       -0.000002467780    -0.000010787799    -0.000002750412
       7       -0.000080319188     0.000133828332     0.000101089727
       8       -0.000001886996    -0.000005036728    -0.000004038663
       9        0.000041401067    -0.000060545482     0.000105716718
      10        0.000004699253    -0.000009314846     0.000004662592
      11        0.000043840411    -0.000019116602    -0.000173846614
      12        0.000008965156     0.000020439877    -0.000031809907
      13       -0.000015004358     0.000000484974     0.000017045852
      14       -0.000002910297    -0.000003055297     0.000008969734
      15       -0.000003049580    -0.000003142059     0.000007677187

  **** Optimization is complete! (in 6 steps) ****
    Final optimized geometry and variables:
    Molecular point group: c1

    Geometry (in Angstrom), charge = 0, multiplicity = 1:

    H            2.787844184403    -1.628085760381    -0.726996906224
    O            1.875221136560    -1.880666828589    -0.689746387792
    C            1.072438366284    -0.778439428805    -0.644929925145
    C            1.089761140933     0.158615413334    -1.671449489326
    C            0.191823626962    -0.637902183305     0.407657372984
    H            1.764757338815     0.021658020722    -2.497704250019
    C            0.240053959416     1.249222538750    -1.630782206216
    H            0.171218407876    -1.367630106420     1.193960751529
    C           -0.670294929586     0.452880553975     0.439335645539
    H            0.261555180654     1.972524119131    -2.425425957181
    C           -0.645196303034     1.398307576626    -0.575009882495
    C           -1.620422477254     0.614267286573     1.569498390772
    H           -1.312254814774     2.242008917019    -0.543722554780
    O           -1.707585683963    -0.135159261304     2.489417498884
    H           -2.263426551880     1.497644049007     1.509774535065

  Mulliken Charges: (a.u.)
   Center  Symbol    Alpha    Beta     Spin     Total
       1     H     0.27070  0.27070  0.00000  0.45859
       2     O     4.38319  4.38319  0.00000 -0.76638
       3     C     2.81390  2.81390  0.00000  0.37220
       4     C     3.11650  3.11650  0.00000 -0.23301
       5     C     3.10780  3.10780  0.00000 -0.21561
       6     H     0.39251  0.39251  0.00000  0.21497
       7     C     3.09986  3.09986  0.00000 -0.19972
       8     H     0.37084  0.37084  0.00000  0.25832
       9     C     3.05014  3.05014  0.00000 -0.10028
      10     H     0.39276  0.39276  0.00000  0.21448
      11     C     3.10942  3.10942  0.00000 -0.21883
      12     C     2.83218  2.83218  0.00000  0.33564
      13     H     0.39230  0.39230  0.00000  0.21541
      14     O     4.24590  4.24590  0.00000 -0.49180
      15     H     0.42200  0.42200  0.00000  0.15600

   Total alpha = 32.00000, Total beta = 32.00000, Total charge =  0.00000
