  ==> Input File <==

--------------------------------------------------------------------------
set {
	reference rhf
	basis 6-31G*
}

set_num_threads( 4 )
memory 2 gb

molecule MOL {
0 1

H	 0.100552	 2.990860	 0.269292
C	 0.701439	 2.073478	 0.301682
C	 0.065331	 0.871482	 -0.349150
O	 1.771068	 2.078365	 0.818972
C	 -1.339775	 0.583656	 0.198860
H	 0.724625	 0.021489	 -0.215893
H	 -0.001416	 1.080339	 -1.415960
C	 -1.808407	 -0.848507	 -0.061364
H	 -2.036183	 1.280685	 -0.256307
H	 -1.360094	 0.788874	 1.267089
H	 -1.828843	 -1.063152	 -1.125336
H	 -2.808409	 -1.004529	 0.329750
H	 -1.153967	 -1.577789	 0.406873

	symmetry c1
}
set optking {
	frozen_dihedral = ("
		6 3 5 9
	")
}

ee = optimize('scf')
oeprop('DIPOLE', 'QUADRUPOLE', 'MULLIKEN_CHARGES')
f=open( 'psi4out.xyz', 'w' )
f.write( "13  " )
f.write( str(ee) + "\n" )
f.write( MOL.save_string_xyz() )
f.close()
--------------------------------------------------------------------------

    Molecular point group: c1
  Charge       = 0
  Multiplicity = 1
  Basis Set: 6-31G*
  Basis Set:
  @DF-RHF Final Energy:  -230.98331441659084
    Total Energy =                       -230.9833144165907015
    Molecular point group: c1
  Basis Set: 6-31G*
  Basis Set:
  Basis Set: 6-31G*
  Basis Set:
  @DF-RHF Final Energy:  -230.98330993979346
    Total Energy =                       -230.9833099397933438
  Basis Set: 6-31G*
  Basis Set:
  Basis Set: 6-31G*
  Basis Set:
  @DF-RHF Final Energy:  -230.98048050943865
    Total Energy =                       -230.9804805094385642
  Basis Set: 6-31G*
  Basis Set:
  Basis Set: 6-31G*
  Basis Set:
  @DF-RHF Final Energy:  -230.98356515961217
    Total Energy =                       -230.9835651596121124
  Basis Set: 6-31G*
  Basis Set:
  Basis Set: 6-31G*
  Basis Set:
  @DF-RHF Final Energy:  -230.98362055747111
    Total Energy =                       -230.9836205574709993
  Basis Set: 6-31G*
  Basis Set:
  Basis Set: 6-31G*
  Basis Set:
  @DF-RHF Final Energy:  -230.98362970434650
    Total Energy =                       -230.9836297043465265
  Basis Set: 6-31G*
  Basis Set:
  Basis Set: 6-31G*
  Basis Set:
  @DF-RHF Final Energy:  -230.98363720483962
    Total Energy =                       -230.9836372048396811
  Basis Set: 6-31G*
  Basis Set:
  Charge       = 0
  Multiplicity = 1
  Basis Set: 6-31G*
  Basis Set:

    Orbital Energies (a.u.)
    -----------------------

    Doubly Occupied:

       1A    -20.562542     2A    -11.327142     3A    -11.239384
       4A    -11.235771     5A    -11.223680     6A     -1.402428
       7A     -1.086583     8A     -0.976234     9A     -0.839331
      10A     -0.795215    11A     -0.675574    12A     -0.639828
      13A     -0.636394    14A     -0.586311    15A     -0.555457
      16A     -0.534934    17A     -0.510355    18A     -0.493387
      19A     -0.482249    20A     -0.410684

  @DF-RHF Final Energy:  -230.98363762863013

   => Energetics <=

    Nuclear Repulsion Energy =            170.3952183035993642
    One-Electron Energy =                -650.3307451704124560
    Two-Electron Energy =                 248.9518892381829289
    DFT Exchange-Correlation Energy =       0.0000000000000000
    Empirical Dispersion Energy =           0.0000000000000000
    PCM Polarization Energy =               0.0000000000000000
    EFP Energy =                            0.0000000000000000
    Total Energy =                       -230.9836376286301913
    Molecular point group: c1
  Basis Set: 6-31G*
  Basis Set:

  -Total Gradient:
     Atom            X                  Y                   Z
    ------   -----------------  -----------------  -----------------
       1        0.000004690284     0.000002647486    -0.000008168621
       2       -0.000021397574     0.000000135822    -0.000008462060
       3        0.001195839223     0.001077424476     0.003344794668
       4       -0.000002573902    -0.000001483767     0.000026467650
       5        0.000409188550     0.002512124874     0.002408333827
       6       -0.000996120373    -0.001285518932    -0.003179784605
       7       -0.000030250839    -0.000009511957     0.000019240047
       8        0.000007331879    -0.000005712708     0.000001006235
       9       -0.000580789595    -0.002281189645    -0.002603925004
      10        0.000011241257    -0.000016300908    -0.000002479915
      11        0.000002118777     0.000005628123     0.000002757228
      12        0.000001778758     0.000004393832    -0.000003373011
      13       -0.000001056445    -0.000002636696     0.000003593560

  **** Optimization is complete! (in 8 steps) ****
    Final optimized geometry and variables:
    Molecular point group: c1

    Geometry (in Angstrom), charge = 0, multiplicity = 1:

    H            0.199786806183     2.034070733260     0.098985523407
    C            0.819120740071     1.129175045451     0.109273397807
    C            0.182701781012    -0.090439142917    -0.502175910150
    O            1.909395708306     1.157538300637     0.581198396390
    C           -1.228220393688    -0.361618778551     0.046751100251
    H            0.837506490620    -0.942604425655    -0.361747141201
    H            0.116139611037     0.078017178120    -1.576731657380
    C           -1.691819923689    -1.787784121056    -0.251298401687
    H           -1.932182049219     0.330473185355    -0.407047426194
    H           -1.253399639697    -0.192177752619     1.119875262188
    H           -1.684312289518    -1.985986516942    -1.319200635380
    H           -2.702047037651    -1.951077084947     0.109357770291
    H           -1.045096718409    -2.517166493743     0.226200568065

  Mulliken Charges: (a.u.)
   Center  Symbol    Alpha    Beta     Spin     Total
       1     H     0.43174  0.43174  0.00000  0.13653
       2     C     2.82947  2.82947  0.00000  0.34107
       3     C     3.20933  3.20933  0.00000 -0.41867
       4     O     4.23787  4.23787  0.00000 -0.47574
       5     C     3.16439  3.16439  0.00000 -0.32878
       6     H     0.39911  0.39911  0.00000  0.20178
       7     H     0.40772  0.40772  0.00000  0.18455
       8     C     3.23997  3.23997  0.00000 -0.47994
       9     H     0.41671  0.41671  0.00000  0.16657
      10     H     0.41333  0.41333  0.00000  0.17334
      11     H     0.41902  0.41902  0.00000  0.16196
      12     H     0.41512  0.41512  0.00000  0.16976
      13     H     0.41623  0.41623  0.00000  0.16755

   Total alpha = 20.00000, Total beta = 20.00000, Total charge = -0.00000
