  ==> Input File <==

--------------------------------------------------------------------------
set {
	reference rhf
	basis 6-31G*
}

set_num_threads( 4 )
memory 2 gb

molecule MOL {
0 1

H	 2.219699	 -3.448347	 -1.290881
C	 2.341329	 -2.543030	 -0.704914
C	 1.087556	 -1.672056	 -0.771417
H	 2.559831	 -2.839058	 0.317265
H	 3.210138	 -2.015813	 -1.088920
C	 1.217350	 -0.386724	 0.039429
H	 0.227250	 -2.225035	 -0.407444
H	 0.878121	 -1.421421	 -1.810027
N	 0.000003	 0.397874	 -0.023260
H	 1.400482	 -0.636932	 1.080977
H	 2.093214	 0.174991	 -0.302208
C	 -1.217365	 -0.386708	 0.039277
H	 -0.000031	 1.072115	 0.718656
C	 -2.452633	 0.504241	 -0.042481
H	 -1.215291	 -1.074557	 -0.802042
H	 -1.269739	 -1.003477	 0.942735
C	 -3.758029	 -0.289423	 -0.010781
H	 -2.394220	 1.093569	 -0.952170
H	 -2.440793	 1.210787	 0.785871
H	 -3.816659	 -0.981993	 -0.845726
H	 -4.617837	 0.370165	 -0.069296
H	 -3.847478	 -0.867502	 0.904682

	symmetry c1
}
set optking {
	frozen_dihedral = ("
		10 6 9 12
	")
}

ee = optimize('scf')
oeprop('DIPOLE', 'QUADRUPOLE', 'MULLIKEN_CHARGES')
f=open( 'psi4out.xyz', 'w' )
f.write( "22  " )
f.write( str(ee) + "\n" )
f.write( MOL.save_string_xyz() )
f.close()
--------------------------------------------------------------------------

    Molecular point group: c1
  Charge       = 0
  Multiplicity = 1
  Basis Set: 6-31G*
  Basis Set:
  @DF-RHF Final Energy:  -290.37104953130904
    Total Energy =                       -290.3710495313091542
    Molecular point group: c1
  Basis Set: 6-31G*
  Basis Set:
  Basis Set: 6-31G*
  Basis Set:
  @DF-RHF Final Energy:  -290.37277558978980
    Total Energy =                       -290.3727755897898533
  Basis Set: 6-31G*
  Basis Set:
  Basis Set: 6-31G*
  Basis Set:
  @DF-RHF Final Energy:  -290.37690941041734
    Total Energy =                       -290.3769094104174542
  Basis Set: 6-31G*
  Basis Set:
  Basis Set: 6-31G*
  Basis Set:
  @DF-RHF Final Energy:  -290.37771088385989
    Total Energy =                       -290.3777108838601180
  Basis Set: 6-31G*
  Basis Set:
  Basis Set: 6-31G*
  Basis Set:
  @DF-RHF Final Energy:  -290.37780402370902
    Total Energy =                       -290.3778040237090181
  Basis Set: 6-31G*
  Basis Set:
  Basis Set: 6-31G*
  Basis Set:
  @DF-RHF Final Energy:  -290.37781808615716
    Total Energy =                       -290.3778180861567080
  Basis Set: 6-31G*
  Basis Set:
  Charge       = 0
  Multiplicity = 1
  Basis Set: 6-31G*
  Basis Set:

    Orbital Energies (a.u.)
    -----------------------

    Doubly Occupied:

       1A    -15.530757     2A    -11.238318     3A    -11.236757
       4A    -11.214471     5A    -11.213684     6A    -11.210086
       7A    -11.209653     8A     -1.200421     9A     -1.057315
      10A     -1.027747    11A     -0.929226    12A     -0.874883
      13A     -0.813420    14A     -0.780670    15A     -0.660314
      16A     -0.636074    17A     -0.621021    18A     -0.610976
      19A     -0.570743    20A     -0.554460    21A     -0.550545
      22A     -0.527734    23A     -0.503810    24A     -0.486614
      25A     -0.478702    26A     -0.472350    27A     -0.461386
      28A     -0.461025    29A     -0.350712

  @DF-RHF Final Energy:  -290.37781874438281

   => Energetics <=

    Nuclear Repulsion Energy =            318.0606009005250598
    One-Electron Energy =               -1021.9090862279950898
    Two-Electron Energy =                 413.4706665830871088
    DFT Exchange-Correlation Energy =       0.0000000000000000
    Empirical Dispersion Energy =           0.0000000000000000
    PCM Polarization Energy =               0.0000000000000000
    EFP Energy =                            0.0000000000000000
    Total Energy =                       -290.3778187443829211
    Molecular point group: c1
  Basis Set: 6-31G*
  Basis Set:

  -Total Gradient:
     Atom            X                  Y                   Z
    ------   -----------------  -----------------  -----------------
       1       -0.000000991436    -0.000007107686     0.000009983553
       2       -0.000001424599    -0.000009662511    -0.000004182544
       3       -0.000014394250     0.000011529719     0.000000198699
       4        0.000009181871     0.000006668799     0.000006347921
       5       -0.000019364038     0.000001117298    -0.000006508011
       6       -0.003845097673    -0.006447997032    -0.002459799441
       7        0.000002319102    -0.000013379865    -0.000010349828
       8       -0.000000681103     0.000007337292     0.000001386298
       9        0.000790399268     0.002414041046     0.006525935637
      10        0.003041303701     0.004762345415     0.000335246624
      11       -0.000018581664     0.000003175219    -0.000000746210
      12        0.000038703161    -0.000695318234    -0.004455402622
      13        0.000008098769    -0.000020132341     0.000037784684
      14        0.000003798057    -0.000006602194     0.000002151170
      15       -0.000002562386    -0.000019434136     0.000005612763
      16       -0.000003235526     0.000019865492     0.000005087226
      17        0.000003748951    -0.000001412132    -0.000003231194
      18        0.000007896364    -0.000006451712     0.000003410698
      19        0.000000538110     0.000001944975     0.000006072540
      20       -0.000000729487    -0.000001958706     0.000000256710
      21        0.000000948923     0.000000519588    -0.000000192393
      22        0.000000125888     0.000000911703     0.000000937720

  **** Optimization is complete! (in 7 steps) ****
    Final optimized geometry and variables:
    Molecular point group: c1

    Geometry (in Angstrom), charge = 0, multiplicity = 1:

    H            2.949626468656    -2.733317972212    -1.112912469547
    C            2.956182579153    -1.815808585819    -0.533369559849
    C            1.581580377340    -1.147076835258    -0.550043498372
    H            3.259383289132    -2.067854238327     0.479024909921
    H            3.716427486780    -1.164218474121    -0.954037503311
    C            1.565172838970     0.133678470805     0.278146111736
    H            0.842277066165    -1.849584795590    -0.177547834208
    H            1.301815133108    -0.906250732088    -1.571998373660
    N            0.347594605014     0.919741543604     0.146699840167
    H            1.802376045698    -0.090931662649     1.322984447887
    H            2.380495092749     0.765408183338    -0.066792837099
    C           -0.920148368805     0.221537267071     0.232546199315
    H            0.368729502377     1.675059137364     0.802287634092
    C           -2.079251027838     1.212111521151     0.173634157282
    H           -1.000889125158    -0.460003442186    -0.606200593011
    H           -1.011384839865    -0.386140411413     1.139969530052
    C           -3.444963639740     0.528001968776     0.211651646196
    H           -1.981930215778     1.803431423721    -0.731732382397
    H           -2.002005454213     1.906953693716     1.008474088190
    H           -3.568613643411    -0.148603354531    -0.629195492028
    H           -4.248039791225     1.256728569053     0.168578178388
    H           -3.572552542871    -0.050044120440     1.122555497017

  Mulliken Charges: (a.u.)
   Center  Symbol    Alpha    Beta     Spin     Total
       1     H     0.41772  0.41772  0.00000  0.16456
       2     C     3.24259  3.24259  0.00000 -0.48517
       3     C     3.16416  3.16416  0.00000 -0.32831
       4     H     0.42134  0.42134  0.00000  0.15732
       5     H     0.42013  0.42013  0.00000  0.15974
       6     C     3.04191  3.04191  0.00000 -0.08381
       7     H     0.41954  0.41954  0.00000  0.16093
       8     H     0.41468  0.41468  0.00000  0.17063
       9     N     3.86345  3.86345  0.00000 -0.72690
      10     H     0.43617  0.43617  0.00000  0.12765
      11     H     0.42103  0.42103  0.00000  0.15794
      12     C     3.04701  3.04701  0.00000 -0.09403
      13     H     0.33276  0.33276  0.00000  0.33449
      14     C     3.15745  3.15745  0.00000 -0.31490
      15     H     0.41911  0.41911  0.00000  0.16178
      16     H     0.43788  0.43788  0.00000  0.12424
      17     C     3.24283  3.24283  0.00000 -0.48567
      18     H     0.41314  0.41314  0.00000  0.17373
      19     H     0.42703  0.42703  0.00000  0.14593
      20     H     0.42067  0.42067  0.00000  0.15866
      21     H     0.41785  0.41785  0.00000  0.16430
      22     H     0.42155  0.42155  0.00000  0.15691

   Total alpha = 29.00000, Total beta = 29.00000, Total charge =  0.00000
