                              Psi4 1.0.54 Driver

  ==> Input File <==

--------------------------------------------------------------------------
set {
	reference rhf
	basis cc-pvtz
}

set_num_threads( 4 )
memory 2 gb

molecule MOL {
0 1

H	 -4.009657	 -0.583495	 -0.475414
C	 -2.947196	 -0.431882	 -0.494516
C	 -2.420854	 0.686768	 -1.115184
C	 -2.108921	 -1.355123	 0.101223
H	 -3.072125	 1.402953	 -1.577380
C	 -1.055488	 0.880904	 -1.139319
H	 -2.518094	 -2.222313	 0.582295
C	 -0.741547	 -1.162137	 0.077892
H	 -0.631127	 1.741311	 -1.615423
C	 -0.210844	 -0.042605	 -0.543005
H	 -0.089572	 -1.875210	 0.538312
C	 1.257094	 0.212812	 -0.596309
O	 1.968286	 -0.725612	 -0.000027
O	 1.743188	 1.159315	 -1.118827
C	 3.373556	 -0.568203	 0.000011
H	 3.695416	 -0.031588	 -0.879663
H	 3.782700	 -1.565294	 -0.000152
H	 3.695405	 -0.031851	 0.879862

	symmetry c1
}
set optking {
	frozen_dihedral = ("
		12 13 15 16
	")
}

ee,wfn = optimize('scf', return_wfn=True)
oeprop( wfn, 'DIPOLE', 'QUADRUPOLE', 'MULLIKEN_CHARGES')
f=open( 'psi4out.xyz', 'w' )
f.write( "18  " )
f.write( str(ee) + "\n" )
f.write( MOL.save_string_xyz() )
f.close()
--------------------------------------------------------------------------

    Molecular point group: c1
  Charge       = 0
  Multiplicity = 1
  Basis Set: CC-PVTZ
  Basis Set:
  @DF-RHF Final Energy:  -457.50881945604294
    Total Energy =                       -457.5088194560432839
    Molecular point group: c1
  Basis Set: CC-PVTZ
  Basis Set:
  Basis Set: CC-PVTZ
  Basis Set:
  @DF-RHF Final Energy:  -457.50418033003905
    Total Energy =                       -457.5041803300391621
  Basis Set: CC-PVTZ
  Basis Set:
  Basis Set: CC-PVTZ
  Basis Set:
  @DF-RHF Final Energy:  -457.50899977621771
    Total Energy =                       -457.5089997762178200
  Basis Set: CC-PVTZ
  Basis Set:
  Basis Set: CC-PVTZ
  Basis Set:
  @DF-RHF Final Energy:  -457.50896503283428
    Total Energy =                       -457.5089650328339985
  Basis Set: CC-PVTZ
  Basis Set:
  Basis Set: CC-PVTZ
  Basis Set:
  @DF-RHF Final Energy:  -457.50878521644256
    Total Energy =                       -457.5087852164423339
  Basis Set: CC-PVTZ
  Basis Set:
  Basis Set: CC-PVTZ
  Basis Set:
  @DF-RHF Final Energy:  -457.50908812147998
    Total Energy =                       -457.5090881214797491
  Basis Set: CC-PVTZ
  Basis Set:
  Charge       = 0
  Multiplicity = 1
  Basis Set: CC-PVTZ
  Basis Set:

    Orbital Energies (a.u.)
    -----------------------

    Doubly Occupied:

       1A    -20.600439     2A    -20.534042     3A    -11.372540
       4A    -11.280597     5A    -11.244776     6A    -11.243324
       7A    -11.242465     8A    -11.239823     9A    -11.235868
      10A    -11.235103    11A     -1.475693    12A     -1.368821
      13A     -1.170551    14A     -1.051687    15A     -1.028847
      16A     -0.981175    17A     -0.862975    18A     -0.838246
      19A     -0.780923    20A     -0.745115    21A     -0.688209
      22A     -0.680192    23A     -0.676253    24A     -0.634232
      25A     -0.629925    26A     -0.601123    27A     -0.588202
      28A     -0.567635    29A     -0.529309    30A     -0.520206
      31A     -0.509705    32A     -0.501890    33A     -0.462291
      34A     -0.449414    35A     -0.350092    36A     -0.346048

  @DF-RHF Final Energy:  -457.50908958355825

   => Energetics <=

    Nuclear Repulsion Energy =            493.7984409945467519
    One-Electron Energy =               -1602.0795871438576796
    Two-Electron Energy =                 650.7720565657525640
    DFT Exchange-Correlation Energy =       0.0000000000000000
    Empirical Dispersion Energy =           0.0000000000000000
    PCM Polarization Energy =               0.0000000000000000
    EFP Energy =                            0.0000000000000000
    Total Energy =                       -457.5090895835583069
    Molecular point group: c1
  Basis Set: CC-PVTZ
  Basis Set:

  -Total Gradient:
     Atom            X                  Y                   Z
    ------   -----------------  -----------------  -----------------
       1        0.000003272694    -0.000002232375     0.000002255419
       2        0.000008689056     0.000008181235    -0.000005731344
       3       -0.000007544308    -0.000008155604     0.000006862179
       4        0.000000586529    -0.000009174739     0.000004718069
       5        0.000002579380     0.000000809146    -0.000000555825
       6        0.000005865738     0.000003651771    -0.000000330670
       7       -0.000001423918     0.000000167342    -0.000000630118
       8       -0.000018970306    -0.000001353177     0.000006498550
       9       -0.000001199613    -0.000002506720    -0.000000274799
      10       -0.000018542204    -0.000004055547    -0.000002270782
      11       -0.000010116269     0.000004950741    -0.000003783437
      12        0.000012152818    -0.000921797631    -0.001142822775
      13        0.000012033055     0.001880496285     0.001752452927
      14        0.000007863997    -0.000050424118     0.000053498919
      15        0.000138858971    -0.002490540506    -0.001218958647
      16       -0.000059884194     0.001586280940     0.000553605526
      17        0.000011399230     0.000006856646    -0.000002799949
      18       -0.000085620655    -0.000001153691    -0.000001733242

  **** Optimization is complete! (in 7 steps) ****
    Final optimized geometry and variables:
    Molecular point group: c1

    Geometry (in Angstrom), charge = 0, multiplicity = 1:

    H           -4.041028542710    -0.215079185431     0.129516380974
    C           -2.972635244017    -0.128680589168     0.071867014522
    C           -2.401160938728     0.844977921345    -0.727639394579
    C           -2.171675154216    -0.990475397808     0.796855640708
    H           -3.023333081619     1.513835969072    -1.290093273968
    C           -1.028259479003     0.955507522977    -0.801073653906
    H           -2.615520867195    -1.745226484345     1.416775797107
    C           -0.796669491152    -0.881108870763     0.724228848506
    H           -0.569514832517     1.703723082285    -1.414927689894
    C           -0.220801070962     0.092886910085    -0.075775138417
    H           -0.173919315967    -1.547013080028     1.284792451325
    C            1.257889498954     0.254227619595    -0.190727325276
    O            1.927095821272    -0.613291506496     0.545540335312
    O            1.777246489601     1.075593864469    -0.869110646506
    C            3.340881598154    -0.590279067051     0.497536374472
    H            3.687499936854    -0.253778769598    -0.464819042105
    H            3.671872924452    -1.596609440443     0.697773559813
    H            3.717355200960     0.077131741416     1.260519987231

  Mulliken Charges: (a.u.)
   Center  Symbol    Alpha    Beta     Spin     Total
       1     H     0.42032  0.42032  0.00000  0.15935
       2     C     3.06975  3.06975  0.00000 -0.13951
       3     C     3.07554  3.07554  0.00000 -0.15108
       4     C     3.07493  3.07493  0.00000 -0.14985
       5     H     0.42044  0.42044  0.00000  0.15913
       6     C     3.07588  3.07588  0.00000 -0.15177
       7     H     0.42193  0.42193  0.00000  0.15614
       8     C     3.08203  3.08203  0.00000 -0.16406
       9     H     0.40650  0.40650  0.00000  0.18700
      10     C     3.01637  3.01637  0.00000 -0.03273
      11     H     0.41115  0.41115  0.00000  0.17769
      12     C     2.77759  2.77759  0.00000  0.44482
      13     O     4.14937  4.14937  0.00000 -0.29874
      14     O     4.21161  4.21161  0.00000 -0.42322
      15     C     3.03892  3.03892  0.00000 -0.07784
      16     H     0.44474  0.44474  0.00000  0.11052
      17     H     0.44742  0.44742  0.00000  0.10516
      18     H     0.45551  0.45551  0.00000  0.08898

   Total alpha = 36.00000, Total beta = 36.00000, Total charge = -0.00000

*** Psi4 exiting successfully. Buy a developer a beer!
