  ==> Input File <==

--------------------------------------------------------------------------
set {
	reference rhf
	basis cc-pvtz
}

set_num_threads( 4 )
memory 2 gb

molecule MOL {
0 1

O	 0.556314	 1.252433	 -0.706887
C	 0.449281	 0.121213	 -0.374120
C	 1.576390	 -0.879048	 -0.319671
O	 -0.695554	 -0.422406	 0.000602
C	 2.917914	 -0.301845	 -0.741717
H	 1.292267	 -1.717094	 -0.946490
H	 1.613755	 -1.265675	 0.692781
H	 2.880677	 0.067574	 -1.757769
H	 3.685691	 -1.063659	 -0.682500
H	 3.205104	 0.523114	 -0.103602
C	 -1.852370	 0.402254	 0.000718
C	 -3.063338	 -0.501097	 -0.000437
H	 -1.831732	 1.039442	 -0.872158
H	 -1.832493	 1.038301	 0.874430
H	 -3.071944	 -1.133732	 -0.879113
H	 -3.966302	 0.097976	 -0.000483
H	 -3.072764	 -1.134834	 0.877435

	symmetry c1
}
set optking {
	frozen_dihedral = ("
		2 4 11 13
	")
}

ee = optimize('scf')
oeprop('DIPOLE', 'QUADRUPOLE', 'MULLIKEN_CHARGES')
f=open( 'psi4out.xyz', 'w' )
f.write( "17  " )
f.write( str(ee) + "\n" )
f.write( MOL.save_string_xyz() )
f.close()
--------------------------------------------------------------------------

    Molecular point group: c1
  Charge       = 0
  Multiplicity = 1
  Basis Set: CC-PVTZ
  Basis Set:
  @DF-RHF Final Energy:  -345.04002423859225
    Total Energy =                       -345.0400242385920819
    Molecular point group: c1
  Basis Set: CC-PVTZ
  Basis Set:
  Basis Set: CC-PVTZ
  Basis Set:
  @DF-RHF Final Energy:  -345.04006642202825
    Total Energy =                       -345.0400664220283034
  Basis Set: CC-PVTZ
  Basis Set:
  Basis Set: CC-PVTZ
  Basis Set:
  @DF-RHF Final Energy:  -345.03991206043662
    Total Energy =                       -345.0399120604365635
  Basis Set: CC-PVTZ
  Basis Set:
  Basis Set: CC-PVTZ
  Basis Set:
  @DF-RHF Final Energy:  -345.04010977158703
    Total Energy =                       -345.0401097715871401
  Basis Set: CC-PVTZ
  Basis Set:
  Basis Set: CC-PVTZ
  Basis Set:
  @DF-RHF Final Energy:  -345.04011957793534
    Total Energy =                       -345.0401195779350587
  Basis Set: CC-PVTZ
  Basis Set:
  Charge       = 0
  Multiplicity = 1
  Basis Set: CC-PVTZ
  Basis Set:

    Orbital Energies (a.u.)
    -----------------------

    Doubly Occupied:

       1A    -20.593206     2A    -20.532738     3A    -11.363805
       4A    -11.282279     5A    -11.235717     6A    -11.220515
       7A    -11.213690     8A     -1.469838     9A     -1.365016
      10A     -1.070809    11A     -1.032485    12A     -0.912243
      13A     -0.848089    14A     -0.774441    15A     -0.699585
      16A     -0.690494    17A     -0.667237    18A     -0.629968
      19A     -0.585858    20A     -0.573322    21A     -0.558476
      22A     -0.526226    23A     -0.520338    24A     -0.515263
      25A     -0.504394    26A     -0.493912    27A     -0.455144
      28A     -0.439024

  @DF-RHF Final Energy:  -345.04011966981824

   => Energetics <=

    Nuclear Repulsion Energy =            315.1926401964556703
    One-Electron Energy =               -1094.9172931973046161
    Two-Electron Energy =                 434.6845333310307069
    DFT Exchange-Correlation Energy =       0.0000000000000000
    Empirical Dispersion Energy =           0.0000000000000000
    PCM Polarization Energy =               0.0000000000000000
    EFP Energy =                            0.0000000000000000
    Total Energy =                       -345.0401196698182957
    Molecular point group: c1
  Basis Set: CC-PVTZ
  Basis Set:

  -Total Gradient:
     Atom            X                  Y                   Z
    ------   -----------------  -----------------  -----------------
       1        0.000028707620    -0.000001474314    -0.000004352131
       2       -0.000225859032    -0.000332755431    -0.001232240495
       3       -0.000017957856    -0.000003187041    -0.000018013623
       4        0.000511753615     0.000717263513     0.001965139165
       5        0.000001001476     0.000007239177     0.000004877675
       6       -0.000001500163     0.000004860683     0.000008122271
       7       -0.000002941758     0.000006346641     0.000009145834
       8        0.000002258170     0.000001208402    -0.000004157994
       9       -0.000001598142    -0.000000041026    -0.000001330308
      10       -0.000001133451    -0.000001078777    -0.000001471956
      11       -0.000996073466    -0.001462008637    -0.001482064966
      12        0.000002599860     0.000000109867    -0.000002796751
      13        0.000709626217     0.001048751118     0.000769537361
      14       -0.000013639141     0.000008519259    -0.000003457226
      15        0.000001587506    -0.000001495241    -0.000001753415
      16        0.000000432327     0.000001613368    -0.000001265255
      17        0.000002736217     0.000006128441    -0.000003918185

  **** Optimization is complete! (in 6 steps) ****
    Final optimized geometry and variables:
    Molecular point group: c1

    Geometry (in Angstrom), charge = 0, multiplicity = 1:

    O            0.600284653357     1.303197935787    -0.383964595137
    C            0.481681297665     0.169362474316    -0.064546121359
    C            1.600591460910    -0.840734964748    -0.019616515431
    O           -0.666601029801    -0.371388653355     0.304555609970
    C            2.947889161385    -0.269619553487    -0.431432730970
    H            1.311329246201    -1.669237669141    -0.656603402701
    H            1.632152502944    -1.239143325496     0.988464596989
    H            2.916459453323     0.111933446470    -1.443190441701
    H            3.709237341164    -1.038367315841    -0.379178783521
    H            3.240079920948     0.545428650201     0.217035873790
    C           -1.832965216602     0.440371295326     0.287705668142
    C           -3.037405296071    -0.471133855924     0.312766302603
    H           -1.817268357554     1.070116724625    -0.588254893457
    H           -1.813554918330     1.088185801237     1.154807821299
    H           -3.055527058129    -1.109597753191    -0.561622289799
    H           -3.944441275461     0.121732123198     0.323440783844
    H           -3.028586748033    -1.099024593024     1.194767784522

  Mulliken Charges: (a.u.)
   Center  Symbol    Alpha    Beta     Spin     Total
       1     O     4.19745  4.19745  0.00000 -0.39491
       2     C     2.80724  2.80724  0.00000  0.38551
       3     C     3.09413  3.09413  0.00000 -0.18825
       4     O     4.15217  4.15217  0.00000 -0.30434
       5     C     3.13981  3.13981  0.00000 -0.27962
       6     H     0.44199  0.44199  0.00000  0.11602
       7     H     0.44133  0.44133  0.00000  0.11733
       8     H     0.44854  0.44854  0.00000  0.10292
       9     H     0.45060  0.45060  0.00000  0.09881
      10     H     0.44840  0.44840  0.00000  0.10320
      11     C     2.98254  2.98254  0.00000  0.03492
      12     C     3.13263  3.13263  0.00000 -0.26526
      13     H     0.44944  0.44944  0.00000  0.10111
      14     H     0.45633  0.45633  0.00000  0.08734
      15     H     0.45169  0.45169  0.00000  0.09663
      16     H     0.45446  0.45446  0.00000  0.09109
      17     H     0.45125  0.45125  0.00000  0.09750

   Total alpha = 28.00000, Total beta = 28.00000, Total charge = -0.00000
