  ==> Input File <==

--------------------------------------------------------------------------
set {
	reference rhf
	basis 6-31G*
}

set_num_threads( 4 )
memory 2 gb

molecule MOL {
0 1

H	 -1.748661	 -2.220942	 -0.005015
C	 -1.343207	 -1.225221	 -0.013879
N	 -0.055091	 -1.100174	 -0.261126
C	 -2.150779	 -0.125890	 0.222726
C	 0.449969	 0.122615	 -0.277109
H	 -3.200618	 -0.238980	 0.422496
N	 -1.660212	 1.097703	 0.209594
C	 -0.371804	 1.219904	 -0.038265
C	 1.928147	 0.267347	 -0.541394
H	 0.029131	 2.217482	 -0.051283
C	 2.267870	 1.574408	 -1.265406
H	 2.448762	 0.235985	 0.409836
H	 2.276088	 -0.578716	 -1.125593
H	 3.339474	 1.659379	 -1.415212
H	 1.936621	 2.427866	 -0.685439
H	 1.787966	 1.618945	 -2.238042

	symmetry c1
}
set optking {
	frozen_dihedral = ("
		12 9 5 3
	")
}

ee = optimize('scf')
oeprop('DIPOLE', 'QUADRUPOLE', 'MULLIKEN_CHARGES')
f=open( 'psi4out.xyz', 'w' )
f.write( "16  " )
f.write( str(ee) + "\n" )
f.write( MOL.save_string_xyz() )
f.close()
--------------------------------------------------------------------------

    Molecular point group: c1
  Charge       = 0
  Multiplicity = 1
  Basis Set: 6-31G*
  Basis Set:
  @DF-RHF Final Energy:  -340.75455098382866
    Total Energy =                       -340.7545509838287217
    Molecular point group: c1
  Basis Set: 6-31G*
  Basis Set:
  Basis Set: 6-31G*
  Basis Set:
  @DF-RHF Final Energy:  -340.75553944748975
    Total Energy =                       -340.7555394474899799
  Basis Set: 6-31G*
  Basis Set:
  Basis Set: 6-31G*
  Basis Set:
  @DF-RHF Final Energy:  -340.75607051428148
    Total Energy =                       -340.7560705142813049
  Basis Set: 6-31G*
  Basis Set:
  Basis Set: 6-31G*
  Basis Set:
  @DF-RHF Final Energy:  -340.75611545815434
    Total Energy =                       -340.7561154581542837
  Basis Set: 6-31G*
  Basis Set:
  Basis Set: 6-31G*
  Basis Set:
  @DF-RHF Final Energy:  -340.75613975971959
    Total Energy =                       -340.7561397597194741
  Basis Set: 6-31G*
  Basis Set:
  Basis Set: 6-31G*
  Basis Set:
  @DF-RHF Final Energy:  -340.75614261229299
    Total Energy =                       -340.7561426122929333
  Basis Set: 6-31G*
  Basis Set:
  Charge       = 0
  Multiplicity = 1
  Basis Set: 6-31G*
  Basis Set:

    Orbital Energies (a.u.)
    -----------------------

    Doubly Occupied:

       1A    -15.586161     2A    -15.581232     3A    -11.282054
       4A    -11.275197     5A    -11.271520     6A    -11.271118
       7A    -11.233039     8A    -11.223449     9A     -1.312566
      10A     -1.220899    11A     -1.085012    12A     -1.015105
      13A     -0.906859    14A     -0.892690    15A     -0.830111
      16A     -0.714339    17A     -0.708706    18A     -0.654259
      19A     -0.623805    20A     -0.609068    21A     -0.571923
      22A     -0.564092    23A     -0.520432    24A     -0.511585
      25A     -0.505252    26A     -0.481419    27A     -0.428045
      28A     -0.394423    29A     -0.344671

  @DF-RHF Final Energy:  -340.75614297907788

   => Energetics <=

    Nuclear Repulsion Energy =            349.1330706797850212
    One-Electron Energy =               -1152.5403688503381545
    Two-Electron Energy =                 462.6511551914751408
    DFT Exchange-Correlation Energy =       0.0000000000000000
    Empirical Dispersion Energy =           0.0000000000000000
    PCM Polarization Energy =               0.0000000000000000
    EFP Energy =                            0.0000000000000000
    Total Energy =                       -340.7561429790779357
    Molecular point group: c1
  Basis Set: 6-31G*
  Basis Set:

  -Total Gradient:
     Atom            X                  Y                   Z
    ------   -----------------  -----------------  -----------------
       1       -0.000007711128     0.000000249785    -0.000024400385
       2        0.000145613941    -0.000046945952     0.000028826949
       3       -0.000051121301    -0.000093344639     0.000231363587
       4        0.000015193152     0.000112366336     0.000076572670
       5       -0.000080559169     0.000088968496    -0.000391694177
       6       -0.000008830229    -0.000009966206    -0.000038675319
       7       -0.000079693283    -0.000071657804     0.000009240511
       8        0.000122970584    -0.000006019669    -0.000089447085
       9        0.000008362980     0.000313070612     0.000178796838
      10       -0.000007560194     0.000002224511     0.000030783121
      11       -0.000042885723     0.000018812267     0.000005149091
      12        0.000019411565    -0.000282919822    -0.000019103153
      13       -0.000025482295    -0.000010800334     0.000001281942
      14       -0.000012731655    -0.000027435722     0.000007971016
      15        0.000013741104     0.000011256422     0.000000670661
      16       -0.000008718351     0.000002141720    -0.000007336268

  **** Optimization is complete! (in 7 steps) ****
    Final optimized geometry and variables:
    Molecular point group: c1

    Geometry (in Angstrom), charge = 0, multiplicity = 1:

    H           -1.638727016287    -2.495871276311     0.229957280480
    C           -1.257802495380    -1.490449780938     0.235045765443
    N            0.027289590030    -1.331559794191    -0.014284023479
    C           -2.088322298498    -0.415135951522     0.490205002296
    C            0.508632042518    -0.099886111181    -0.014153492102
    H           -3.135080182844    -0.552909086882     0.690667606737
    N           -1.622915135299     0.819199188769     0.494535286856
    C           -0.339300695996     0.975615374703     0.245438710820
    C            1.992059677292     0.054423244613    -0.269393893585
    H            0.029957175733     1.983811288772     0.252060453815
    C            2.405282356093     1.317989833830    -1.026971978941
    H            2.510728112756     0.018305184656     0.686284126004
    H            2.308518968223    -0.824515399888    -0.817354965803
    H            3.468256091156     1.289021203491    -1.240821172186
    H            2.216625826226     2.220563689133    -0.455865122254
    H            1.877038334130     1.401749248614    -1.971411241934

  Mulliken Charges: (a.u.)
   Center  Symbol    Alpha    Beta     Spin     Total
       1     H     0.39388  0.39388  0.00000  0.21225
       2     C     2.99019  2.99019  0.00000  0.01962
       3     N     3.75649  3.75649  0.00000 -0.51298
       4     C     2.99816  2.99816  0.00000  0.00367
       5     C     2.87680  2.87680  0.00000  0.24639
       6     H     0.39437  0.39437  0.00000  0.21126
       7     N     3.73053  3.73053  0.00000 -0.46107
       8     C     2.99525  2.99525  0.00000  0.00950
       9     C     3.16879  3.16879  0.00000 -0.33759
      10     H     0.39380  0.39380  0.00000  0.21239
      11     C     3.24932  3.24932  0.00000 -0.49865
      12     H     0.40689  0.40689  0.00000  0.18623
      13     H     0.40001  0.40001  0.00000  0.19998
      14     H     0.41288  0.41288  0.00000  0.17424
      15     H     0.41886  0.41886  0.00000  0.16228
      16     H     0.41376  0.41376  0.00000  0.17248

   Total alpha = 29.00000, Total beta = 29.00000, Total charge =  0.00000
