  ==> Input File <==

--------------------------------------------------------------------------
set {
	reference rhf
	basis 6-31G*
}

set_num_threads( 1 )
memory 2 gb

molecule MOL {
0 1

H	 -1.735247	 -1.549966	 0.014744
O	 -2.310168	 -0.871793	 -0.309793
C	 -2.026376	 0.340750	 0.341611
C	 -0.673256	 0.843270	 -0.132153
H	 -2.792215	 1.080697	 0.115987
H	 -2.013526	 0.200402	 1.421792
C	 0.486613	 -0.083066	 0.235839
H	 -0.715586	 0.970948	 -1.210718
H	 -0.508072	 1.829858	 0.297090
C	 1.840406	 0.433480	 -0.254303
H	 0.300215	 -1.068318	 -0.178947
H	 0.519509	 -0.203625	 1.318070
C	 3.000220	 -0.489290	 0.118523
H	 1.809207	 0.553576	 -1.335192
H	 2.021860	 1.424500	 0.157276
H	 2.864959	 -1.479103	 -0.307933
H	 3.946603	 -0.099227	 -0.243630
H	 3.080049	 -0.602997	 1.196117

	symmetry c1
}
set optking {
	frozen_dihedral = ("
		14 10 7 11,
		10 7 4 8,
		2 3 4 8
	")
}

ee = energy('scf')
oeprop('DIPOLE', 'QUADRUPOLE', 'MULLIKEN_CHARGES')
f=open( 'psi4out.xyz', 'w' )
f.write( "18  " )
f.write( str(ee) + "\n" )
f.write( MOL.save_string_xyz() )
f.close()
--------------------------------------------------------------------------

    Molecular point group: c1

    Geometry (in Angstrom), charge = 0, multiplicity = 1:

       Center              X                  Y                   Z               Mass
    ------------   -----------------  -----------------  -----------------  -----------------
           H         -1.751266471271    -1.546134497245     0.014590894428     1.007825032070
           O         -2.326187471271    -0.867961497245    -0.309946105572    15.994914619560
           C         -2.042395471271     0.344581502755     0.341457894428    12.000000000000
           C         -0.689275471271     0.847101502755    -0.132306105572    12.000000000000
           H         -2.808234471271     1.084528502755     0.115833894428     1.007825032070
           H         -2.029545471271     0.204233502755     1.421638894428     1.007825032070
           C          0.470593528729    -0.079234497245     0.235685894428    12.000000000000
           H         -0.731605471271     0.974779502755    -1.210871105572     1.007825032070
           H         -0.524091471271     1.833689502755     0.296936894428     1.007825032070
           C          1.824386528729     0.437311502755    -0.254456105572    12.000000000000
           H          0.284195528729    -1.064486497245    -0.179100105572     1.007825032070
           H          0.503489528729    -0.199793497245     1.317916894428     1.007825032070
           C          2.984200528729    -0.485458497245     0.118369894428    12.000000000000
           H          1.793187528729     0.557407502755    -1.335345105572     1.007825032070
           H          2.005840528729     1.428331502755     0.157122894428     1.007825032070
           H          2.848939528729    -1.475271497245    -0.308086105572     1.007825032070
           H          3.930583528729    -0.095395497245    -0.243783105572     1.007825032070
           H          3.064029528729    -0.599165497245     1.195963894428     1.007825032070

  Charge       = 0
  Multiplicity = 1
  Basis Set: 6-31G*
  Basis Set:

    Orbital Energies (a.u.)
    -----------------------

    Doubly Occupied:

       1A    -20.551100     2A    -11.268504     3A    -11.221273
       4A    -11.220033     5A    -11.213553     6A    -11.212138
       7A     -1.359658     8A     -1.083049     9A     -1.012630
      10A     -0.922429    11A     -0.828566    12A     -0.793094
      13A     -0.693477    14A     -0.650581    15A     -0.622045
      16A     -0.602396    17A     -0.576147    18A     -0.566006
      19A     -0.524790    20A     -0.510583    21A     -0.489676
      22A     -0.477080    23A     -0.470135    24A     -0.455453
      25A     -0.424849

  @DF-RHF Final Energy:  -271.17717730752486

   => Energetics <=

    Nuclear Repulsion Energy =            250.1932092037224891
    One-Electron Energy =                -863.2420284117946494
    Two-Electron Energy =                 341.8716419005473881
    DFT Exchange-Correlation Energy =       0.0000000000000000
    Empirical Dispersion Energy =           0.0000000000000000
    PCM Polarization Energy =               0.0000000000000000
    EFP Energy =                            0.0000000000000000
    Total Energy =                       -271.1771773075247438

  Mulliken Charges: (a.u.)
   Center  Symbol    Alpha    Beta     Spin     Total
       1     H     0.27749  0.27749  0.00000  0.44502
       2     O     4.37174  4.37174  0.00000 -0.74348
       3     C     2.99939  2.99939  0.00000  0.00123
       4     C     3.15897  3.15897  0.00000 -0.31795
       5     H     0.41373  0.41373  0.00000  0.17253
       6     H     0.43143  0.43143  0.00000  0.13715
       7     C     3.16132  3.16132  0.00000 -0.32264
       8     H     0.41448  0.41448  0.00000  0.17104
       9     H     0.42603  0.42603  0.00000  0.14794
      10     C     3.15033  3.15033  0.00000 -0.30066
      11     H     0.42756  0.42756  0.00000  0.14488
      12     H     0.42430  0.42430  0.00000  0.15140
      13     C     3.23977  3.23977  0.00000 -0.47955
      14     H     0.42022  0.42022  0.00000  0.15955
      15     H     0.42161  0.42161  0.00000  0.15678
      16     H     0.42153  0.42153  0.00000  0.15695
      17     H     0.41819  0.41819  0.00000  0.16362
      18     H     0.42191  0.42191  0.00000  0.15619

   Total alpha = 25.00000, Total beta = 25.00000, Total charge =  0.00000
