                              Psi4 1.0.54 Driver

  ==> Input File <==

--------------------------------------------------------------------------
set {
	reference rhf
	basis cc-pvtz
}

set_num_threads( 4 )
memory 2 gb

molecule MOL {
0 1

H	 2.641751	 2.072411	 -1.064808
N	 1.874792	 1.436631	 -1.121170
C	 1.860978	 0.530248	 0.016256
H	 1.972707	 0.932256	 -1.977539
C	 0.644130	 -0.381765	 -0.031064
H	 1.822516	 1.131402	 0.918498
H	 2.763398	 -0.078813	 0.084359
C	 -0.678115	 0.376691	 0.025731
H	 0.693998	 -0.977147	 -0.936845
H	 0.693309	 -1.082142	 0.800523
C	 -1.900706	 -0.535531	 -0.022488
H	 -0.725296	 1.079516	 -0.802982
H	 -0.715474	 0.974884	 0.933278
C	 -3.220513	 0.226854	 0.028039
H	 -1.865036	 -1.134397	 -0.928236
H	 -1.857948	 -1.236381	 0.806820
H	 -3.309098	 0.911849	 -0.808725
H	 -4.066838	 -0.449485	 -0.008086
H	 -3.301685	 0.809374	 0.939860

	symmetry c1
}
set optking {
	frozen_dihedral = ("
		6 3 5 9
	")
}

ee,wfn = optimize('scf', return_wfn=True)
oeprop( wfn, 'DIPOLE', 'QUADRUPOLE', 'MULLIKEN_CHARGES')
f=open( 'psi4out.xyz', 'w' )
f.write( "19  " )
f.write( str(ee) + "\n" )
f.write( MOL.save_string_xyz() )
f.close()
--------------------------------------------------------------------------

    Molecular point group: c1
  Charge       = 0
  Multiplicity = 1
  Basis Set: CC-PVTZ
  Basis Set:
  @DF-RHF Final Energy:  -251.44732004712870
    Total Energy =                       -251.4473200471288123
    Molecular point group: c1
  Basis Set: CC-PVTZ
  Basis Set:
  Basis Set: CC-PVTZ
  Basis Set:
  @DF-RHF Final Energy:  -251.44750466234686
    Total Energy =                       -251.4475046623467733
  Basis Set: CC-PVTZ
  Basis Set:
  Basis Set: CC-PVTZ
  Basis Set:
  @DF-RHF Final Energy:  -251.44756457474978
    Total Energy =                       -251.4475645747496628
  Basis Set: CC-PVTZ
  Basis Set:
  Basis Set: CC-PVTZ
  Basis Set:
  @DF-RHF Final Energy:  -251.44756727390828
    Total Energy =                       -251.4475672739083052
  Basis Set: CC-PVTZ
  Basis Set:
  Charge       = 0
  Multiplicity = 1
  Basis Set: CC-PVTZ
  Basis Set:

    Orbital Energies (a.u.)
    -----------------------

    Doubly Occupied:

       1A    -15.527293     2A    -11.238957     3A    -11.208696
       4A    -11.207344     5A    -11.201370     6A    -11.201233
       7A     -1.179092     8A     -1.068218     9A     -0.996570
      10A     -0.902672    11A     -0.811730    12A     -0.781473
      13A     -0.667605    14A     -0.635018    15A     -0.620017
      16A     -0.586328    17A     -0.562629    18A     -0.547746
      19A     -0.531149    20A     -0.492059    21A     -0.480579
      22A     -0.461910    23A     -0.456562    24A     -0.449789
      25A     -0.381886

  @DF-RHF Final Energy:  -251.44756763837253

   => Energetics <=

    Nuclear Repulsion Energy =            249.3410144535509119
    One-Electron Energy =                -833.1813178374853806
    Two-Electron Energy =                 332.3927357455618221
    DFT Exchange-Correlation Energy =       0.0000000000000000
    Empirical Dispersion Energy =           0.0000000000000000
    PCM Polarization Energy =               0.0000000000000000
    EFP Energy =                            0.0000000000000000
    Total Energy =                       -251.4475676383726750
    Molecular point group: c1
  Basis Set: CC-PVTZ
  Basis Set:

  -Total Gradient:
     Atom            X                  Y                   Z
    ------   -----------------  -----------------  -----------------
       1        0.000019309819     0.000016884529    -0.000013868835
       2       -0.000000710203    -0.000022913058     0.000009538835
       3       -0.000352688795     0.000465495651    -0.000344224965
       4       -0.000002142104     0.000010989614    -0.000032592807
       5       -0.000303987150     0.000488269683    -0.000358742838
       6        0.000322949589    -0.000476569634     0.000369663826
       7       -0.000010827460     0.000012508295    -0.000014625616
       8        0.000027281722    -0.000035775465     0.000055037617
       9        0.000349072660    -0.000483098002     0.000327768246
      10       -0.000031053090    -0.000011729254     0.000009758298
      11        0.000009878338     0.000005424732     0.000029380220
      12        0.000011541441     0.000009542276    -0.000026012854
      13       -0.000022643549     0.000008250282     0.000007518356
      14       -0.000021773991    -0.000005888732    -0.000016531756
      15        0.000008081065     0.000006545157     0.000009164176
      16        0.000002287018     0.000007228741    -0.000002979476
      17       -0.000003565639     0.000005484568    -0.000001941323
      18       -0.000004925807     0.000006290305    -0.000006852248
      19        0.000003916134    -0.000006939687     0.000000543146

  **** Optimization is complete! (in 5 steps) ****
    Final optimized geometry and variables:
    Molecular point group: c1

    Geometry (in Angstrom), charge = 0, multiplicity = 1:

    H            2.901305482822     1.770676140641    -0.843088974237
    N            2.140808024603     1.130278017005    -0.925589072658
    C            2.073851473821     0.244492270715     0.226960121945
    H            2.283211457463     0.609576082343    -1.766011058472
    C            0.843769781990    -0.654260192156     0.179215721131
    H            2.033367079478     0.859358020276     1.120106928907
    H            2.959362134086    -0.383761171890     0.323635866854
    C           -0.485764253553     0.092793234811     0.225354320933
    H            0.889823716136    -1.268501666198    -0.718488555685
    H            0.898836629212    -1.345937755861     1.016021257972
    C           -1.696039793750    -0.835230913339     0.170404954507
    H           -0.529902982896     0.799411711289    -0.594732674698
    H           -0.528842566578     0.682614091398     1.138596533052
    C           -3.024793460203    -0.088514489403     0.224117620966
    H           -1.653742796009    -1.426378636582    -0.740719892331
    H           -1.648324469283    -1.543328533854     0.993766676036
    H           -3.117122954034     0.604075686152    -0.605795244020
    H           -3.864040767463    -0.773412868195     0.178809874652
    H           -3.114618424052     0.484171780179     1.141323852591

  Mulliken Charges: (a.u.)
   Center  Symbol    Alpha    Beta     Spin     Total
       1     H     0.42892  0.42892  0.00000  0.14216
       2     N     3.68979  3.68979  0.00000 -0.37957
       3     C     3.03847  3.03847  0.00000 -0.07694
       4     H     0.43101  0.43101  0.00000  0.13799
       5     C     3.09378  3.09378  0.00000 -0.18757
       6     H     0.45661  0.45661  0.00000  0.08678
       7     H     0.45954  0.45954  0.00000  0.08093
       8     C     3.07970  3.07970  0.00000 -0.15940
       9     H     0.45762  0.45762  0.00000  0.08477
      10     H     0.45201  0.45201  0.00000  0.09598
      11     C     3.08400  3.08400  0.00000 -0.16801
      12     H     0.44664  0.44664  0.00000  0.10671
      13     H     0.45912  0.45912  0.00000  0.08175
      14     C     3.14967  3.14967  0.00000 -0.29934
      15     H     0.45610  0.45610  0.00000  0.08779
      16     H     0.45676  0.45676  0.00000  0.08647
      17     H     0.45477  0.45477  0.00000  0.09046
      18     H     0.44979  0.44979  0.00000  0.10041
      19     H     0.45570  0.45570  0.00000  0.08860

   Total alpha = 25.00000, Total beta = 25.00000, Total charge =  0.00000

*** Psi4 exiting successfully. Buy a developer a beer!
