  ==> Input File <==

--------------------------------------------------------------------------
set {
	reference rhf
	basis 6-31G*
}

set_num_threads( 1 )
memory 2 gb

molecule MOL {
0 1

H	 -2.900839	 -0.714609	 -1.032411
O	 -2.310168	 -0.871793	 -0.309793
C	 -2.026376	 0.340750	 0.341611
C	 -0.673256	 0.843270	 -0.132153
H	 -2.792215	 1.080697	 0.115987
H	 -2.013526	 0.200402	 1.421792
C	 0.486613	 -0.083066	 0.235839
H	 -0.715586	 0.970948	 -1.210718
H	 -0.508072	 1.829858	 0.297090
C	 1.840406	 0.433480	 -0.254303
H	 0.300215	 -1.068318	 -0.178947
H	 0.519509	 -0.203625	 1.318070
C	 3.000220	 -0.489290	 0.118523
H	 1.809207	 0.553576	 -1.335192
H	 2.021860	 1.424500	 0.157276
H	 2.864959	 -1.479103	 -0.307933
H	 3.946603	 -0.099227	 -0.243630
H	 3.080049	 -0.602997	 1.196117

	symmetry c1
}
set optking {
	frozen_dihedral = ("
		14 10 7 11,
		10 7 4 8,
		2 3 4 8
	")
}

ee = energy('scf')
oeprop('DIPOLE', 'QUADRUPOLE', 'MULLIKEN_CHARGES')
f=open( 'psi4out.xyz', 'w' )
f.write( "18  " )
f.write( str(ee) + "\n" )
f.write( MOL.save_string_xyz() )
f.close()
--------------------------------------------------------------------------

    Molecular point group: c1

    Geometry (in Angstrom), charge = 0, multiplicity = 1:

       Center              X                  Y                   Z               Mass
    ------------   -----------------  -----------------  -----------------  -----------------
           H         -2.903522921295    -0.720334825213    -1.020583594523     1.007825032070
           O         -2.312851921295    -0.877518825213    -0.297965594523    15.994914619560
           C         -2.029059921295     0.335024174787     0.353438405477    12.000000000000
           C         -0.675939921295     0.837544174787    -0.120325594523    12.000000000000
           H         -2.794898921295     1.074971174787     0.127814405477     1.007825032070
           H         -2.016209921295     0.194676174787     1.433619405477     1.007825032070
           C          0.483929078705    -0.088791825213     0.247666405477    12.000000000000
           H         -0.718269921295     0.965222174787    -1.198890594523     1.007825032070
           H         -0.510755921295     1.824132174787     0.308917405477     1.007825032070
           C          1.837722078705     0.427754174787    -0.242475594523    12.000000000000
           H          0.297531078705    -1.074043825213    -0.167119594523     1.007825032070
           H          0.516825078705    -0.209350825213     1.329897405477     1.007825032070
           C          2.997536078705    -0.495015825213     0.130350405477    12.000000000000
           H          1.806523078705     0.547850174787    -1.323364594523     1.007825032070
           H          2.019176078705     1.418774174787     0.169103405477     1.007825032070
           H          2.862275078705    -1.484828825213    -0.296105594523     1.007825032070
           H          3.943919078705    -0.104952825213    -0.231802594523     1.007825032070
           H          3.077365078705    -0.608722825213     1.207944405477     1.007825032070

  Charge       = 0
  Multiplicity = 1
  Basis Set: 6-31G*
  Basis Set:

    Orbital Energies (a.u.)
    -----------------------

    Doubly Occupied:

       1A    -20.552369     2A    -11.268886     3A    -11.211354
       4A    -11.210567     5A    -11.206703     6A    -11.204820
       7A     -1.360423     8A     -1.074783     9A     -1.008428
      10A     -0.913743    11A     -0.821640    12A     -0.787490
      13A     -0.694884    14A     -0.650251    15A     -0.613259
      16A     -0.593504    17A     -0.573665    18A     -0.550711
      19A     -0.528690    20A     -0.500582    21A     -0.489381
      22A     -0.468798    23A     -0.459076    24A     -0.450397
      25A     -0.422536

  @DF-RHF Final Energy:  -271.17738856581468

   => Energetics <=

    Nuclear Repulsion Energy =            249.3018429947658490
    One-Electron Energy =                -861.7244425905192884
    Two-Electron Energy =                 341.2452110299381047
    DFT Exchange-Correlation Energy =       0.0000000000000000
    Empirical Dispersion Energy =           0.0000000000000000
    PCM Polarization Energy =               0.0000000000000000
    EFP Energy =                            0.0000000000000000
    Total Energy =                       -271.1773885658153631

  Mulliken Charges: (a.u.)
   Center  Symbol    Alpha    Beta     Spin     Total
       1     H     0.27976  0.27976  0.00000  0.44048
       2     O     4.36927  4.36927  0.00000 -0.73854
       3     C     3.00409  3.00409  0.00000 -0.00819
       4     C     3.15515  3.15515  0.00000 -0.31030
       5     H     0.42867  0.42867  0.00000  0.14267
       6     H     0.41953  0.41953  0.00000  0.16093
       7     C     3.15292  3.15292  0.00000 -0.30583
       8     H     0.42549  0.42549  0.00000  0.14902
       9     H     0.42766  0.42766  0.00000  0.14468
      10     C     3.15124  3.15124  0.00000 -0.30248
      11     H     0.40868  0.40868  0.00000  0.18264
      12     H     0.42619  0.42619  0.00000  0.14761
      13     C     3.23892  3.23892  0.00000 -0.47783
      14     H     0.42382  0.42382  0.00000  0.15235
      15     H     0.42502  0.42502  0.00000  0.14996
      16     H     0.42095  0.42095  0.00000  0.15811
      17     H     0.42051  0.42051  0.00000  0.15897
      18     H     0.42213  0.42213  0.00000  0.15574

   Total alpha = 25.00000, Total beta = 25.00000, Total charge =  0.00000
