  ==> Input File <==

--------------------------------------------------------------------------
set {
	reference rhf
	basis 6-31G*
}

set_num_threads( 4 )
memory 2 gb

molecule MOL {
0 1

H	 -2.930392	 0.180219	 2.099449
C	 -1.955358	 0.033354	 1.671885
C	 -1.625136	 -1.174265	 1.066218
C	 -1.012034	 1.039198	 1.715127
H	 -2.347924	 -1.969603	 1.023276
C	 -0.375900	 -1.366238	 0.516898
H	 -1.249691	 1.979913	 2.179519
C	 0.253153	 0.861449	 1.165431
H	 -0.107778	 -2.293812	 0.046204
C	 0.571823	 -0.346043	 0.564188
H	 0.964794	 1.662565	 1.214893
O	 1.765256	 -0.628444	 0.000000
C	 2.778419	 0.335181	 0.000000
H	 2.731280	 0.961222	 -0.884976
H	 3.711703	 -0.207767	 0.000000
H	 2.731280	 0.961222	 0.884976

	symmetry c1
}
set optking {
	frozen_dihedral = ("
		10 12 13 14
	")
}

ee = optimize('scf')
oeprop('DIPOLE', 'QUADRUPOLE', 'MULLIKEN_CHARGES')
f=open( 'psi4out.xyz', 'w' )
f.write( "16  " )
f.write( str(ee) + "\n" )
f.write( MOL.save_string_xyz() )
f.close()
--------------------------------------------------------------------------

    Molecular point group: c1
  Charge       = 0
  Multiplicity = 1
  Basis Set: 6-31G*
  Basis Set:
  @DF-RHF Final Energy:  -344.57913946241695
    Total Energy =                       -344.5791394624167197
    Molecular point group: c1
  Basis Set: 6-31G*
  Basis Set:
  Basis Set: 6-31G*
  Basis Set:
  @DF-RHF Final Energy:  -344.57924670817965
    Total Energy =                       -344.5792467081794825
  Basis Set: 6-31G*
  Basis Set:
  Basis Set: 6-31G*
  Basis Set:
  @DF-RHF Final Energy:  -344.58079870177795
    Total Energy =                       -344.5807987017777805
  Basis Set: 6-31G*
  Basis Set:
  Basis Set: 6-31G*
  Basis Set:
  @DF-RHF Final Energy:  -344.58104289802372
    Total Energy =                       -344.5810428980238385
  Basis Set: 6-31G*
  Basis Set:
  Basis Set: 6-31G*
  Basis Set:
  @DF-RHF Final Energy:  -344.58109869924073
    Total Energy =                       -344.5810986992405560
  Basis Set: 6-31G*
  Basis Set:
  Basis Set: 6-31G*
  Basis Set:
  @DF-RHF Final Energy:  -344.58110139740177
    Total Energy =                       -344.5811013974018238
  Basis Set: 6-31G*
  Basis Set:
  Charge       = 0
  Multiplicity = 1
  Basis Set: 6-31G*
  Basis Set:

    Orbital Energies (a.u.)
    -----------------------

    Doubly Occupied:

       1A    -20.582146     2A    -11.293080     3A    -11.279195
       4A    -11.232968     5A    -11.231423     6A    -11.223995
       7A    -11.219950     8A    -11.219460     9A     -1.410882
      10A     -1.145840    11A     -1.020909    12A     -1.012851
      13A     -0.940454    14A     -0.830932    15A     -0.804642
      16A     -0.719874    17A     -0.663824    18A     -0.661379
      19A     -0.653544    20A     -0.615605    21A     -0.587559
      22A     -0.577719    23A     -0.525515    24A     -0.516919
      25A     -0.507998    26A     -0.478195    27A     -0.456441
      28A     -0.334477    29A     -0.306185

  @DF-RHF Final Energy:  -344.58110222365792

   => Energetics <=

    Nuclear Repulsion Energy =            347.9184912765086892
    One-Electron Energy =               -1156.8912631534935826
    Two-Electron Energy =                 464.3916696533271420
    DFT Exchange-Correlation Energy =       0.0000000000000000
    Empirical Dispersion Energy =           0.0000000000000000
    PCM Polarization Energy =               0.0000000000000000
    EFP Energy =                            0.0000000000000000
    Total Energy =                       -344.5811022236577514
    Molecular point group: c1
  Basis Set: 6-31G*
  Basis Set:

  -Total Gradient:
     Atom            X                  Y                   Z
    ------   -----------------  -----------------  -----------------
       1       -0.000010195851    -0.000011780233    -0.000008983357
       2        0.000034293803     0.000132858085     0.000023963471
       3        0.000095000293    -0.000101312505    -0.000053135164
       4       -0.000090873350    -0.000058188734     0.000049972436
       5       -0.000004860604     0.000007274687     0.000004823958
       6       -0.000102106727    -0.000029216656     0.000035885942
       7        0.000013556903     0.000005024406    -0.000012299393
       8        0.000060370180    -0.000094796467    -0.000066192971
       9        0.000008465512    -0.000003477896    -0.000004620551
      10        0.000702626187    -0.001543806497     0.001896601941
      11        0.000005693248     0.000016564604     0.000001273484
      12       -0.000662145895     0.002056653337    -0.003397798018
      13       -0.001642414199     0.001170710522     0.003582999321
      14        0.001586388375    -0.001577809264    -0.002049847075
      15       -0.000026057544    -0.000000164721    -0.000005346003
      16        0.000032259664     0.000031467333     0.000002701980

  **** Optimization is complete! (in 7 steps) ****
    Final optimized geometry and variables:
    Molecular point group: c1

    Geometry (in Angstrom), charge = 0, multiplicity = 1:

    H           -3.010286715076     0.247701151157     1.448256208309
    C           -2.061157936070     0.135233937383     0.956611786210
    C           -1.711895191347    -1.074543850117     0.368226292824
    C           -1.172871589878     1.190832869195     0.897519352810
    H           -2.393125068588    -1.906119337867     0.404415392748
    C           -0.493070675639    -1.224723904707    -0.260212843130
    H           -1.430262869165     2.136453861616     1.340906303408
    C            0.055966489433     1.056109231676     0.262872966279
    H           -0.208628203578    -2.154967999592    -0.715781301693
    C            0.399089824297    -0.157905142056    -0.311624228184
    H            0.722359749187     1.896368757422     0.212493191619
    O            1.559730713025    -0.380741286317    -0.966473369937
    C            2.681976494906     0.412459501023    -0.691591824627
    H            2.710971402338     1.283513103658    -1.337931321708
    H            3.548393193016    -0.196832649671    -0.908152536362
    H            2.715594354977     0.718413754087     0.346646625064

  Mulliken Charges: (a.u.)
   Center  Symbol    Alpha    Beta     Spin     Total
       1     H     0.40113  0.40113  0.00000  0.19774
       2     C     3.11156  3.11156  0.00000 -0.22313
       3     C     3.09238  3.09238  0.00000 -0.18476
       4     C     3.09156  3.09156  0.00000 -0.18312
       5     H     0.39877  0.39877  0.00000  0.20247
       6     C     3.12526  3.12526  0.00000 -0.25051
       7     H     0.39952  0.39952  0.00000  0.20096
       8     C     3.14103  3.14103  0.00000 -0.28206
       9     H     0.39308  0.39308  0.00000  0.21384
      10     C     2.78510  2.78510  0.00000  0.42979
      11     H     0.39732  0.39732  0.00000  0.20535
      12     O     4.32801  4.32801  0.00000 -0.65602
      13     C     3.09007  3.09007  0.00000 -0.18014
      14     H     0.41910  0.41910  0.00000  0.16181
      15     H     0.40719  0.40719  0.00000  0.18562
      16     H     0.41892  0.41892  0.00000  0.16216

   Total alpha = 29.00000, Total beta = 29.00000, Total charge = -0.00000
