                              Psi4 1.0.54 Driver

  ==> Input File <==

--------------------------------------------------------------------------
set {
	reference rhf
	basis cc-pvtz
}

set_num_threads( 4 )
memory 2 gb

molecule MOL {
0 1

O	 -0.752674	 -1.277304	 -1.147351
C	 -0.569303	 -0.202354	 -0.651795
C	 -1.678288	 0.829625	 -0.649855
N	 0.622280	 0.144970	 -0.099307
H	 -1.378839	 1.731537	 -1.168730
H	 -2.525113	 0.393521	 -1.153038
H	 -1.963320	 1.100613	 0.359252
C	 1.664396	 -0.854993	 0.000772
C	 0.826579	 1.331040	 0.697721
H	 2.462727	 -0.615153	 -0.690869
H	 1.261798	 -1.821849	 -0.240651
H	 2.081615	 -0.891605	 1.003877
H	 1.838343	 1.687280	 0.552595
H	 0.158057	 2.124345	 0.410248
H	 0.691734	 1.135169	 1.759086

	symmetry c1
}
set optking {
	frozen_dihedral = ("
		2 4 8 10
	")
}

ee,wfn = optimize('scf', return_wfn=True)
oeprop( wfn, 'DIPOLE', 'QUADRUPOLE', 'MULLIKEN_CHARGES')
f=open( 'psi4out.xyz', 'w' )
f.write( "15  " )
f.write( str(ee) + "\n" )
f.write( MOL.save_string_xyz() )
f.close()
--------------------------------------------------------------------------

    Molecular point group: c1
  Charge       = 0
  Multiplicity = 1
  Basis Set: CC-PVTZ
  Basis Set:
  @DF-RHF Final Energy:  -286.13458120453004
    Total Energy =                       -286.1345812045302068
    Molecular point group: c1
  Basis Set: CC-PVTZ
  Basis Set:
  Basis Set: CC-PVTZ
  Basis Set:
  @DF-RHF Final Energy:  -286.13504074824789
    Total Energy =                       -286.1350407482482296
  Basis Set: CC-PVTZ
  Basis Set:
  Basis Set: CC-PVTZ
  Basis Set:
  @DF-RHF Final Energy:  -286.13512967451277
    Total Energy =                       -286.1351296745128252
  Basis Set: CC-PVTZ
  Basis Set:
  Basis Set: CC-PVTZ
  Basis Set:
  @DF-RHF Final Energy:  -286.13534620141309
    Total Energy =                       -286.1353462014129718
  Basis Set: CC-PVTZ
  Basis Set:
  @DF-RHF Final Energy:  -286.13540358134446
    Total Energy =                       -286.1354035813445194
  @DF-RHF Final Energy:  -286.13543060556447
    Total Energy =                       -286.1354306055644656
  @DF-RHF Final Energy:  -286.13545235663435
    Total Energy =                       -286.1354523566345165
  @DF-RHF Final Energy:  -286.13544137006880
    Total Energy =                       -286.1354413700687473
  @DF-RHF Final Energy:  -286.13550817706192
    Total Energy =                       -286.1355081770618654
  @DF-RHF Final Energy:  -286.13553214560807
    Total Energy =                       -286.1355321456082947
  @DF-RHF Final Energy:  -286.13554475743126
    Total Energy =                       -286.1355447574312052
  @DF-RHF Final Energy:  -286.13555436724772
    Total Energy =                       -286.1355543672476642
  @DF-RHF Final Energy:  -286.13556496427202
    Total Energy =                       -286.1355649642719072
  @DF-RHF Final Energy:  -286.13558373259593
    Total Energy =                       -286.1355837325958760
  @DF-RHF Final Energy:  -286.13558699630278
    Total Energy =                       -286.1355869963029477
  @DF-RHF Final Energy:  -286.13558857848000
    Total Energy =                       -286.1355885784798261
  @DF-RHF Final Energy:  -286.13558999406973
    Total Energy =                       -286.1355899940696190
  @DF-RHF Final Energy:  -286.13559405154922
    Total Energy =                       -286.1355940515492193
  @DF-RHF Final Energy:  -286.13560350382096
    Total Energy =                       -286.1356035038209029
  @DF-RHF Final Energy:  -286.13550424172081
    Total Energy =                       -286.1355042417208665
  Basis Set: CC-PVTZ
  Basis Set:
  @DF-RHF Final Energy:  -286.13560533211819
    Total Energy =                       -286.1356053321184163
  Basis Set: CC-PVTZ
  Basis Set:
  Basis Set: CC-PVTZ
  Basis Set:
  @DF-RHF Final Energy:  -286.13561015305856
    Total Energy =                       -286.1356101530586216
  Basis Set: CC-PVTZ
  Basis Set:
  Basis Set: CC-PVTZ
  Basis Set:
  @DF-RHF Final Energy:  -286.13561872302517
    Total Energy =                       -286.1356187230248906
  Basis Set: CC-PVTZ
  Basis Set:
  Charge       = 0
  Multiplicity = 1
  Basis Set: CC-PVTZ
  Basis Set:

    Orbital Energies (a.u.)
    -----------------------

    Doubly Occupied:

       1A    -20.502578     2A    -15.578803     3A    -11.335337
       4A    -11.264108     5A    -11.246426     6A    -11.226437
       7A     -1.386644     8A     -1.246617     9A     -1.015098
      10A     -0.973423    11A     -0.921511    12A     -0.739390
      13A     -0.683396    14A     -0.662180    15A     -0.653869
      16A     -0.590705    17A     -0.577964    18A     -0.566877
      19A     -0.561394    20A     -0.548747    21A     -0.530526
      22A     -0.507694    23A     -0.413024    24A     -0.369862

  @DF-RHF Final Energy:  -286.13561881151475

   => Energetics <=

    Nuclear Repulsion Energy =            252.8148927971439832
    One-Electron Energy =                -889.6958005105311713
    Two-Electron Energy =                 350.7452889018722999
    DFT Exchange-Correlation Energy =       0.0000000000000000
    Empirical Dispersion Energy =           0.0000000000000000
    PCM Polarization Energy =               0.0000000000000000
    EFP Energy =                            0.0000000000000000
    Total Energy =                       -286.1356188115148598
    Molecular point group: c1
  Basis Set: CC-PVTZ
  Basis Set:

  -Total Gradient:
     Atom            X                  Y                   Z
    ------   -----------------  -----------------  -----------------
       1        0.000016098704     0.000009923680     0.000014919700
       2       -0.000066635750    -0.000058861331     0.000074123284
       3        0.000002126700     0.000011284943    -0.000014665230
       4        0.000083683612     0.000084906390    -0.000095952498
       5       -0.000008195922    -0.000000156212    -0.000000250497
       6       -0.000000306843     0.000000490886     0.000002257229
       7        0.000003396862    -0.000002504830     0.000002132836
       8       -0.000068504370    -0.000083846069    -0.000102010109
       9       -0.000011114249    -0.000005027754     0.000015109802
      10        0.000045135709     0.000046696967     0.000104320564
      11       -0.000000076948    -0.000001675588    -0.000000039168
      12       -0.000002863175     0.000000913934    -0.000000991088
      13       -0.000002159833    -0.000011445315    -0.000006181614
      14        0.000003824489     0.000002221078     0.000000049670
      15        0.000005591012     0.000007079218     0.000007177116

  **** Optimization is complete! (in 24 steps) ****
    Final optimized geometry and variables:
    Molecular point group: c1

    Geometry (in Angstrom), charge = 0, multiplicity = 1:

    O           -0.752699472239    -1.234684895902    -0.932482749836
    C           -0.590095244779    -0.189502212673    -0.369638514332
    C           -1.652882190157     0.887033846376    -0.456582850128
    N            0.519875386298     0.070445404891     0.366472678232
    H           -1.262609968159     1.795171661566    -0.898753214763
    H           -2.447982391653     0.503728271762    -1.074073334255
    H           -2.047442357185     1.130759074599     0.521931527567
    C            1.588354531479    -0.904274182873     0.412635040839
    C            0.832125984897     1.348150796178     0.958854715895
    H            2.461843244089    -0.544634702819    -0.124103778739
    H            1.257058411978    -1.823725132572    -0.033835820228
    H            1.876383098511    -1.088334153610     1.441654787398
    H            1.560100466070     1.895957163084     0.365659703269
    H           -0.044149938790     1.962065985488     1.072225443974
    H            1.255856785477     1.195011533593     1.944155523167

  Mulliken Charges: (a.u.)
   Center  Symbol    Alpha    Beta     Spin     Total
       1     O     4.22206  4.22206  0.00000 -0.44412
       2     C     2.84649  2.84649  0.00000  0.30702
       3     C     3.16045  3.16045  0.00000 -0.32091
       4     N     3.55926  3.55926  0.00000 -0.11852
       5     H     0.44946  0.44946  0.00000  0.10108
       6     H     0.42851  0.42851  0.00000  0.14298
       7     H     0.44933  0.44933  0.00000  0.10134
       8     C     3.10046  3.10046  0.00000 -0.20092
       9     C     3.09486  3.09486  0.00000 -0.18971
      10     H     0.45798  0.45798  0.00000  0.08404
      11     H     0.42513  0.42513  0.00000  0.14975
      12     H     0.45642  0.45642  0.00000  0.08716
      13     H     0.45402  0.45402  0.00000  0.09196
      14     H     0.44495  0.44495  0.00000  0.11010
      15     H     0.45062  0.45062  0.00000  0.09875

   Total alpha = 24.00000, Total beta = 24.00000, Total charge =  0.00000

*** Psi4 exiting successfully. Buy a developer a beer!
