  ==> Input File <==

--------------------------------------------------------------------------
set {
	reference rhf
	basis 6-31G*
}

set_num_threads( 4 )
memory 2 gb

molecule MOL {
0 1

H	 1.889450	 1.682615	 0.337137
O	 1.002121	 1.337458	 0.354473
C	 1.050492	 0.053836	 0.000068
C	 -0.318135	 -0.576402	 0.000164
O	 2.071092	 -0.488261	 -0.274710
C	 -1.454360	 0.441875	 -0.000474
H	 -0.374042	 -1.230163	 -0.866135
H	 -0.374274	 -1.229227	 0.867154
C	 -2.826123	 -0.230780	 0.000056
H	 -1.357605	 1.085198	 -0.868380
H	 -1.357504	 1.086451	 0.866496
H	 -2.959731	 -0.858053	 -0.876869
H	 -3.619374	 0.509403	 -0.000080
H	 -2.959371	 -0.857318	 0.877556

	symmetry c1
}
set optking {
	frozen_dihedral = ("
		2 3 4 7
	")
}

ee = optimize('scf')
oeprop('DIPOLE', 'QUADRUPOLE', 'MULLIKEN_CHARGES')
f=open( 'psi4out.xyz', 'w' )
f.write( "14  " )
f.write( str(ee) + "\n" )
f.write( MOL.save_string_xyz() )
f.close()
--------------------------------------------------------------------------

    Molecular point group: c1
  Charge       = 0
  Multiplicity = 1
  Basis Set: 6-31G*
  Basis Set:
  @DF-RHF Final Energy:  -305.87714818294705
    Total Energy =                       -305.8771481829471668
    Molecular point group: c1
  Basis Set: 6-31G*
  Basis Set:
  Basis Set: 6-31G*
  Basis Set:
  @DF-RHF Final Energy:  -305.87792395924919
    Total Energy =                       -305.8779239592489603
  Basis Set: 6-31G*
  Basis Set:
  Basis Set: 6-31G*
  Basis Set:
  @DF-RHF Final Energy:  -305.87792695490856
    Total Energy =                       -305.8779269549081619
  Basis Set: 6-31G*
  Basis Set:
  Basis Set: 6-31G*
  Basis Set:
  @DF-RHF Final Energy:  -305.87822380293471
    Total Energy =                       -305.8782238029345990
  Basis Set: 6-31G*
  Basis Set:
  Basis Set: 6-31G*
  Basis Set:
  @DF-RHF Final Energy:  -305.87824342634514
    Total Energy =                       -305.8782434263450796
  Basis Set: 6-31G*
  Basis Set:
  Basis Set: 6-31G*
  Basis Set:
  @DF-RHF Final Energy:  -305.87824889351020
    Total Energy =                       -305.8782488935102606
  Basis Set: 6-31G*
  Basis Set:
  Charge       = 0
  Multiplicity = 1
  Basis Set: 6-31G*
  Basis Set:

    Orbital Energies (a.u.)
    -----------------------

    Doubly Occupied:

       1A    -20.615692     2A    -20.547462     3A    -11.381980
       4A    -11.241646     5A    -11.229795     6A    -11.219428
       7A     -1.476029     8A     -1.364558     9A     -1.085008
      10A     -0.977977    11A     -0.846290    12A     -0.818735
      13A     -0.699378    14A     -0.679500    15A     -0.665604
      16A     -0.617056    17A     -0.590097    18A     -0.563953
      19A     -0.549694    20A     -0.524984    21A     -0.496365
      22A     -0.491954    23A     -0.467793    24A     -0.436755

  @DF-RHF Final Energy:  -305.87824893441348

   => Energetics <=

    Nuclear Repulsion Energy =            240.3865553819732384
    One-Electron Energy =                -893.3541430677156541
    Two-Electron Energy =                 347.0893387513288530
    DFT Exchange-Correlation Energy =       0.0000000000000000
    Empirical Dispersion Energy =           0.0000000000000000
    PCM Polarization Energy =               0.0000000000000000
    EFP Energy =                            0.0000000000000000
    Total Energy =                       -305.8782489344135342
    Molecular point group: c1
  Basis Set: 6-31G*
  Basis Set:

  -Total Gradient:
     Atom            X                  Y                   Z
    ------   -----------------  -----------------  -----------------
       1       -0.000000021934    -0.000000381256     0.000001220091
       2       -0.000038530565     0.000162596553    -0.000522715949
       3        0.000059354569    -0.000116446549     0.000647431159
       4        0.000235580809    -0.000553128484     0.000255645134
       5       -0.000014534989     0.000011828767     0.000004949044
       6       -0.000027845699     0.000008975749    -0.000046400781
       7       -0.000214737430     0.000499562031    -0.000357373128
       8        0.000000960916    -0.000006730205    -0.000000056562
       9        0.000001922338    -0.000001503248     0.000024712631
      10       -0.000002892161    -0.000000076132    -0.000001492328
      11       -0.000001930059    -0.000003847408    -0.000008367848
      12        0.000000063352     0.000009575951    -0.000004763244
      13        0.000003982505    -0.000000135728     0.000008281680
      14       -0.000001371652    -0.000010290041    -0.000001069899

  **** Optimization is complete! (in 7 steps) ****
    Final optimized geometry and variables:
    Molecular point group: c1

    Geometry (in Angstrom), charge = 0, multiplicity = 1:

    H            2.057391386862     1.520165241044     0.295368266440
    O            1.146504219120     1.242087234934     0.313169275730
    C            1.108133415551    -0.045715634675    -0.017847992281
    C           -0.279943262291    -0.641745375908    -0.010428585315
    O            2.093327723412    -0.658222594993    -0.276997600527
    C           -1.446928613235     0.346209436609    -0.006265569539
    H           -0.330073281936    -1.298238622343    -0.872045694152
    H           -0.326227948934    -1.286951560727     0.863649373399
    C           -2.794601293324    -0.373803060740    -0.029303684603
    H           -1.369649073447     1.003576610467    -0.866857111774
    H           -1.384440048460     0.980899711362     0.870351831468
    H           -2.898133642306    -0.990857546835    -0.917184491677
    H           -3.613514358497     0.337907978796    -0.024089046688
    H           -2.911785367590    -1.018824312736     0.836937519039

  Mulliken Charges: (a.u.)
   Center  Symbol    Alpha    Beta     Spin     Total
       1     H     0.26717  0.26717  0.00000  0.46566
       2     O     4.34811  4.34811  0.00000 -0.69621
       3     C     2.62254  2.62254  0.00000  0.75493
       4     C     3.21176  3.21176  0.00000 -0.42352
       5     O     4.28248  4.28248  0.00000 -0.56497
       6     C     3.15390  3.15390  0.00000 -0.30780
       7     H     0.39598  0.39598  0.00000  0.20805
       8     H     0.39734  0.39734  0.00000  0.20532
       9     C     3.24318  3.24318  0.00000 -0.48637
      10     H     0.41417  0.41417  0.00000  0.17167
      11     H     0.40932  0.40932  0.00000  0.18135
      12     H     0.41950  0.41950  0.00000  0.16100
      13     H     0.41456  0.41456  0.00000  0.17088
      14     H     0.41999  0.41999  0.00000  0.16002

   Total alpha = 24.00000, Total beta = 24.00000, Total charge = -0.00000
