  ==> Input File <==

--------------------------------------------------------------------------
set {
	reference rhf
	basis cc-pvtz
}

set_num_threads( 4 )
memory 2 gb

molecule MOL {
0 1

H	 1.128311	 0.207724	 1.465118
C	 1.134565	 0.093781	 0.372499
C	 0.062554	 0.862911	 -0.350953
O	 1.948932	 -0.587720	 -0.146651
C	 -0.268891	 0.264791	 -1.721723
H	 0.375399	 1.895792	 -0.433295
H	 -0.824370	 0.829633	 0.277803
C	 0.871899	 0.384508	 -2.728160
H	 -1.147969	 0.765483	 -2.110443
H	 -0.543870	 -0.779456	 -1.601803
H	 1.137586	 1.422838	 -2.891982
H	 0.589281	 -0.042254	 -3.682960
H	 1.763333	 -0.130683	 -2.387632

	symmetry c1
}
set optking {
	frozen_dihedral = ("
		6 3 2 4
	")
}

ee = optimize('scf')
oeprop('DIPOLE', 'QUADRUPOLE', 'MULLIKEN_CHARGES')
f=open( 'psi4out.xyz', 'w' )
f.write( "13  " )
f.write( str(ee) + "\n" )
f.write( MOL.save_string_xyz() )
f.close()
--------------------------------------------------------------------------

    Molecular point group: c1
  Charge       = 0
  Multiplicity = 1
  Basis Set: CC-PVTZ
  Basis Set:
  @DF-RHF Final Energy:  -231.06748335225527
    Total Energy =                       -231.0674833522550671
    Molecular point group: c1
  Basis Set: CC-PVTZ
  Basis Set:
  Basis Set: CC-PVTZ
  Basis Set:
  @DF-RHF Final Energy:  -231.06949960275227
    Total Energy =                       -231.0694996027521881
  Basis Set: CC-PVTZ
  Basis Set:
  Basis Set: CC-PVTZ
  Basis Set:
  @DF-RHF Final Energy:  -231.06801190433501
    Total Energy =                       -231.0680119043350089
  Basis Set: CC-PVTZ
  Basis Set:
  Basis Set: CC-PVTZ
  Basis Set:
  @DF-RHF Final Energy:  -231.06988322422325
    Total Energy =                       -231.0698832242231049
  Basis Set: CC-PVTZ
  Basis Set:
  Basis Set: CC-PVTZ
  Basis Set:
  @DF-RHF Final Energy:  -231.06993200465539
    Total Energy =                       -231.0699320046552714
  Basis Set: CC-PVTZ
  Basis Set:
  Basis Set: CC-PVTZ
  Basis Set:
  @DF-RHF Final Energy:  -231.06993730489501
    Total Energy =                       -231.0699373048949496
  Basis Set: CC-PVTZ
  Basis Set:
  Charge       = 0
  Multiplicity = 1
  Basis Set: CC-PVTZ
  Basis Set:

    Orbital Energies (a.u.)
    -----------------------

    Doubly Occupied:

       1A    -20.553630     2A    -11.324139     3A    -11.237148
       4A    -11.225468     5A    -11.206146     6A     -1.409421
       7A     -1.078238     8A     -0.973260     9A     -0.848260
      10A     -0.769972    11A     -0.687579    12A     -0.647691
      13A     -0.614461    14A     -0.585207    15A     -0.570244
      16A     -0.524000    17A     -0.497448    18A     -0.484735
      19A     -0.482550    20A     -0.411953

  @DF-RHF Final Energy:  -231.06993796020595

   => Energetics <=

    Nuclear Repulsion Energy =            176.3632381028055534
    One-Electron Energy =                -662.6032492847500635
    Two-Electron Energy =                 255.1700732217384484
    DFT Exchange-Correlation Energy =       0.0000000000000000
    Empirical Dispersion Energy =           0.0000000000000000
    PCM Polarization Energy =               0.0000000000000000
    EFP Energy =                            0.0000000000000000
    Total Energy =                       -231.0699379602060617
    Molecular point group: c1
  Basis Set: CC-PVTZ
  Basis Set:

  -Total Gradient:
     Atom            X                  Y                   Z
    ------   -----------------  -----------------  -----------------
       1        0.000029767614    -0.000007314561    -0.000006231181
       2       -0.002784584655    -0.003518623417     0.000013931509
       3       -0.000602356048     0.002084898589     0.002688703315
       4        0.002091222149     0.002289321316    -0.000321767306
       5       -0.000017712880     0.000001858567     0.000001814918
       6        0.001285583221    -0.000850475725    -0.002377006686
       7       -0.000001943003     0.000014257705    -0.000006789139
       8       -0.000008438221     0.000010949315     0.000008581354
       9        0.000012520422    -0.000003598089    -0.000007348549
      10       -0.000001744414    -0.000006668635    -0.000012915950
      11       -0.000006041498    -0.000003259193     0.000005700042
      12        0.000007610511    -0.000002665646     0.000014578239
      13       -0.000003883195    -0.000008680226    -0.000001250564

  **** Optimization is complete! (in 7 steps) ****
    Final optimized geometry and variables:
    Molecular point group: c1

    Geometry (in Angstrom), charge = 0, multiplicity = 1:

    H            0.328166286272     0.124217141467     2.423182520928
    C            0.341049213003    -0.106688338381     1.350593080521
    C           -0.654552345772     0.670293385081     0.527447918491
    O            1.125207653788    -0.882960392278     0.925690081211
    C           -0.988276909030     0.070499705227    -0.839948777298
    H           -0.226227539389     1.663677602861     0.398720075264
    H           -1.549699003114     0.797949049479     1.127655848334
    C            0.092659790834     0.280331800450    -1.896777874854
    H           -1.912857442450     0.520867936220    -1.185314191142
    H           -1.184458026340    -0.989719000177    -0.724851143772
    H            0.276467632304     1.338342031602    -2.056573352868
    H           -0.215705583537    -0.145094516451    -2.844754030529
    H            1.023239353799    -0.185057442244    -1.605216106685

  Mulliken Charges: (a.u.)
   Center  Symbol    Alpha    Beta     Spin     Total
       1     H     0.44916  0.44916  0.00000  0.10169
       2     C     2.92097  2.92097  0.00000  0.15806
       3     C     3.09613  3.09613  0.00000 -0.19226
       4     O     4.16730  4.16730  0.00000 -0.33461
       5     C     3.08324  3.08324  0.00000 -0.16649
       6     H     0.44645  0.44645  0.00000  0.10710
       7     H     0.44050  0.44050  0.00000  0.11901
       8     C     3.14975  3.14975  0.00000 -0.29949
       9     H     0.44780  0.44780  0.00000  0.10440
      10     H     0.44929  0.44929  0.00000  0.10143
      11     H     0.45973  0.45973  0.00000  0.08053
      12     H     0.44950  0.44950  0.00000  0.10100
      13     H     0.44018  0.44018  0.00000  0.11963

   Total alpha = 20.00000, Total beta = 20.00000, Total charge = -0.00000
