  ==> Input File <==

--------------------------------------------------------------------------
set {
	reference rhf
	basis 6-31G*
}

set_num_threads( 4 )
memory 2 gb

molecule MOL {
0 1

O	 3.225979	 0.970355	 -0.599647
C	 2.701189	 0.057885	 -0.047330
C	 1.245376	 -0.013843	 0.345420
O	 3.347903	 -1.046386	 0.304773
C	 0.455112	 1.231400	 -0.050772
H	 0.838542	 -0.913825	 -0.103701
H	 1.208210	 -0.175333	 1.419774
C	 -0.998893	 1.219485	 0.433193
H	 0.482531	 1.345121	 -1.130325
H	 0.957290	 2.103070	 0.354729
C	 -1.883438	 0.145884	 -0.207175
H	 -1.431207	 2.195402	 0.224832
H	 -1.019646	 1.105716	 1.516076
C	 -3.347647	 0.245583	 0.225435
H	 -1.822183	 0.231698	 -1.291012
H	 -1.510341	 -0.844814	 0.042401
C	 -4.239992	 -0.825570	 -0.404234
H	 -3.732888	 1.230466	 -0.033079
H	 -3.408585	 0.170602	 1.310038
C	 -3.938021	 -1.060571	 -1.883859
H	 -4.120441	 -1.759479	 0.140894
H	 -5.283106	 -0.537845	 -0.290620
H	 -4.586332	 -1.824669	 -2.301537
H	 -2.910840	 -1.383633	 -2.027821
H	 -4.081895	 -0.152389	 -2.462460
C	 4.728119	 -1.109107	 -0.004993
H	 4.882018	 -1.033965	 -1.071845
H	 5.068212	 -2.067527	 0.355250
H	 5.265056	 -0.311663	 0.488280

	symmetry c1
}
set optking {
	frozen_dihedral = ("
		21 17 14 11
	")
}

ee = optimize('scf')
oeprop('DIPOLE', 'QUADRUPOLE', 'MULLIKEN_CHARGES')
f=open( 'psi4out.xyz', 'w' )
f.write( "29  " )
f.write( str(ee) + "\n" )
f.write( MOL.save_string_xyz() )
f.close()
--------------------------------------------------------------------------

    Molecular point group: c1
  Charge       = 0
  Multiplicity = 1
  Basis Set: 6-31G*
  Basis Set:
  @DF-RHF Final Energy:  -501.03879437139926
    Total Energy =                       -501.0387943713993764
    Molecular point group: c1
  Basis Set: 6-31G*
  Basis Set:
  Basis Set: 6-31G*
  Basis Set:
  @DF-RHF Final Energy:  -501.03959755700441
    Total Energy =                       -501.0395975570045266
  Basis Set: 6-31G*
  Basis Set:
  Basis Set: 6-31G*
  Basis Set:
  @DF-RHF Final Energy:  -501.04069079808664
    Total Energy =                       -501.0406907980866436
  Basis Set: 6-31G*
  Basis Set:
  Basis Set: 6-31G*
  Basis Set:
  @DF-RHF Final Energy:  -501.04076472743486
    Total Energy =                       -501.0407647274348619
  Basis Set: 6-31G*
  Basis Set:
  @DF-RHF Final Energy:  -501.04072706748775
    Total Energy =                       -501.0407270674879783
  @DF-RHF Final Energy:  -501.04074625727037
    Total Energy =                       -501.0407462572701434
  Basis Set: 6-31G*
  Basis Set:
  @DF-RHF Final Energy:  -501.04077317225187
    Total Energy =                       -501.0407731722513063
  Basis Set: 6-31G*
  Basis Set:
  Basis Set: 6-31G*
  Basis Set:
  @DF-RHF Final Energy:  -501.04077397988124
    Total Energy =                       -501.0407739798820330
  Basis Set: 6-31G*
  Basis Set:
  Basis Set: 6-31G*
  Basis Set:
  @DF-RHF Final Energy:  -501.04077963466693
    Total Energy =                       -501.0407796346669329
  Basis Set: 6-31G*
  Basis Set:
  Charge       = 0
  Multiplicity = 1
  Basis Set: 6-31G*
  Basis Set:

    Orbital Energies (a.u.)
    -----------------------

    Doubly Occupied:

       1A    -20.603326     2A    -20.545146     3A    -11.371950
       4A    -11.280628     5A    -11.234662     6A    -11.218958
       7A    -11.217478     8A    -11.216228     9A    -11.215451
      10A    -11.214754    11A    -11.209361    12A     -1.469018
      13A     -1.362458    14A     -1.097825    15A     -1.065786
      16A     -1.017782    17A     -0.975540    18A     -0.928285
      19A     -0.872562    20A     -0.804048    21A     -0.776262
      22A     -0.763422    23A     -0.700312    24A     -0.682282
      25A     -0.672057    26A     -0.646403    27A     -0.625910
      28A     -0.607007    29A     -0.601377    30A     -0.585912
      31A     -0.558138    32A     -0.551863    33A     -0.540793
      34A     -0.525885    35A     -0.518879    36A     -0.504433
      37A     -0.501900    38A     -0.477623    39A     -0.472532
      40A     -0.459444    41A     -0.455826    42A     -0.450649
      43A     -0.441895    44A     -0.435664

  @DF-RHF Final Energy:  -501.04078043829975

   => Energetics <=

    Nuclear Repulsion Energy =            617.1807905258173150
    One-Electron Energy =               -1905.4877200553480634
    Two-Electron Energy =                 787.2661490912308864
    DFT Exchange-Correlation Energy =       0.0000000000000000
    Empirical Dispersion Energy =           0.0000000000000000
    PCM Polarization Energy =               0.0000000000000000
    EFP Energy =                            0.0000000000000000
    Total Energy =                       -501.0407804382999757
    Molecular point group: c1
  Basis Set: 6-31G*
  Basis Set:

  -Total Gradient:
     Atom            X                  Y                   Z
    ------   -----------------  -----------------  -----------------
       1        0.000002545438    -0.000006304994    -0.000008191106
       2        0.000002124277     0.000011149332     0.000023788433
       3       -0.000004770900    -0.000001955784    -0.000018592616
       4        0.000002154811    -0.000000418435    -0.000008215048
       5        0.000010049432     0.000001280593     0.000017428831
       6       -0.000005918849    -0.000004816060     0.000000355476
       7       -0.000001517642     0.000003839816    -0.000002504523
       8       -0.000008019967     0.000017158872    -0.000025395351
       9       -0.000001400841    -0.000006913617     0.000008392785
      10        0.000008558451     0.000006199520     0.000000040733
      11       -0.000614003805     0.001944916431    -0.002717748524
      12        0.000003538611     0.000010310540     0.000004203687
      13       -0.000005735993    -0.000008026599    -0.000011845052
      14        0.000093396758    -0.002473134321     0.004609490068
      15        0.000008170475     0.000011390268     0.000013606818
      16       -0.000004119775    -0.000010591095    -0.000008412657
      17        0.003918108179    -0.000902571692    -0.004626592812
      18        0.000004452766    -0.000020368319    -0.000017466992
      19        0.000003408362     0.000021754325     0.000014788396
      20       -0.000019597354    -0.000012263171    -0.000012479920
      21       -0.003388766935     0.001436538310     0.002765429612
      22       -0.000001762647    -0.000009797128     0.000005500557
      23       -0.000000229101    -0.000007450408    -0.000008044607
      24        0.000004744626     0.000005770223    -0.000000434988
      25       -0.000006110951    -0.000005253857     0.000002805712
      26       -0.000000027489    -0.000000572898     0.000000722032
      27        0.000000128913     0.000000001173    -0.000000300285
      28        0.000000701263     0.000000005706    -0.000000382146
      29       -0.000000100134     0.000000123272     0.000000053486

  **** Optimization is complete! (in 10 steps) ****
    Final optimized geometry and variables:
    Molecular point group: c1

    Geometry (in Angstrom), charge = 0, multiplicity = 1:

    O            3.085573867965     1.040356848113    -0.343433180540
    C            2.553509390193     0.102546774822     0.157060579495
    C            1.091785175943     0.011301231358     0.522844459009
    O            3.196283554213    -1.016577067818     0.467009844989
    C            0.305829125526     1.273052141034     0.173119709061
    H            0.693314100963    -0.866877649461     0.025613431942
    H            1.037830224678    -0.200540835042     1.587694530681
    C           -1.155541978655     1.236540777006     0.632820645104
    H            0.350206504215     1.437337289503    -0.899340258868
    H            0.799976745405     2.125291298255     0.626978762509
    C           -2.026964380369     0.189965207694    -0.068375069146
    H           -1.587465733202     2.219807625596     0.460366628863
    H           -1.193120881582     1.075784657229     1.709185478302
    C           -3.500115964589     0.295271420928     0.337036355843
    H           -1.932355702517     0.315759440474    -1.143650398826
    H           -1.663170697812    -0.810675805640     0.157764566424
    C           -4.422331136816    -0.794263683943    -0.232474037002
    H           -3.869442013779     1.268528796848     0.017351282728
    H           -3.579473352736     0.285049956315     1.421581311075
    C           -4.243002163488    -1.102771192244    -1.718430478832
    H           -4.320434070229    -1.702409072548     0.358036960577
    H           -5.449035609689    -0.473038612194    -0.069799581253
    H           -5.002042412018    -1.801450028204    -2.056246338430
    H           -3.275498349730    -1.545461488744    -1.929401774596
    H           -4.333908479031    -0.202155466286    -2.319924620326
    C            4.581310548446    -1.063558856931     0.176548453677
    H            4.751934334892    -0.938193509453    -0.883021497864
    H            4.917135587326    -2.037590450287     0.496675344348
    H            5.109159390325    -0.289777188502     0.715228030893

  Mulliken Charges: (a.u.)
   Center  Symbol    Alpha    Beta     Spin     Total
       1     O     4.28597  4.28597  0.00000 -0.57194
       2     C     2.60486  2.60486  0.00000  0.79029
       3     C     3.20961  3.20961  0.00000 -0.41922
       4     O     4.30748  4.30748  0.00000 -0.61495
       5     C     3.15363  3.15363  0.00000 -0.30726
       6     H     0.39889  0.39889  0.00000  0.20222
       7     H     0.40126  0.40126  0.00000  0.19749
       8     C     3.15657  3.15657  0.00000 -0.31314
       9     H     0.41321  0.41321  0.00000  0.17358
      10     H     0.40881  0.40881  0.00000  0.18237
      11     C     3.15798  3.15798  0.00000 -0.31595
      12     H     0.41833  0.41833  0.00000  0.16335
      13     H     0.42388  0.42388  0.00000  0.15223
      14     C     3.15192  3.15192  0.00000 -0.30384
      15     H     0.41958  0.41958  0.00000  0.16084
      16     H     0.42424  0.42424  0.00000  0.15151
      17     C     3.15239  3.15239  0.00000 -0.30478
      18     H     0.42377  0.42377  0.00000  0.15246
      19     H     0.42167  0.42167  0.00000  0.15665
      20     C     3.24228  3.24228  0.00000 -0.48456
      21     H     0.42301  0.42301  0.00000  0.15398
      22     H     0.42133  0.42133  0.00000  0.15735
      23     H     0.41875  0.41875  0.00000  0.16249
      24     H     0.41977  0.41977  0.00000  0.16046
      25     H     0.42167  0.42167  0.00000  0.15666
      26     C     3.09240  3.09240  0.00000 -0.18480
      27     H     0.40909  0.40909  0.00000  0.18182
      28     H     0.40852  0.40852  0.00000  0.18295
      29     H     0.40913  0.40913  0.00000  0.18174

   Total alpha = 44.00000, Total beta = 44.00000, Total charge =  0.00000
