  ==> Input File <==

--------------------------------------------------------------------------
set {
	reference rhf
	basis cc-pvtz
}

set_num_threads( 4 )
memory 2 gb

molecule MOL {
0 1

O	 0.395927	 1.296676	 -0.000076
C	 0.503051	 0.114301	 -0.000074
C	 -0.701422	 -0.805636	 -0.000109
C	 1.858118	 -0.556123	 0.000212
C	 -1.897429	 -0.261088	 0.764818
H	 -0.961806	 -1.004531	 -1.036486
H	 -0.383401	 -1.761942	 0.407053
H	 -2.230372	 0.679107	 0.345997
H	 -2.720750	 -0.964275	 0.725746
H	 -1.646856	 -0.085017	 1.802336
H	 1.961106	 -1.191101	 -0.872843
H	 2.636688	 0.191085	 -0.000109
H	 1.961070	 -1.190284	 0.873873

	symmetry c1
}
set optking {
	frozen_dihedral = ("
		6 3 2 1
	")
}

ee = optimize('scf')
oeprop('DIPOLE', 'QUADRUPOLE', 'MULLIKEN_CHARGES')
f=open( 'psi4out.xyz', 'w' )
f.write( "13  " )
f.write( str(ee) + "\n" )
f.write( MOL.save_string_xyz() )
f.close()
--------------------------------------------------------------------------

    Molecular point group: c1
  Charge       = 0
  Multiplicity = 1
  Basis Set: CC-PVTZ
  Basis Set:
  @DF-RHF Final Energy:  -231.08209928060219
    Total Energy =                       -231.0820992806021081
    Molecular point group: c1
  Basis Set: CC-PVTZ
  Basis Set:
  Basis Set: CC-PVTZ
  Basis Set:
  @DF-RHF Final Energy:  -231.08150575265759
    Total Energy =                       -231.0815057526576197
  Basis Set: CC-PVTZ
  Basis Set:
  Basis Set: CC-PVTZ
  Basis Set:
  @DF-RHF Final Energy:  -231.08226815856688
    Total Energy =                       -231.0822681585668761
  Basis Set: CC-PVTZ
  Basis Set:
  Basis Set: CC-PVTZ
  Basis Set:
  @DF-RHF Final Energy:  -231.08264897113023
    Total Energy =                       -231.0826489711299132
  Basis Set: CC-PVTZ
  Basis Set:
  Basis Set: CC-PVTZ
  Basis Set:
  @DF-RHF Final Energy:  -231.08266028720669
    Total Energy =                       -231.0826602872066928
  Basis Set: CC-PVTZ
  Basis Set:
  Basis Set: CC-PVTZ
  Basis Set:
  @DF-RHF Final Energy:  -231.08266576994529
    Total Energy =                       -231.0826657699452085
  Basis Set: CC-PVTZ
  Basis Set:
  Charge       = 0
  Multiplicity = 1
  Basis Set: CC-PVTZ
  Basis Set:

    Orbital Energies (a.u.)
    -----------------------

    Doubly Occupied:

       1A    -20.538819     2A    -11.321499     3A    -11.233251
       4A    -11.228025     5A    -11.214649     6A     -1.399497
       7A     -1.062638     8A     -1.001619     9A     -0.879349
      10A     -0.731630    11A     -0.660307    12A     -0.643603
      13A     -0.620234    14A     -0.586529    15A     -0.572210
      16A     -0.526173    17A     -0.518950    18A     -0.506422
      19A     -0.485613    20A     -0.403775

  @DF-RHF Final Energy:  -231.08266593644328

   => Energetics <=

    Nuclear Repulsion Energy =            177.2289847734525665
    One-Electron Energy =                -664.3537171648915773
    Two-Electron Energy =                 256.0420664549957905
    DFT Exchange-Correlation Energy =       0.0000000000000000
    Empirical Dispersion Energy =           0.0000000000000000
    PCM Polarization Energy =               0.0000000000000000
    EFP Energy =                            0.0000000000000000
    Total Energy =                       -231.0826659364432203
    Molecular point group: c1
  Basis Set: CC-PVTZ
  Basis Set:

  -Total Gradient:
     Atom            X                  Y                   Z
    ------   -----------------  -----------------  -----------------
       1       -0.000031890306     0.000051930241    -0.001650844309
       2       -0.000162609442     0.000188850916     0.002337434348
       3        0.001165297758    -0.001510411646    -0.000732081721
       4       -0.000012215739     0.000004974340     0.000001120445
       5       -0.000004209482     0.000012960214     0.000007357314
       6       -0.000972298643     0.001265448114     0.000039419453
       7        0.000010712857     0.000007755591    -0.000001520319
       8       -0.000001627033     0.000004554257     0.000000593191
       9        0.000008771036     0.000000060294    -0.000002759988
      10       -0.000002348879    -0.000000504204     0.000000548145
      11        0.000002508709    -0.000007163005    -0.000002747660
      12       -0.000002852915    -0.000009925593     0.000000807059
      13        0.000002762079    -0.000008529518     0.000002674042

  **** Optimization is complete! (in 7 steps) ****
    Final optimized geometry and variables:
    Molecular point group: c1

    Geometry (in Angstrom), charge = 0, multiplicity = 1:

    O            0.357350693978     1.327768568732    -0.095983438139
    C            0.480276128253     0.147374775635    -0.132552687364
    C           -0.721285553699    -0.779448629362    -0.157609714438
    C            1.839752752577    -0.505664705081    -0.202390929197
    C           -1.938152033037    -0.217052656822     0.566524341352
    H           -0.958420466305    -0.927975011117    -1.208997348349
    H           -0.443709129137    -1.750470739729     0.236387856899
    H           -2.218139015576     0.742527634669     0.156639697769
    H           -2.779307802082    -0.893026357099     0.472174216348
    H           -1.733836662280    -0.079387876228     1.621705917394
    H            1.875524442710    -1.219628071816    -1.018049189776
    H            2.605713832551     0.243352812750    -0.331839451088
    H            2.022041278650    -1.056776208443     0.714544969688

  Mulliken Charges: (a.u.)
   Center  Symbol    Alpha    Beta     Spin     Total
       1     O     4.17255  4.17255  0.00000 -0.34509
       2     C     2.85969  2.85969  0.00000  0.28063
       3     C     3.10054  3.10054  0.00000 -0.20109
       4     C     3.15129  3.15129  0.00000 -0.30257
       5     C     3.14321  3.14321  0.00000 -0.28643
       6     H     0.44545  0.44545  0.00000  0.10909
       7     H     0.44638  0.44638  0.00000  0.10724
       8     H     0.44127  0.44127  0.00000  0.11747
       9     H     0.45008  0.45008  0.00000  0.09983
      10     H     0.45344  0.45344  0.00000  0.09313
      11     H     0.45053  0.45053  0.00000  0.09895
      12     H     0.43623  0.43623  0.00000  0.12753
      13     H     0.44934  0.44934  0.00000  0.10132

   Total alpha = 20.00000, Total beta = 20.00000, Total charge = -0.00000
