  ==> Input File <==

--------------------------------------------------------------------------
set {
	reference rhf
	basis 6-31G*
}

set_num_threads( 1 )
memory 2 gb

molecule MOL {
0 1

O	 2.890202	 0.621604	 -1.076677
C	 2.701189	 0.057885	 -0.047330
C	 1.720359	 0.479407	 1.019947
O	 3.347903	 -1.046386	 0.304773
C	 0.941425	 1.741024	 0.654300
H	 1.064321	 -0.365607	 1.200937
H	 2.283657	 0.620051	 1.938975
C	 0.018071	 2.241421	 1.770326
H	 0.363562	 1.557262	 -0.246491
H	 1.649102	 2.523114	 0.401415
C	 -1.151781	 1.311773	 2.105456
H	 -0.380996	 3.207334	 1.469527
H	 0.603291	 2.424243	 2.670384
C	 -2.104041	 1.905058	 3.145751
H	 -1.706355	 1.092028	 1.194425
H	 -0.779270	 0.358588	 2.473758
C	 -3.274085	 0.982543	 3.492300
H	 -2.492019	 2.853725	 2.778686
H	 -1.547953	 2.134974	 4.053277
C	 -4.222370	 1.584008	 4.528975
H	 -3.830258	 0.750974	 2.586380
H	 -2.888321	 0.035346	 3.863493
H	 -5.040769	 0.906995	 4.753658
H	 -4.652432	 2.515889	 4.172830
H	 -3.703013	 1.795277	 5.459517
C	 4.728119	 -1.109107	 -0.004993
H	 4.882018	 -1.033965	 -1.071845
H	 5.068212	 -2.067527	 0.355250
H	 5.265056	 -0.311663	 0.488280

	symmetry c1
}
set optking {
	frozen_dihedral = ("
		21 17 14 11,
		17 14 11 15,
		15 11 8 5,
		6 3 5 9,
		11 8 5 9,
		2 4 26 27,
		6 3 2 1
	")
}

ee = energy('scf')
oeprop('DIPOLE', 'QUADRUPOLE', 'MULLIKEN_CHARGES')
f=open( 'psi4out.xyz', 'w' )
f.write( "29  " )
f.write( str(ee) + "\n" )
f.write( MOL.save_string_xyz() )
f.close()
--------------------------------------------------------------------------

    Molecular point group: c1

    Geometry (in Angstrom), charge = 0, multiplicity = 1:

       Center              X                  Y                   Z               Mass
    ------------   -----------------  -----------------  -----------------  -----------------
           O          2.345255840161    -0.154206758242    -2.508874076764    15.994914619560
           C          2.156242840161    -0.717925758242    -1.479527076764    12.000000000000
           C          1.175412840161    -0.296403758242    -0.412250076764    12.000000000000
           O          2.802956840161    -1.822196758242    -1.127424076764    15.994914619560
           C          0.396478840161     0.965213241758    -0.777897076764    12.000000000000
           H          0.519374840161    -1.141417758242    -0.231260076764     1.007825032070
           H          1.738710840161    -0.155759758242     0.506777923236     1.007825032070
           C         -0.526875159839     1.465610241758     0.338128923236    12.000000000000
           H         -0.181384159839     0.781451241758    -1.678688076764     1.007825032070
           H          1.104155840161     1.747303241758    -1.030782076764     1.007825032070
           C         -1.696727159839     0.535962241758     0.673258923236    12.000000000000
           H         -0.925942159839     2.431523241758     0.037329923236     1.007825032070
           H          0.058344840161     1.648432241758     1.238186923236     1.007825032070
           C         -2.648987159839     1.129247241758     1.713553923236    12.000000000000
           H         -2.251301159839     0.316217241758    -0.237772076764     1.007825032070
           H         -1.324216159839    -0.417222758242     1.041560923236     1.007825032070
           C         -3.819031159839     0.206732241758     2.060102923236    12.000000000000
           H         -3.036965159839     2.077914241758     1.346488923236     1.007825032070
           H         -2.092899159839     1.359163241758     2.621079923236     1.007825032070
           C         -4.767316159839     0.808197241758     3.096777923236    12.000000000000
           H         -4.375204159839    -0.024836758242     1.154182923236     1.007825032070
           H         -3.433267159839    -0.740464758242     2.431295923236     1.007825032070
           H         -5.585715159839     0.131184241758     3.321460923236     1.007825032070
           H         -5.197378159839     1.740078241758     2.740632923236     1.007825032070
           H         -4.247959159839     1.019466241758     4.027319923236     1.007825032070
           C          4.183172840161    -1.884917758242    -1.437190076764    12.000000000000
           H          4.337071840161    -1.809775758242    -2.504042076764     1.007825032070
           H          4.523265840161    -2.843337758242    -1.076947076764     1.007825032070
           H          4.720109840161    -1.087473758242    -0.943917076764     1.007825032070

  Charge       = 0
  Multiplicity = 1
  Basis Set: 6-31G*
  Basis Set:

    Orbital Energies (a.u.)
    -----------------------

    Doubly Occupied:

       1A    -20.595814     2A    -20.548262     3A    -11.372615
       4A    -11.284845     5A    -11.234995     6A    -11.219003
       7A    -11.217794     8A    -11.216020     9A    -11.215842
      10A    -11.214520    11A    -11.209076    12A     -1.466760
      13A     -1.363340    14A     -1.098058    15A     -1.066495
      16A     -1.018434    17A     -0.977810    18A     -0.930757
      19A     -0.862528    20A     -0.799855    21A     -0.790856
      22A     -0.763864    23A     -0.700438    24A     -0.679710
      25A     -0.673094    26A     -0.650643    27A     -0.628240
      28A     -0.608640    29A     -0.594995    30A     -0.584440
      31A     -0.565368    32A     -0.553323    33A     -0.534785
      34A     -0.528654    35A     -0.518970    36A     -0.507619
      37A     -0.493843    38A     -0.478275    39A     -0.471441
      40A     -0.462685    41A     -0.460988    42A     -0.452454
      43A     -0.441406    44A     -0.432330

  @DF-RHF Final Energy:  -501.03560896808767

   => Energetics <=

    Nuclear Repulsion Energy =            610.3855328857093809
    One-Electron Energy =               -1891.8622884359831460
    Two-Electron Energy =                 780.4411465821879119
    DFT Exchange-Correlation Energy =       0.0000000000000000
    Empirical Dispersion Energy =           0.0000000000000000
    PCM Polarization Energy =               0.0000000000000000
    EFP Energy =                            0.0000000000000000
    Total Energy =                       -501.0356089680858531

  Mulliken Charges: (a.u.)
   Center  Symbol    Alpha    Beta     Spin     Total
       1     O     4.27728  4.27728  0.00000 -0.55457
       2     C     2.60491  2.60491  0.00000  0.79018
       3     C     3.21145  3.21145  0.00000 -0.42290
       4     O     4.30968  4.30968  0.00000 -0.61936
       5     C     3.15440  3.15440  0.00000 -0.30880
       6     H     0.39759  0.39759  0.00000  0.20483
       7     H     0.40423  0.40423  0.00000  0.19154
       8     C     3.15645  3.15645  0.00000 -0.31290
       9     H     0.41245  0.41245  0.00000  0.17509
      10     H     0.40960  0.40960  0.00000  0.18080
      11     C     3.15502  3.15502  0.00000 -0.31004
      12     H     0.41828  0.41828  0.00000  0.16345
      13     H     0.42445  0.42445  0.00000  0.15110
      14     C     3.15026  3.15026  0.00000 -0.30053
      15     H     0.42229  0.42229  0.00000  0.15541
      16     H     0.42363  0.42363  0.00000  0.15275
      17     C     3.15147  3.15147  0.00000 -0.30295
      18     H     0.42332  0.42332  0.00000  0.15336
      19     H     0.42418  0.42418  0.00000  0.15164
      20     C     3.23935  3.23935  0.00000 -0.47870
      21     H     0.42265  0.42265  0.00000  0.15471
      22     H     0.42340  0.42340  0.00000  0.15320
      23     H     0.41917  0.41917  0.00000  0.16165
      24     H     0.42155  0.42155  0.00000  0.15691
      25     H     0.42193  0.42193  0.00000  0.15614
      26     C     3.09502  3.09502  0.00000 -0.19004
      27     H     0.40250  0.40250  0.00000  0.19500
      28     H     0.40653  0.40653  0.00000  0.18693
      29     H     0.41696  0.41696  0.00000  0.16608

   Total alpha = 44.00000, Total beta = 44.00000, Total charge =  0.00000
