  ==> Input File <==

--------------------------------------------------------------------------
set {
	reference rhf
	basis 6-31G*
}

set_num_threads( 1 )
memory 2 gb

molecule MOL {
0 1

H	 -3.892951	 0.981613	 -0.358725
C	 -3.196921	 0.361773	 0.172313
C	 -2.076860	 -0.007332	 -0.404944
H	 -3.439953	 0.057760	 1.173024
O	 -1.683870	 -1.307510	 -0.449185
H	 -1.416807	 0.689035	 -0.891358
C	 -0.411031	 -1.593312	 -0.918276
C	 0.621606	 -1.516171	 0.183543
H	 -0.105365	 -0.924253	 -1.714909
H	 -0.418328	 -2.605507	 -1.294965
F	 1.812014	 -1.832411	 -0.305054
F	 0.706918	 -0.297869	 0.691767
F	 0.354674	 -2.345636	 1.171027

	symmetry c1
}
set optking {
	frozen_dihedral = ("
		11 8 7 9,
		3 5 7 9,
		6 3 5 7
	")
}

ee = energy('scf')
oeprop('DIPOLE', 'QUADRUPOLE', 'MULLIKEN_CHARGES')
f=open( 'psi4out.xyz', 'w' )
f.write( "13  " )
f.write( str(ee) + "\n" )
f.write( MOL.save_string_xyz() )
f.close()
--------------------------------------------------------------------------

    Molecular point group: c1

    Geometry (in Angstrom), charge = 0, multiplicity = 1:

       Center              X                  Y                   Z               Mass
    ------------   -----------------  -----------------  -----------------  -----------------
           H         -3.556173051597     2.099010112405    -0.419746077238     1.007825032070
           C         -2.860143051597     1.479170112405     0.111291922762    12.000000000000
           C         -1.740082051597     1.110065112405    -0.465965077238    12.000000000000
           H         -3.103175051597     1.175157112405     1.112002922762     1.007825032070
           O         -1.347092051597    -0.190112887595    -0.510206077238    15.994914619560
           H         -1.080029051597     1.806432112405    -0.952379077238     1.007825032070
           C         -0.074253051597    -0.475914887595    -0.979297077238    12.000000000000
           C          0.958383948403    -0.398773887595     0.122521922762    12.000000000000
           H          0.231412948403     0.193144112405    -1.775930077238     1.007825032070
           H         -0.081550051597    -1.488109887595    -1.355986077238     1.007825032070
           F          2.148791948403    -0.715013887595    -0.366075077238    18.998403224000
           F          1.043695948403     0.819528112405     0.630745922762    18.998403224000
           F          0.691451948403    -1.228238887595     1.110005922762    18.998403224000

  Charge       = 0
  Multiplicity = 1
  Basis Set: 6-31G*
  Basis Set:

    Orbital Energies (a.u.)
    -----------------------

    Doubly Occupied:

       1A    -26.347893     2A    -26.346520     3A    -26.343294
       4A    -20.617808     5A    -11.505976     6A    -11.320031
       7A    -11.310519     8A    -11.206591     9A     -1.744664
      10A     -1.642860    11A     -1.641100    12A     -1.444760
      13A     -1.086653    14A     -1.017671    15A     -0.927969
      16A     -0.839414    17A     -0.833960    18A     -0.823564
      19A     -0.794308    20A     -0.723728    21A     -0.713858
      22A     -0.696905    23A     -0.677478    24A     -0.662913
      25A     -0.657295    26A     -0.646013    27A     -0.640486
      28A     -0.584348    29A     -0.578315    30A     -0.526377
      31A     -0.508770    32A     -0.317825

  @DF-RHF Final Energy:  -527.48238348959603

   => Energetics <=

    Nuclear Repulsion Energy =            413.5247368086712072
    One-Electron Energy =               -1550.5546528444058367
    Two-Electron Energy =                 609.5475325461379725
    DFT Exchange-Correlation Energy =       0.0000000000000000
    Empirical Dispersion Energy =           0.0000000000000000
    PCM Polarization Energy =               0.0000000000000000
    EFP Energy =                            0.0000000000000000
    Total Energy =                       -527.4823834895967138

  Mulliken Charges: (a.u.)
   Center  Symbol    Alpha    Beta     Spin     Total
       1     H     0.40425  0.40425  0.00000  0.19149
       2     C     3.25454  3.25454  0.00000 -0.50909
       3     C     2.89375  2.89375  0.00000  0.21250
       4     H     0.40254  0.40254  0.00000  0.19492
       5     O     4.28538  4.28538  0.00000 -0.57076
       6     H     0.40684  0.40684  0.00000  0.18631
       7     C     3.06674  3.06674  0.00000 -0.13349
       8     C     2.45647  2.45647  0.00000  1.08706
       9     H     0.40444  0.40444  0.00000  0.19112
      10     H     0.38848  0.38848  0.00000  0.22304
      11     F     4.68249  4.68249  0.00000 -0.36499
      12     F     4.67989  4.67989  0.00000 -0.35977
      13     F     4.67418  4.67418  0.00000 -0.34835

   Total alpha = 32.00000, Total beta = 32.00000, Total charge = -0.00000
