  ==> Input File <==

--------------------------------------------------------------------------
set {
	reference rhf
	basis cc-pvtz
}

set_num_threads( 4 )
memory 2 gb

molecule MOL {
0 1

H	 3.273419	 0.176595	 -0.102789
N	 2.433987	 -0.362316	 -0.080024
C	 1.263552	 0.494993	 0.021953
H	 2.497638	 -0.973615	 0.707122
C	 -0.016533	 -0.325589	 -0.026925
H	 1.280915	 1.180773	 -0.818522
H	 1.263064	 1.106893	 0.925038
C	 -1.280353	 0.525521	 0.047747
H	 -0.016686	 -0.912532	 -0.939714
H	 -0.014099	 -1.037598	 0.796369
C	 -2.111978	 0.250553	 1.296259
H	 -1.887886	 0.343976	 -0.834812
H	 -1.011332	 1.578021	 0.020449
H	 -2.425558	 -0.787141	 1.336086
H	 -3.003450	 0.866785	 1.318304
H	 -1.544553	 0.457519	 2.197578

	symmetry c1
}
set optking {
	frozen_dihedral = ("
		12 8 5 9
	")
}

ee = optimize('scf')
oeprop('DIPOLE', 'QUADRUPOLE', 'MULLIKEN_CHARGES')
f=open( 'psi4out.xyz', 'w' )
f.write( "16  " )
f.write( str(ee) + "\n" )
f.write( MOL.save_string_xyz() )
f.close()
--------------------------------------------------------------------------

    Molecular point group: c1
  Charge       = 0
  Multiplicity = 1
  Basis Set: CC-PVTZ
  Basis Set:
  @DF-RHF Final Energy:  -212.39486083503419
    Total Energy =                       -212.3948608350341942
    Molecular point group: c1
  Basis Set: CC-PVTZ
  Basis Set:
  Basis Set: CC-PVTZ
  Basis Set:
  @DF-RHF Final Energy:  -212.39509975896146
    Total Energy =                       -212.3950997589614076
  Basis Set: CC-PVTZ
  Basis Set:
  Basis Set: CC-PVTZ
  Basis Set:
  @DF-RHF Final Energy:  -212.39515945334702
    Total Energy =                       -212.3951594533469347
  Basis Set: CC-PVTZ
  Basis Set:
  Charge       = 0
  Multiplicity = 1
  Basis Set: CC-PVTZ
  Basis Set:

    Orbital Energies (a.u.)
    -----------------------

    Doubly Occupied:

       1A    -15.526636     2A    -11.238802     3A    -11.212887
       4A    -11.207693     5A    -11.207023     6A     -1.178622
       7A     -1.058282     8A     -0.959292     9A     -0.847334
      10A     -0.791687    11A     -0.661734    12A     -0.638266
      13A     -0.604230    14A     -0.585412    15A     -0.563404
      16A     -0.521843    17A     -0.507955    18A     -0.469289
      19A     -0.460460    20A     -0.460111    21A     -0.384131

  @DF-RHF Final Energy:  -212.39515997745883

   => Energetics <=

    Nuclear Repulsion Energy =            187.1876319540392046
    One-Electron Energy =                -656.9953918399949089
    Two-Electron Energy =                 257.4125999084969862
    DFT Exchange-Correlation Energy =       0.0000000000000000
    Empirical Dispersion Energy =           0.0000000000000000
    PCM Polarization Energy =               0.0000000000000000
    EFP Energy =                            0.0000000000000000
    Total Energy =                       -212.3951599774587180
    Molecular point group: c1
  Basis Set: CC-PVTZ
  Basis Set:

  -Total Gradient:
     Atom            X                  Y                   Z
    ------   -----------------  -----------------  -----------------
       1        0.000042351297    -0.000009982646     0.000011342167
       2        0.000071264288    -0.000032668775    -0.000001053349
       3       -0.000058362089     0.000019992990    -0.000041310707
       4        0.000013774357    -0.000008070927     0.000011304085
       5        0.000433886212     0.000818418335    -0.000488955905
       6       -0.000012543201     0.000002522609     0.000000944462
       7       -0.000012005177    -0.000005523721    -0.000012410524
       8       -0.000484263775    -0.000798360182     0.000497580529
       9       -0.000307673107    -0.000499574166     0.000334658476
      10       -0.000007796214     0.000004400934     0.000003315127
      11       -0.000016905779    -0.000005270012     0.000016237515
      12        0.000321435651     0.000518166975    -0.000319578571
      13        0.000007934186    -0.000010714915     0.000009630063
      14        0.000005673480     0.000000036704    -0.000005130045
      15       -0.000001270434     0.000007243470    -0.000007346044
      16        0.000004500305    -0.000000616672    -0.000009227279

  **** Optimization is complete! (in 4 steps) ****
    Final optimized geometry and variables:
    Molecular point group: c1

    Geometry (in Angstrom), charge = 0, multiplicity = 1:

    H            3.186879060990     0.071395974791    -0.354600461826
    N            2.349378665609    -0.470815832408    -0.338469798376
    C            1.174144665114     0.379686066235    -0.251043807914
    H            2.407997896218    -1.081250999631     0.449751153500
    C           -0.103037955694    -0.446491241805    -0.309241527097
    H            1.194224487987     1.063450825990    -1.093096896460
    H            1.159091929996     0.995049066942     0.650232211546
    C           -1.383004359426     0.407326575681    -0.219699685385
    H           -0.091633951746    -1.030776485631    -1.221290359887
    H           -0.087491687141    -1.166205677427     0.505527679339
    C           -2.210302406876     0.143868638248     1.035056740119
    H           -1.999604762330     0.237339791049    -1.095145085093
    H           -1.118385941904     1.460347923828    -0.248728385521
    H           -2.542310931824    -0.888179089660     1.073439420080
    H           -3.089970333721     0.776856863977     1.067480716614
    H           -1.630481876143     0.336102690300     1.932152672803

  Mulliken Charges: (a.u.)
   Center  Symbol    Alpha    Beta     Spin     Total
       1     H     0.43010  0.43010  0.00000  0.13980
       2     N     3.69003  3.69003  0.00000 -0.38007
       3     C     3.02503  3.02503  0.00000 -0.05007
       4     H     0.43053  0.43053  0.00000  0.13894
       5     C     3.08660  3.08660  0.00000 -0.17319
       6     H     0.45631  0.45631  0.00000  0.08738
       7     H     0.46852  0.46852  0.00000  0.06297
       8     C     3.09518  3.09518  0.00000 -0.19037
       9     H     0.44492  0.44492  0.00000  0.11017
      10     H     0.46077  0.46077  0.00000  0.07847
      11     C     3.14715  3.14715  0.00000 -0.29429
      12     H     0.44842  0.44842  0.00000  0.10317
      13     H     0.45619  0.45619  0.00000  0.08762
      14     H     0.45428  0.45428  0.00000  0.09145
      15     H     0.44974  0.44974  0.00000  0.10052
      16     H     0.45624  0.45624  0.00000  0.08752

   Total alpha = 21.00000, Total beta = 21.00000, Total charge = -0.00000
