                              Psi4 1.0.54 Driver

  ==> Input File <==

--------------------------------------------------------------------------
set {
	reference rhf
	basis cc-pvtz
}

set_num_threads( 4 )
memory 2 gb

molecule MOL {
0 1

H	 -0.811808	 1.638155	 -0.276010
O	 0.057669	 1.301365	 -0.158528
C	 0.004145	 -0.005141	 0.363049
C	 1.199168	 -0.827145	 -0.096690
C	 -1.316386	 -0.602081	 -0.083515
H	 0.012026	 0.043363	 1.450619
H	 1.216685	 -0.896776	 -1.178167
H	 2.129940	 -0.372354	 0.228035
H	 1.160783	 -1.829622	 0.314294
H	 -1.357882	 -0.655920	 -1.165207
H	 -2.140147	 0.011735	 0.257253
H	 -1.440790	 -1.601175	 0.317669

	symmetry c1
}
set optking {
	frozen_dihedral = ("
		1 2 3 4
	")
}

ee,wfn = optimize('scf', return_wfn=True)
oeprop( wfn, 'DIPOLE', 'QUADRUPOLE', 'MULLIKEN_CHARGES')
f=open( 'psi4out.xyz', 'w' )
f.write( "12  " )
f.write( str(ee) + "\n" )
f.write( MOL.save_string_xyz() )
f.close()
--------------------------------------------------------------------------

    Molecular point group: c1
  Charge       = 0
  Multiplicity = 1
  Basis Set: CC-PVTZ
  Basis Set:
  @DF-RHF Final Energy:  -193.19308146534419
    Total Energy =                       -193.1930814653441928
    Molecular point group: c1
  Basis Set: CC-PVTZ
  Basis Set:
  Basis Set: CC-PVTZ
  Basis Set:
  @DF-RHF Final Energy:  -193.13956985589562
    Total Energy =                       -193.1395698558955019
  Basis Set: CC-PVTZ
  Basis Set:
  Basis Set: CC-PVTZ
  Basis Set:
  @DF-RHF Final Energy:  -193.19175538683589
    Total Energy =                       -193.1917553868358937
  Basis Set: CC-PVTZ
  Basis Set:
  Basis Set: CC-PVTZ
  Basis Set:
  @DF-RHF Final Energy:  -193.19480775692995
    Total Energy =                       -193.1948077569297766
  Basis Set: CC-PVTZ
  Basis Set:
  Basis Set: CC-PVTZ
  Basis Set:
  @DF-RHF Final Energy:  -193.19492496633734
    Total Energy =                       -193.1949249663373678
  Basis Set: CC-PVTZ
  Basis Set:
  Basis Set: CC-PVTZ
  Basis Set:
  @DF-RHF Final Energy:  -193.19493759487361
    Total Energy =                       -193.1949375948737497
  Basis Set: CC-PVTZ
  Basis Set:
  Charge       = 0
  Multiplicity = 1
  Basis Set: CC-PVTZ
  Basis Set:

    Orbital Energies (a.u.)
    -----------------------

    Doubly Occupied:

       1A    -20.543073     2A    -11.274034     3A    -11.216099
       4A    -11.204933     5A     -1.363787     6A     -1.044128
       7A     -0.942988     8A     -0.808871     9A     -0.687131
      10A     -0.641405    11A     -0.608291    12A     -0.548008
      13A     -0.539604    14A     -0.525590    15A     -0.514751
      16A     -0.469533    17A     -0.431917

  @DF-RHF Final Energy:  -193.19493770750617

   => Energetics <=

    Nuclear Repulsion Energy =            135.7899536399335432
    One-Electron Energy =                -531.2414943339713318
    Two-Electron Energy =                 202.2566029865315329
    DFT Exchange-Correlation Energy =       0.0000000000000000
    Empirical Dispersion Energy =           0.0000000000000000
    PCM Polarization Energy =               0.0000000000000000
    EFP Energy =                            0.0000000000000000
    Total Energy =                       -193.1949377075062841
    Molecular point group: c1
  Basis Set: CC-PVTZ
  Basis Set:

  -Total Gradient:
     Atom            X                  Y                   Z
    ------   -----------------  -----------------  -----------------
       1       -0.000314452386    -0.000077380172    -0.001910411286
       2        0.000123349247     0.000072519575     0.002052859853
       3        0.000929675069     0.000231592429     0.000782464788
       4       -0.000761615954    -0.000195033358    -0.000903346197
       5        0.000013845686    -0.000012069642    -0.000021126680
       6        0.000007442099    -0.000018841026    -0.000005105669
       7        0.000000049984     0.000000012594    -0.000000919596
       8       -0.000018044981    -0.000006154694     0.000012655249
       9        0.000003969685    -0.000002582357    -0.000006565372
      10       -0.000003680447     0.000001128399     0.000001503645
      11        0.000019916597     0.000002499416    -0.000002604665
      12       -0.000000454602     0.000004308841     0.000000595930

  **** Optimization is complete! (in 7 steps) ****
    Final optimized geometry and variables:
    Molecular point group: c1

    Geometry (in Angstrom), charge = 0, multiplicity = 1:

    H           -1.113437468030     1.405790912575     0.466092494977
    O           -0.196861938019     1.265495683404     0.318731369522
    C            0.101152242311    -0.111638149726     0.334845375909
    C            1.285005332580    -0.330712686597    -0.588549736147
    C           -1.105700593481    -0.942687252839    -0.073069332501
    H            0.388261205921    -0.392743206095     1.345779225139
    H            1.017902601177    -0.084081904284    -1.609553285331
    H            2.111891322842     0.302463998469    -0.292948382116
    H            1.614196826108    -1.363131591250    -0.553974920207
    H           -1.422234688385    -0.687903314233    -1.078799957229
    H           -1.939422767860    -0.773036969558     0.601784074946
    H           -0.872168447013    -2.000281520790    -0.046039004363

  Mulliken Charges: (a.u.)
   Center  Symbol    Alpha    Beta     Spin     Total
       1     H     0.39292  0.39292  0.00000  0.21416
       2     O     4.20834  4.20834  0.00000 -0.41667
       3     C     2.91918  2.91918  0.00000  0.16164
       4     C     3.13933  3.13933  0.00000 -0.27867
       5     C     3.15426  3.15426  0.00000 -0.30853
       6     H     0.46545  0.46545  0.00000  0.06910
       7     H     0.45577  0.45577  0.00000  0.08846
       8     H     0.44615  0.44615  0.00000  0.10769
       9     H     0.45963  0.45963  0.00000  0.08074
      10     H     0.45072  0.45072  0.00000  0.09856
      11     H     0.45540  0.45540  0.00000  0.08920
      12     H     0.45284  0.45284  0.00000  0.09432

   Total alpha = 17.00000, Total beta = 17.00000, Total charge = -0.00000

*** Psi4 exiting successfully. Buy a developer a beer!
