                              Psi4 1.0.54 Driver

  ==> Input File <==

--------------------------------------------------------------------------
set {
	reference rhf
	basis cc-pvtz
}

set_num_threads( 4 )
memory 2 gb

molecule MOL {
0 1

O	 -2.380434	 1.327231	 -0.337507
C	 -2.106621	 0.195588	 -0.101202
C	 -0.883615	 -0.457369	 -0.714350
C	 -2.945973	 -0.643872	 0.832374
C	 0.376695	 -0.140025	 0.100361
H	 -0.773953	 -0.069248	 -1.719063
H	 -1.021874	 -1.531558	 -0.776538
C	 1.630207	 -0.772146	 -0.501001
H	 0.483471	 0.935986	 0.155381
H	 0.252680	 -0.495084	 1.120583
C	 2.907848	 -0.545876	 0.309149
H	 1.772784	 -0.391628	 -1.509394
H	 1.468529	 -1.842059	 -0.599744
C	 3.373802	 0.906639	 0.372125
H	 3.699140	 -1.146831	 -0.127906
H	 2.764321	 -0.923458	 1.318191
H	 3.519798	 1.311927	 -0.623875
H	 4.316899	 0.983758	 0.900700
H	 2.661122	 1.540651	 0.885346
H	 -3.435822	 -1.428040	 0.263932
H	 -3.690763	 -0.030677	 1.315953
H	 -2.323192	 -1.128720	 1.575782

	symmetry c1
}
set optking {
	frozen_dihedral = ("
		3 5 8 12
	")
}

ee,wfn = optimize('scf', return_wfn=True)
oeprop( wfn, 'DIPOLE', 'QUADRUPOLE', 'MULLIKEN_CHARGES')
f=open( 'psi4out.xyz', 'w' )
f.write( "22  " )
f.write( str(ee) + "\n" )
f.write( MOL.save_string_xyz() )
f.close()
--------------------------------------------------------------------------

    Molecular point group: c1
  Charge       = 0
  Multiplicity = 1
  Basis Set: CC-PVTZ
  Basis Set:
  @DF-RHF Final Energy:  -348.22350961631219
    Total Energy =                       -348.2235096163117305
    Molecular point group: c1
  Basis Set: CC-PVTZ
  Basis Set:
  Basis Set: CC-PVTZ
  Basis Set:
  @DF-RHF Final Energy:  -348.22350527471451
    Total Energy =                       -348.2235052747141708
  Basis Set: CC-PVTZ
  Basis Set:
  Basis Set: CC-PVTZ
  Basis Set:
  @DF-RHF Final Energy:  -348.22350904420256
    Total Energy =                       -348.2235090442026149
  Basis Set: CC-PVTZ
  Basis Set:
  Charge       = 0
  Multiplicity = 1
  Basis Set: CC-PVTZ
  Basis Set:

    Orbital Energies (a.u.)
    -----------------------

    Doubly Occupied:

       1A    -20.536731     2A    -11.319258     3A    -11.227982
       4A    -11.227386     5A    -11.226892     6A    -11.220626
       7A    -11.219057     8A    -11.209483     9A     -1.396850
      10A     -1.097390    11A     -1.045748    12A     -1.000255
      13A     -0.938908    14A     -0.858700    15A     -0.787189
      16A     -0.734255    17A     -0.664380    18A     -0.646513
      19A     -0.628094    20A     -0.622517    21A     -0.598244
      22A     -0.584461    23A     -0.564188    24A     -0.540939
      25A     -0.536236    26A     -0.520769    27A     -0.499376
      28A     -0.490659    29A     -0.471685    30A     -0.464924
      31A     -0.462195    32A     -0.398492

  @DF-RHF Final Energy:  -348.22350977432046

   => Energetics <=

    Nuclear Repulsion Energy =            373.6454854849708340
    One-Electron Energy =               -1212.2572307259733861
    Two-Electron Energy =                 490.3882354666821470
    DFT Exchange-Correlation Energy =       0.0000000000000000
    Empirical Dispersion Energy =           0.0000000000000000
    PCM Polarization Energy =               0.0000000000000000
    EFP Energy =                            0.0000000000000000
    Total Energy =                       -348.2235097743204619
    Molecular point group: c1
  Basis Set: CC-PVTZ
  Basis Set:

  -Total Gradient:
     Atom            X                  Y                   Z
    ------   -----------------  -----------------  -----------------
       1       -0.000000800494    -0.000008972416     0.000002076420
       2        0.000006139376    -0.000001369135     0.000014495506
       3       -0.000014412656    -0.000045122745     0.000021131031
       4       -0.000012455821    -0.000002668675    -0.000031382340
       5        0.000023179176     0.000080596533    -0.000027879449
       6       -0.000010136058     0.000008067679     0.000004293298
       7       -0.000001625690    -0.000003502772    -0.000003772693
       8       -0.000040291612    -0.000093621300     0.000010560709
       9        0.000015525839     0.000016318024     0.000001721257
      10       -0.000001540928    -0.000000718676    -0.000001687725
      11       -0.000003820512    -0.000002019720    -0.000028144435
      12        0.000041261604     0.000054062483     0.000030490737
      13        0.000004191003    -0.000012335164     0.000002484204
      14       -0.000002338031     0.000005027737     0.000001415914
      15        0.000002809956    -0.000006971595    -0.000007615179
      16       -0.000007757609    -0.000005112548    -0.000000626864
      17        0.000004529776     0.000001993904    -0.000004551396
      18       -0.000003561007    -0.000000930716     0.000002419490
      19       -0.000015785599     0.000008489091     0.000001988208
      20        0.000007450254     0.000002804643     0.000004283564
      21        0.000000559417     0.000005125964     0.000000995427
      22        0.000008879606     0.000000859404     0.000007304315

  **** Optimization is complete! (in 4 steps) ****
    Final optimized geometry and variables:
    Molecular point group: c1

    Geometry (in Angstrom), charge = 0, multiplicity = 1:

    O           -2.379368813674     1.331733465248    -0.341402825140
    C           -2.105472777836     0.200340695370    -0.104209949068
    C           -0.882864325417    -0.453274422320    -0.717109918286
    C           -2.945310169392    -0.638494701465     0.829344246157
    C            0.377723927476    -0.136313660667     0.097412737737
    H           -0.773301729707    -0.065489153461    -1.721923996084
    H           -1.021657509945    -1.527419499180    -0.778836948129
    C            1.631024187804    -0.768533885417    -0.504280020327
    H            0.484867199515     0.939658575943     0.152831277722
    H            0.253765240458    -0.491699535958     1.117533177517
    C            2.908849237693    -0.541566552125     0.305216176412
    H            1.773390472643    -0.387799557481    -1.512609899502
    H            1.469701122296    -1.838512326201    -0.602744103171
    C            3.372971781261     0.911490798176     0.369283843850
    H            3.700543739121    -1.141274086226    -0.132836711883
    H            2.766231606086    -0.920204928327     1.313991486627
    H            3.519709198526     1.317362276536    -0.626379643976
    H            4.315303635612     0.989541726989     0.899049365659
    H            2.658856227630     1.544419446316     0.881878371472
    H           -3.435860203491    -1.421923933840     0.260534947745
    H           -3.689567322992    -0.024678074020     1.312934411570
    H           -2.323136764131    -1.124231766401     1.572686788012

  Mulliken Charges: (a.u.)
   Center  Symbol    Alpha    Beta     Spin     Total
       1     O     4.17782  4.17782  0.00000 -0.35564
       2     C     2.85850  2.85850  0.00000  0.28300
       3     C     3.09709  3.09709  0.00000 -0.19417
       4     C     3.15526  3.15526  0.00000 -0.31052
       5     C     3.10436  3.10436  0.00000 -0.20871
       6     H     0.43903  0.43903  0.00000  0.12195
       7     H     0.44859  0.44859  0.00000  0.10281
       8     C     3.09662  3.09662  0.00000 -0.19324
       9     H     0.43854  0.43854  0.00000  0.12292
      10     H     0.45223  0.45223  0.00000  0.09554
      11     C     3.09077  3.09077  0.00000 -0.18154
      12     H     0.45082  0.45082  0.00000  0.09837
      13     H     0.44884  0.44884  0.00000  0.10232
      14     C     3.15175  3.15175  0.00000 -0.30350
      15     H     0.44762  0.44762  0.00000  0.10475
      16     H     0.45467  0.45467  0.00000  0.09065
      17     H     0.45376  0.45376  0.00000  0.09247
      18     H     0.44618  0.44618  0.00000  0.10764
      19     H     0.45239  0.45239  0.00000  0.09522
      20     H     0.44835  0.44835  0.00000  0.10331
      21     H     0.43606  0.43606  0.00000  0.12787
      22     H     0.45075  0.45075  0.00000  0.09851

   Total alpha = 32.00000, Total beta = 32.00000, Total charge =  0.00000

*** Psi4 exiting successfully. Buy a developer a beer!
