  ==> Input File <==

--------------------------------------------------------------------------
set {
	reference rhf
	basis cc-pvtz
}

set_num_threads( 4 )
memory 2 gb

molecule MOL {
0 1

H	 -3.268214	 -0.875720	 0.463107
C	 -2.806015	 0.000007	 0.024886
N	 -1.391133	 0.000016	 0.301321
H	 -3.029448	 0.000055	 -1.045738
H	 -3.268126	 0.875758	 0.463150
C	 -0.895506	 1.317817	 0.634981
C	 -0.620010	 -0.582589	 -0.775467
H	 -1.030211	 2.016719	 -0.195826
H	 -1.457499	 1.700566	 1.478635
C	 0.576354	 1.261146	 0.998894
H	 -0.980872	 -1.587209	 -0.961498
H	 -0.735932	 -0.013234	 -1.702422
C	 0.851849	 -0.639261	 -0.411555
H	 0.937215	 2.265766	 1.184924
H	 0.692275	 0.691791	 1.925848
N	 1.347476	 0.678541	 -0.077895
H	 1.413842	 -1.022009	 -1.255209
H	 0.986555	 -1.338162	 0.419252
C	 2.762358	 0.678550	 0.198540
H	 3.103140	 1.689915	 0.381766
H	 3.305624	 0.292933	 -0.655113
H	 3.024917	 0.070566	 1.068929

	symmetry c1
}
set optking {
	frozen_dihedral = ("
		6 3 2 4
	")
}

ee = optimize('scf')
oeprop('DIPOLE', 'QUADRUPOLE', 'MULLIKEN_CHARGES')
f=open( 'psi4out.xyz', 'w' )
f.write( "22  " )
f.write( str(ee) + "\n" )
f.write( MOL.save_string_xyz() )
f.close()
--------------------------------------------------------------------------

    Molecular point group: c1
  Charge       = 0
  Multiplicity = 1
  Basis Set: CC-PVTZ
  Basis Set:
  @DF-RHF Final Energy:  -344.34618551888713
    Total Energy =                       -344.3461855188868412
    Molecular point group: c1
  Basis Set: CC-PVTZ
  Basis Set:
  Basis Set: CC-PVTZ
  Basis Set:
  @DF-RHF Final Energy:  -344.34669146599401
    Total Energy =                       -344.3466914659937856
  Basis Set: CC-PVTZ
  Basis Set:
  Basis Set: CC-PVTZ
  Basis Set:
  @DF-RHF Final Energy:  -344.34679057701993
    Total Energy =                       -344.3467905770195330
  Basis Set: CC-PVTZ
  Basis Set:
  Charge       = 0
  Multiplicity = 1
  Basis Set: CC-PVTZ
  Basis Set:

    Orbital Energies (a.u.)
    -----------------------

    Doubly Occupied:

       1A    -15.537375     2A    -15.534123     3A    -11.237487
       4A    -11.237434     5A    -11.236631     6A    -11.236529
       7A    -11.234208     8A    -11.234029     9A     -1.255811
      10A     -1.204230    11A     -1.026035    12A     -0.992267
      13A     -0.912660    14A     -0.868387    15A     -0.836367
      16A     -0.753918    17A     -0.666208    18A     -0.637323
      19A     -0.632397    20A     -0.626454    21A     -0.620932
      22A     -0.580612    23A     -0.551401    24A     -0.549031
      25A     -0.543295    26A     -0.518359    27A     -0.497884
      28A     -0.489398    29A     -0.467403    30A     -0.457020
      31A     -0.351256    32A     -0.341235

  @DF-RHF Final Energy:  -344.34679679127828

   => Energetics <=

    Nuclear Repulsion Energy =            421.5465595722084799
    One-Electron Energy =               -1302.0513223045477389
    Two-Electron Energy =                 536.1579659410609793
    DFT Exchange-Correlation Energy =       0.0000000000000000
    Empirical Dispersion Energy =           0.0000000000000000
    PCM Polarization Energy =               0.0000000000000000
    EFP Energy =                            0.0000000000000000
    Total Energy =                       -344.3467967912782797
    Molecular point group: c1
  Basis Set: CC-PVTZ
  Basis Set:

  -Total Gradient:
     Atom            X                  Y                   Z
    ------   -----------------  -----------------  -----------------
       1        0.000054323030    -0.000015554494     0.000012020629
       2       -0.000738253636     0.005656757112     0.001375820548
       3        0.000789343563    -0.000375733806    -0.004688467232
       4        0.000217122154    -0.004609046955    -0.000059913246
       5        0.000054950613     0.000001113545     0.000033492457
       6       -0.000489104502    -0.000600084605     0.003371882845
       7        0.000069502432     0.000034542921    -0.000102551934
       8        0.000007207490    -0.000069300944     0.000040574195
       9       -0.000004665751    -0.000058205261    -0.000021041734
      10        0.000034101893    -0.000002486986    -0.000034674131
      11       -0.000012743613     0.000034078321     0.000046174994
      12       -0.000010484167    -0.000016906498     0.000049210385
      13        0.000025682398    -0.000005417902    -0.000003030623
      14        0.000070180677     0.000034119219     0.000017830298
      15       -0.000029923142     0.000008254742    -0.000023758832
      16       -0.000034294289    -0.000002079511     0.000009490817
      17        0.000074051502    -0.000006112129    -0.000012431551
      18       -0.000011639025     0.000012307620    -0.000014871214
      19       -0.000032158790    -0.000018956215     0.000010148446
      20       -0.000019520985     0.000000616189    -0.000001757614
      21       -0.000011115766    -0.000002743351    -0.000005384975
      22       -0.000002562086     0.000000838990     0.000001237473

  **** Optimization is complete! (in 4 steps) ****
    Final optimized geometry and variables:
    Molecular point group: c1

    Geometry (in Angstrom), charge = 0, multiplicity = 1:

    H           -3.211392577473    -1.277133618981     0.325949673594
    C           -2.797022983842    -0.357137156322    -0.074415654088
    N           -1.370140882529    -0.305353898875     0.159572453026
    H           -3.046720508922    -0.339392394463    -1.135489874629
    H           -3.296375304371     0.469186928314     0.412370038036
    C           -0.867239383919     1.001747950970     0.515815011711
    C           -0.596802726219    -0.919964502307    -0.892562241982
    H           -0.985661364751     1.721867165581    -0.299761585411
    H           -1.426926436102     1.373317491392     1.365144962046
    C            0.601967081543     0.921153871070     0.887932364644
    H           -0.967381000167    -1.925098759004    -1.059029773695
    H           -0.698691374799    -0.372575048718    -1.834485019735
    C            0.871142853811    -0.985640297671    -0.514593204271
    H            0.977023846382     1.919368818561     1.081098728413
    H            0.702732292939     0.345568492770     1.813012887164
    N            1.372627135204     0.330893353305    -0.185054444364
    H            1.438683695336    -1.378322132275    -1.350122329361
    H            0.993328984664    -1.679289929664     0.322654683714
    C            2.786391495236     0.323505977551     0.096284142979
    H            3.132664694128     1.333598602403     0.276384685487
    H            3.330348660935    -0.069170762635    -0.753760801230
    H            3.042439798793    -0.282290973176     0.970284392414

  Mulliken Charges: (a.u.)
   Center  Symbol    Alpha    Beta     Spin     Total
       1     H     0.45066  0.45066  0.00000  0.09868
       2     C     3.09538  3.09538  0.00000 -0.19076
       3     N     3.61423  3.61423  0.00000 -0.22846
       4     H     0.46613  0.46613  0.00000  0.06774
       5     H     0.45541  0.45541  0.00000  0.08919
       6     C     3.03378  3.03378  0.00000 -0.06756
       7     C     3.03462  3.03462  0.00000 -0.06924
       8     H     0.46965  0.46965  0.00000  0.06070
       9     H     0.45407  0.45407  0.00000  0.09185
      10     C     3.03633  3.03633  0.00000 -0.07267
      11     H     0.45393  0.45393  0.00000  0.09213
      12     H     0.46832  0.46832  0.00000  0.06336
      13     C     3.03675  3.03675  0.00000 -0.07349
      14     H     0.45405  0.45405  0.00000  0.09190
      15     H     0.46868  0.46868  0.00000  0.06264
      16     N     3.61305  3.61305  0.00000 -0.22610
      17     H     0.45402  0.45402  0.00000  0.09196
      18     H     0.46851  0.46851  0.00000  0.06298
      19     C     3.09830  3.09830  0.00000 -0.19660
      20     H     0.45195  0.45195  0.00000  0.09609
      21     H     0.45196  0.45196  0.00000  0.09608
      22     H     0.47022  0.47022  0.00000  0.05957

   Total alpha = 32.00000, Total beta = 32.00000, Total charge = -0.00000
