  ==> Input File <==

--------------------------------------------------------------------------
set {
	reference rhf
	basis cc-pvtz
}

set_num_threads( 4 )
memory 2 gb

molecule MOL {
0 1

H	 0.208180	 -1.514901	 -0.736828
C	 -0.767030	 -1.525017	 -0.255428
O	 -1.401606	 -0.295183	 -0.366624
H	 -1.387646	 -2.262624	 -0.742932
H	 -0.633570	 -1.813637	 0.785616
C	 -0.718530	 0.758693	 0.228682
C	 0.718529	 0.758687	 -0.228709
H	 -1.176498	 1.708665	 -0.046615
H	 -0.748705	 0.673525	 1.312779
O	 1.401606	 -0.295166	 0.366636
H	 0.748705	 0.673477	 -1.312803
H	 1.176496	 1.708671	 0.046552
C	 2.714315	 -0.441627	 -0.061017
H	 2.765292	 -0.641548	 -1.128869
H	 3.305661	 0.447341	 0.150952
H	 3.143725	 -1.278506	 0.470147

	symmetry c1
}
set optking {
	frozen_dihedral = ("
		2 3 6 7
	")
}

ee = optimize('scf')
oeprop('DIPOLE', 'QUADRUPOLE', 'MULLIKEN_CHARGES')
f=open( 'psi4out.xyz', 'w' )
f.write( "16  " )
f.write( str(ee) + "\n" )
f.write( MOL.save_string_xyz() )
f.close()
--------------------------------------------------------------------------

    Molecular point group: c1
  Charge       = 0
  Multiplicity = 1
  Basis Set: CC-PVTZ
  Basis Set:
  @DF-RHF Final Energy:  -307.08205938992444
    Total Energy =                       -307.0820593899247797
    Molecular point group: c1
  Basis Set: CC-PVTZ
  Basis Set:
  Basis Set: CC-PVTZ
  Basis Set:
  @DF-RHF Final Energy:  -307.09065296903896
    Total Energy =                       -307.0906529690390698
  Basis Set: CC-PVTZ
  Basis Set:
  Basis Set: CC-PVTZ
  Basis Set:
  @DF-RHF Final Energy:  -307.09308252182166
    Total Energy =                       -307.0930825218221116
  Basis Set: CC-PVTZ
  Basis Set:
  Basis Set: CC-PVTZ
  Basis Set:
  @DF-RHF Final Energy:  -307.09389208106376
    Total Energy =                       -307.0938920810638137
  Basis Set: CC-PVTZ
  Basis Set:
  Basis Set: CC-PVTZ
  Basis Set:
  @DF-RHF Final Energy:  -307.09425941865317
    Total Energy =                       -307.0942594186533370
  Basis Set: CC-PVTZ
  Basis Set:
  Basis Set: CC-PVTZ
  Basis Set:
  @DF-RHF Final Energy:  -307.09432220044096
    Total Energy =                       -307.0943222004408426
  Basis Set: CC-PVTZ
  Basis Set:
  Basis Set: CC-PVTZ
  Basis Set:
  @DF-RHF Final Energy:  -307.09432562083481
    Total Energy =                       -307.0943256208348657
  Basis Set: CC-PVTZ
  Basis Set:
  Charge       = 0
  Multiplicity = 1
  Basis Set: CC-PVTZ
  Basis Set:

    Orbital Energies (a.u.)
    -----------------------

    Doubly Occupied:

       1A    -20.556643     2A    -20.543510     3A    -11.272167
       4A    -11.269024     5A    -11.266862     6A    -11.253304
       7A     -1.394465     8A     -1.370925     9A     -1.029380
      10A     -0.949998    11A     -0.893486    12A     -0.817386
      13A     -0.694391    14A     -0.682376    15A     -0.658474
      16A     -0.636111    17A     -0.628693    18A     -0.597669
      19A     -0.553595    20A     -0.538111    21A     -0.520090
      22A     -0.490586    23A     -0.456226    24A     -0.426931
      25A     -0.408285

  @DF-RHF Final Energy:  -307.09432577321070

   => Energetics <=

    Nuclear Repulsion Energy =            264.7217439517247612
    One-Electron Energy =                -943.8147627171171052
    Two-Electron Energy =                 371.9986929921816454
    DFT Exchange-Correlation Energy =       0.0000000000000000
    Empirical Dispersion Energy =           0.0000000000000000
    PCM Polarization Energy =               0.0000000000000000
    EFP Energy =                            0.0000000000000000
    Total Energy =                       -307.0943257732106986
    Molecular point group: c1
  Basis Set: CC-PVTZ
  Basis Set:

  -Total Gradient:
     Atom            X                  Y                   Z
    ------   -----------------  -----------------  -----------------
       1        0.000018429850    -0.000000641140    -0.000001219717
       2        0.001409709409     0.000520691316    -0.003083132581
       3       -0.001696045196    -0.001697780527     0.005655090947
       4        0.000003244761    -0.000010224018     0.000002673942
       5       -0.000005606688     0.000004164640     0.000002411228
       6       -0.000538348421     0.003134514559    -0.004851850397
       7        0.000808972826    -0.001959193042     0.002290777179
       8        0.000005349446     0.000008050237     0.000005730696
       9       -0.000000577866    -0.000003170345     0.000001810893
      10       -0.000025796370     0.000000475707    -0.000013576396
      11        0.000005582962    -0.000004272969     0.000000802591
      12        0.000002881603     0.000001098388    -0.000003304874
      13        0.000012876462     0.000006582752    -0.000008417318
      14        0.000002764530    -0.000000300683     0.000002679701
      15        0.000001481851    -0.000001568853    -0.000000066701
      16       -0.000004919158     0.000001573979    -0.000000409195

  **** Optimization is complete! (in 8 steps) ****
    Final optimized geometry and variables:
    Molecular point group: c1

    Geometry (in Angstrom), charge = 0, multiplicity = 1:

    H           -0.547896688380    -1.559717045832    -0.950121119094
    C           -1.383248334469    -1.416813945934    -0.275032187728
    O           -1.835883086333    -0.097951224910    -0.269347337439
    H           -2.209421462892    -2.028149697743    -0.609341293496
    H           -1.079399203474    -1.742028432964     0.715154641261
    C           -1.007644005386     0.880884513785     0.276647981857
    C            0.428940421293     0.902210794068    -0.210816653704
    H           -1.468819233051     1.826031061958     0.023001797406
    H           -0.989353542009     0.795723498289     1.361806426384
    O            1.186300053161    -0.068538765394     0.440458400087
    H            0.460246383757     0.755264598378    -1.289525110645
    H            0.839676956001     1.889623477280    -0.003090321997
    C            2.520740049540    -0.107268503823     0.054768095091
    H            2.623791982743    -0.337903245314    -1.003228819875
    H            3.018068409509     0.840407188674     0.249547783725
    H            3.009065978996    -0.880956166026     0.628943749722

  Mulliken Charges: (a.u.)
   Center  Symbol    Alpha    Beta     Spin     Total
       1     H     0.47130  0.47130  0.00000  0.05740
       2     C     3.02742  3.02742  0.00000 -0.05485
       3     O     4.17928  4.17928  0.00000 -0.35856
       4     H     0.44782  0.44782  0.00000  0.10436
       5     H     0.46777  0.46777  0.00000  0.06447
       6     C     2.97310  2.97310  0.00000  0.05381
       7     C     2.99701  2.99701  0.00000  0.00599
       8     H     0.45284  0.45284  0.00000  0.09431
       9     H     0.46704  0.46704  0.00000  0.06592
      10     O     4.17552  4.17552  0.00000 -0.35104
      11     H     0.46240  0.46240  0.00000  0.07521
      12     H     0.46067  0.46067  0.00000  0.07867
      13     C     3.03391  3.03391  0.00000 -0.06781
      14     H     0.46983  0.46983  0.00000  0.06035
      15     H     0.46839  0.46839  0.00000  0.06321
      16     H     0.44572  0.44572  0.00000  0.10857

   Total alpha = 25.00000, Total beta = 25.00000, Total charge = -0.00000
