  ==> Input File <==

--------------------------------------------------------------------------
set {
	reference rhf
	basis 6-31G*
}

set_num_threads( 4 )
memory 2 gb

molecule MOL {
0 1

H	 -0.510044	 0.742777	 -2.477025
C	 0.036354	 1.378093	 -1.768838
C	 0.065331	 0.871482	 -0.349150
O	 0.554295	 2.380042	 -2.142408
C	 -1.339775	 0.583656	 0.198860
H	 0.588328	 1.597645	 0.262468
H	 0.646724	 -0.049464	 -0.347517
C	 -1.808407	 -0.848507	 -0.061364
H	 -2.036183	 1.280685	 -0.256307
H	 -1.360094	 0.788874	 1.267089
H	 -1.828843	 -1.063152	 -1.125336
H	 -2.808409	 -1.004529	 0.329750
H	 -1.153967	 -1.577789	 0.406873

	symmetry c1
}
set optking {
	frozen_dihedral = ("
		6 3 5 9
	")
}

ee = optimize('scf')
oeprop('DIPOLE', 'QUADRUPOLE', 'MULLIKEN_CHARGES')
f=open( 'psi4out.xyz', 'w' )
f.write( "13  " )
f.write( str(ee) + "\n" )
f.write( MOL.save_string_xyz() )
f.close()
--------------------------------------------------------------------------

    Molecular point group: c1
  Charge       = 0
  Multiplicity = 1
  Basis Set: 6-31G*
  Basis Set:
  @DF-RHF Final Energy:  -230.98151539921435
    Total Energy =                       -230.9815153992142882
    Molecular point group: c1
  Basis Set: 6-31G*
  Basis Set:
  Basis Set: 6-31G*
  Basis Set:
  @DF-RHF Final Energy:  -230.98117882231719
    Total Energy =                       -230.9811788223170765
  Basis Set: 6-31G*
  Basis Set:
  Basis Set: 6-31G*
  Basis Set:
  @DF-RHF Final Energy:  -230.97980246552160
    Total Energy =                       -230.9798024655214874
  Basis Set: 6-31G*
  Basis Set:
  Basis Set: 6-31G*
  Basis Set:
  @DF-RHF Final Energy:  -230.98181358930671
    Total Energy =                       -230.9818135893066824
  Basis Set: 6-31G*
  Basis Set:
  @DF-RHF Final Energy:  -230.98183151327910
    Total Energy =                       -230.9818315132790758
  Basis Set: 6-31G*
  Basis Set:
  @DF-RHF Final Energy:  -230.98186261737985
    Total Energy =                       -230.9818626173796474
  Basis Set: 6-31G*
  Basis Set:
  Basis Set: 6-31G*
  Basis Set:
  @DF-RHF Final Energy:  -230.98187719175232
    Total Energy =                       -230.9818771917524032
  Basis Set: 6-31G*
  Basis Set:
  Basis Set: 6-31G*
  Basis Set:
  @DF-RHF Final Energy:  -230.98188110256947
    Total Energy =                       -230.9818811025693321
  Basis Set: 6-31G*
  Basis Set:
  Charge       = 0
  Multiplicity = 1
  Basis Set: 6-31G*
  Basis Set:

    Orbital Energies (a.u.)
    -----------------------

    Doubly Occupied:

       1A    -20.562394     2A    -11.327494     3A    -11.239086
       4A    -11.235800     5A    -11.225799     6A     -1.402612
       7A     -1.086510     8A     -0.974484     9A     -0.848379
      10A     -0.791347    11A     -0.672317    12A     -0.650353
      13A     -0.605559    14A     -0.596252    15A     -0.583402
      16A     -0.526590    17A     -0.505675    18A     -0.492775
      19A     -0.484857    20A     -0.410362

  @DF-RHF Final Energy:  -230.98188162546703

   => Energetics <=

    Nuclear Repulsion Energy =            171.5778892694110311
    One-Electron Energy =                -652.6754461977504889
    Two-Electron Energy =                 250.1156753028723472
    DFT Exchange-Correlation Energy =       0.0000000000000000
    Empirical Dispersion Energy =           0.0000000000000000
    PCM Polarization Energy =               0.0000000000000000
    EFP Energy =                            0.0000000000000000
    Total Energy =                       -230.9818816254671390
    Molecular point group: c1
  Basis Set: 6-31G*
  Basis Set:

  -Total Gradient:
     Atom            X                  Y                   Z
    ------   -----------------  -----------------  -----------------
       1        0.000028296318    -0.000024882513    -0.000005105296
       2       -0.000001053365    -0.000001390429     0.000000444865
       3       -0.001327715928     0.002035909101    -0.002288237171
       4       -0.000027857244     0.000026689449     0.000009539923
       5        0.000717665951     0.001544223881     0.002746935061
       6        0.001008963565    -0.001925578757     0.001452323123
       7       -0.000023832082    -0.000016440926    -0.000009852709
       8        0.000005463479     0.000005152170     0.000005986065
       9       -0.000380995536    -0.001645649109    -0.001908950943
      10       -0.000000926816     0.000002392113    -0.000004371251
      11        0.000000625681     0.000002344105     0.000000970708
      12        0.000000479865     0.000000349083    -0.000000422768
      13        0.000000886111    -0.000003118169     0.000000740397

  **** Optimization is complete! (in 9 steps) ****
    Final optimized geometry and variables:
    Molecular point group: c1

    Geometry (in Angstrom), charge = 0, multiplicity = 1:

    H           -0.168178309152     0.001169683353    -1.607901893660
    C            0.511771982423     0.532645628010    -0.931800766137
    C            0.529037744658     0.041879451512     0.493358696635
    O            1.175860305158     1.429248792758    -1.340541524061
    C           -0.876802760522    -0.269401767360     1.042289571813
    H            1.049898707241     0.773230122608     1.099399906103
    H            1.134839678117    -0.863670936236     0.515610385268
    C           -1.327745730128    -1.707145786884     0.776105546347
    H           -1.601073240970     0.410412386722     0.598911599014
    H           -0.889653796862    -0.080818985854     2.109999635004
    H           -1.335541817124    -1.935405044339    -0.286059110902
    H           -2.330642197575    -1.876256675642     1.154242041470
    H           -0.664967276952    -2.418234654763     1.260299689651

  Mulliken Charges: (a.u.)
   Center  Symbol    Alpha    Beta     Spin     Total
       1     H     0.43129  0.43129  0.00000  0.13741
       2     C     2.83004  2.83004  0.00000  0.33991
       3     C     3.21113  3.21113  0.00000 -0.42227
       4     O     4.23886  4.23886  0.00000 -0.47772
       5     C     3.16727  3.16727  0.00000 -0.33453
       6     H     0.39635  0.39635  0.00000  0.20731
       7     H     0.40543  0.40543  0.00000  0.18915
       8     C     3.24248  3.24248  0.00000 -0.48495
       9     H     0.41505  0.41505  0.00000  0.16991
      10     H     0.40945  0.40945  0.00000  0.18110
      11     H     0.42052  0.42052  0.00000  0.15896
      12     H     0.41424  0.41424  0.00000  0.17152
      13     H     0.41790  0.41790  0.00000  0.16420

   Total alpha = 20.00000, Total beta = 20.00000, Total charge =  0.00000
