  ==> Input File <==

--------------------------------------------------------------------------
set {
	reference rhf
	basis 6-31G*
}

set_num_threads( 4 )
memory 2 gb

molecule MOL {
0 1

H	 1.564490	 0.772007	 3.128725
O	 2.102918	 0.933891	 2.366106
C	 1.411889	 0.726126	 1.227471
C	 2.084427	 0.928332	 0.026326
C	 0.089045	 0.328399	 1.222132
H	 3.112252	 1.237358	 0.056966
C	 1.431416	 0.731997	 -1.172879
H	 -0.453396	 0.165309	 2.132454
C	 -0.536158	 0.140425	 0.000000
H	 1.958249	 0.890395	 -2.095492
C	 0.102097	 0.332324	 -1.204721
N	 -1.935604	 -0.280333	 0.000000
H	 -0.417885	 0.175986	 -2.126992
O	 -2.161694	 -1.452901	 0.000000
O	 -2.770341	 0.571417	 0.000000

	symmetry c1
}
set optking {
	frozen_dihedral = ("
		11 9 12 14
	")
}

ee = optimize('scf')
oeprop('DIPOLE', 'QUADRUPOLE', 'MULLIKEN_CHARGES')
f=open( 'psi4out.xyz', 'w' )
f.write( "15  " )
f.write( str(ee) + "\n" )
f.write( MOL.save_string_xyz() )
f.close()
--------------------------------------------------------------------------

    Molecular point group: c1
  Charge       = 0
  Multiplicity = 1
  Basis Set: 6-31G*
  Basis Set:
  @DF-RHF Final Energy:  -509.01605830607144
    Total Energy =                       -509.0160583060713861
    Molecular point group: c1
  Basis Set: 6-31G*
  Basis Set:
  Basis Set: 6-31G*
  Basis Set:
  @DF-RHF Final Energy:  -509.01617848195008
    Total Energy =                       -509.0161784819497370
  Basis Set: 6-31G*
  Basis Set:
  Basis Set: 6-31G*
  Basis Set:
  @DF-RHF Final Energy:  -509.01599846579307
    Total Energy =                       -509.0159984657925634
  Basis Set: 6-31G*
  Basis Set:
  Basis Set: 6-31G*
  Basis Set:
  @DF-RHF Final Energy:  -509.01630359834974
    Total Energy =                       -509.0163035983492819
  Basis Set: 6-31G*
  Basis Set:
  Basis Set: 6-31G*
  Basis Set:
  @DF-RHF Final Energy:  -509.01631220374207
    Total Energy =                       -509.0163122037417907
  Basis Set: 6-31G*
  Basis Set:
  Charge       = 0
  Multiplicity = 1
  Basis Set: 6-31G*
  Basis Set:

    Orbital Energies (a.u.)
    -----------------------

    Doubly Occupied:

       1A    -20.618309     2A    -20.610629     3A    -20.610570
       4A    -15.859417     5A    -11.334036     6A    -11.317697
       7A    -11.269147     8A    -11.268683     9A    -11.262884
      10A    -11.253909    11A     -1.642501    12A     -1.439429
      13A     -1.426605    14A     -1.202625    15A     -1.095524
      16A     -1.048655    17A     -0.965569    18A     -0.884823
      19A     -0.830796    20A     -0.789358    21A     -0.764280
      22A     -0.734703    23A     -0.721034    24A     -0.710645
      25A     -0.668136    26A     -0.635542    27A     -0.618464
      28A     -0.592564    29A     -0.563978    30A     -0.549115
      31A     -0.534045    32A     -0.490982    33A     -0.484636
      34A     -0.455821    35A     -0.373646    36A     -0.343119

  @DF-RHF Final Energy:  -509.01631678119605

   => Energetics <=

    Nuclear Repulsion Energy =            502.4019500896416162
    One-Electron Energy =               -1690.8927906153589902
    Two-Electron Energy =                 679.4745237445215480
    DFT Exchange-Correlation Energy =       0.0000000000000000
    Empirical Dispersion Energy =           0.0000000000000000
    PCM Polarization Energy =               0.0000000000000000
    EFP Energy =                            0.0000000000000000
    Total Energy =                       -509.0163167811958829
    Molecular point group: c1
  Basis Set: 6-31G*
  Basis Set:

  -Total Gradient:
     Atom            X                  Y                   Z
    ------   -----------------  -----------------  -----------------
       1        0.000000769926     0.000000526248    -0.000002174005
       2        0.000016613972     0.000008438333     0.000027613459
       3       -0.000020084964    -0.000038812950     0.000003806996
       4        0.000004295355     0.000028925055    -0.000017022308
       5        0.000010829277     0.000016849444     0.000048839418
       6       -0.000006629112    -0.000006207980     0.000006904786
       7        0.000024391166     0.000001034783    -0.000013622233
       8        0.000015495503     0.000004672255    -0.000008113208
       9       -0.000010397625    -0.000031126763    -0.000032390935
      10       -0.000001834993    -0.000003530187    -0.000006646565
      11       -0.000024528198     0.000021387986    -0.000008149185
      12       -0.000002197309     0.000062636086    -0.000026808821
      13        0.000012586012     0.000001263252     0.000005605297
      14       -0.000027601263    -0.000032973432     0.000024558062
      15        0.000008292247    -0.000033082133    -0.000002400764

  **** Optimization is complete! (in 6 steps) ****
    Final optimized geometry and variables:
    Molecular point group: c1

    Geometry (in Angstrom), charge = 0, multiplicity = 1:

    H            1.641612187393     0.493852598415     2.838820408745
    O            2.178844105513     0.655403418298     2.075389253898
    C            1.491183786672     0.448512132402     0.937183979571
    C            2.164471411988     0.651110058613    -0.263133362576
    C            0.165295629299     0.049843925164     0.931435770616
    H            3.192026138897     0.960158132063    -0.232188226819
    C            1.510624363801     0.454290027464    -1.461151218774
    H           -0.375435871861    -0.112610389587     1.846416355764
    C           -0.450273253739    -0.135567942276    -0.290249153242
    H            2.037629835800     0.612746528278    -2.383843491272
    C            0.179883774773     0.053929945266    -1.494641319469
    N           -1.852074346979    -0.557059800798    -0.287716060812
    H           -0.338540367133    -0.102237449605    -2.421148142819
    O           -2.065794192654    -1.729102332729    -0.286796481479
    O           -2.676675184739     0.302749577883    -0.283722595032

  Mulliken Charges: (a.u.)
   Center  Symbol    Alpha    Beta     Spin     Total
       1     H     0.26739  0.26739  0.00000  0.46523
       2     O     4.37400  4.37400  0.00000 -0.74801
       3     C     2.78991  2.78991  0.00000  0.42019
       4     C     3.11701  3.11701  0.00000 -0.23402
       5     C     3.13495  3.13495  0.00000 -0.26989
       6     H     0.38244  0.38244  0.00000  0.23512
       7     C     3.09489  3.09489  0.00000 -0.18979
       8     H     0.38181  0.38181  0.00000  0.23638
       9     C     2.88604  2.88604  0.00000  0.22791
      10     H     0.38673  0.38673  0.00000  0.22655
      11     C     3.10244  3.10244  0.00000 -0.20487
      12     N     3.25723  3.25723  0.00000  0.48554
      13     H     0.37800  0.37800  0.00000  0.24399
      14     O     4.22359  4.22359  0.00000 -0.44718
      15     O     4.22358  4.22358  0.00000 -0.44715

   Total alpha = 36.00000, Total beta = 36.00000, Total charge = -0.00000
