  ==> Input File <==

--------------------------------------------------------------------------
set {
	reference rhf
	basis 6-31G*
}

set_num_threads( 4 )
memory 2 gb

molecule MOL {
0 1

H	 2.176868	 -0.646004	 -0.217325
O	 1.337496	 -0.537251	 0.205931
C	 0.702312	 0.627605	 -0.264544
C	 -0.714990	 0.596302	 0.266387
H	 0.682322	 0.642550	 -1.350929
H	 1.215941	 1.520383	 0.085680
O	 -1.405996	 -0.526611	 -0.195820
H	 -1.257453	 1.468809	 -0.075599
H	 -0.688972	 0.618407	 1.353696
H	 -1.268711	 -1.227415	 0.428712

	symmetry c1
}
set optking {
	frozen_dihedral = ("
		10 7 4 3
	")
}

ee = optimize('scf')
oeprop('DIPOLE', 'QUADRUPOLE', 'MULLIKEN_CHARGES')
f=open( 'psi4out.xyz', 'w' )
f.write( "10  " )
f.write( str(ee) + "\n" )
f.write( MOL.save_string_xyz() )
f.close()
--------------------------------------------------------------------------

    Molecular point group: c1
  Charge       = 0
  Multiplicity = 1
  Basis Set: 6-31G*
  Basis Set:
  @DF-RHF Final Energy:  -228.92242680968292
    Total Energy =                       -228.9224268096828609
    Molecular point group: c1
  Basis Set: 6-31G*
  Basis Set:
  Basis Set: 6-31G*
  Basis Set:
  @DF-RHF Final Energy:  -228.92284170419111
    Total Energy =                       -228.9228417041911712
  Basis Set: 6-31G*
  Basis Set:
  Basis Set: 6-31G*
  Basis Set:
  @DF-RHF Final Energy:  -228.92293769483237
    Total Energy =                       -228.9229376948324557
  Basis Set: 6-31G*
  Basis Set:
  Basis Set: 6-31G*
  Basis Set:
  @DF-RHF Final Energy:  -228.92294278856141
    Total Energy =                       -228.9229427885614143
  Basis Set: 6-31G*
  Basis Set:
  Charge       = 0
  Multiplicity = 1
  Basis Set: 6-31G*
  Basis Set:

    Orbital Energies (a.u.)
    -----------------------

    Doubly Occupied:

       1A    -20.559965     2A    -20.550739     3A    -11.270129
       4A    -11.268814     5A     -1.374406     6A     -1.350600
       7A     -1.001164     8A     -0.837585     9A     -0.723565
      10A     -0.690539    11A     -0.631542    12A     -0.601026
      13A     -0.577312    14A     -0.520515    15A     -0.491372
      16A     -0.447599    17A     -0.432174

  @DF-RHF Final Energy:  -228.92294308017125

   => Energetics <=

    Nuclear Repulsion Energy =            133.8022356898035241
    One-Electron Energy =                -578.7922652503941663
    Two-Electron Energy =                 216.0670864804194480
    DFT Exchange-Correlation Energy =       0.0000000000000000
    Empirical Dispersion Energy =           0.0000000000000000
    PCM Polarization Energy =               0.0000000000000000
    EFP Energy =                            0.0000000000000000
    Total Energy =                       -228.9229430801711942
    Molecular point group: c1
  Basis Set: 6-31G*
  Basis Set:

  -Total Gradient:
     Atom            X                  Y                   Z
    ------   -----------------  -----------------  -----------------
       1        0.000019904203    -0.000007685349     0.000004895886
       2        0.000004481765    -0.000002241412    -0.000002212616
       3       -0.000793004277     0.001406954528    -0.001890988183
       4        0.000351666489    -0.001654003157     0.003072646178
       5        0.000001931292     0.000006192356    -0.000013336100
       6        0.000007900450    -0.000021696829     0.000011056638
       7        0.003479109271    -0.000845657290    -0.003259780699
       8        0.000014891587     0.000010068195     0.000002281910
       9        0.000007676687     0.000013426453     0.000012718284
      10       -0.003094557464     0.001094642506     0.002062718701

  **** Optimization is complete! (in 5 steps) ****
    Final optimized geometry and variables:
    Molecular point group: c1

    Geometry (in Angstrom), charge = 0, multiplicity = 1:

    H            2.208039457598    -0.629577238509    -0.208375705032
    O            1.383366735362    -0.512500346462     0.240715505110
    C            0.701699452501     0.597957452472    -0.285966494816
    C           -0.704929618877     0.576258605930     0.268421161976
    H            0.654495318277     0.549472207196    -1.370183506946
    H            1.195807532031     1.526391796061    -0.002963979444
    O           -1.434495727717    -0.509271419581    -0.232399239792
    H           -1.222447009342     1.478934187999    -0.036057429131
    H           -0.666651025539     0.562887802639     1.353930219657
    H           -1.319329023297    -1.253038791825     0.340574507664

  Mulliken Charges: (a.u.)
   Center  Symbol    Alpha    Beta     Spin     Total
       1     H     0.27835  0.27835  0.00000  0.44329
       2     O     4.37461  4.37461  0.00000 -0.74922
       3     C     3.00185  3.00185  0.00000 -0.00371
       4     C     3.00452  3.00452  0.00000 -0.00904
       5     H     0.42287  0.42287  0.00000  0.15427
       6     H     0.43252  0.43252  0.00000  0.13495
       7     O     4.36905  4.36905  0.00000 -0.73810
       8     H     0.41835  0.41835  0.00000  0.16331
       9     H     0.42236  0.42236  0.00000  0.15529
      10     H     0.27552  0.27552  0.00000  0.44896

   Total alpha = 17.00000, Total beta = 17.00000, Total charge = -0.00000
