                              Psi4 1.0.54 Driver

  ==> Input File <==

--------------------------------------------------------------------------
set {
	reference rhf
	basis cc-pvtz
}

set_num_threads( 4 )
memory 2 gb

molecule MOL {
0 1

H	 5.269878	 0.195679	 1.068175
C	 4.673900	 -0.208485	 0.258034
C	 3.190199	 -0.204714	 0.610086
H	 4.865136	 0.391893	 -0.624684
H	 5.027838	 -1.214511	 0.056939
C	 2.319208	 -0.778154	 -0.505491
H	 2.876954	 0.809861	 0.827925
H	 3.035335	 -0.782733	 1.518235
C	 0.821762	 -0.618818	 -0.262278
H	 2.576070	 -0.305084	 -1.445201
H	 2.535777	 -1.836882	 -0.614929
C	 0.304012	 0.802765	 -0.401992
H	 0.265977	 -1.214625	 -0.981918
H	 0.543421	 -1.003045	 0.714664
C	 -1.053931	 1.114329	 0.196580
O	 0.924215	 1.639351	 -0.975357
C	 -2.206858	 0.341953	 -0.453464
H	 -1.210962	 2.179028	 0.088894
H	 -1.021124	 0.886330	 1.258718
C	 -3.567828	 0.748313	 0.105374
H	 -2.192819	 0.515966	 -1.525900
H	 -2.068969	 -0.725023	 -0.310109
C	 -4.724977	 -0.007744	 -0.538449
H	 -3.708851	 1.815358	 -0.038158
H	 -3.578844	 0.580327	 1.178795
H	 -4.758645	 0.166138	 -1.608642
H	 -4.631187	 -1.077010	 -0.380543
H	 -5.675576	 0.305253	 -0.122870

	symmetry c1
}
set optking {
	frozen_dihedral = ("
		10 6 3 2
	")
}

ee,wfn = optimize('scf', return_wfn=True)
oeprop( wfn, 'DIPOLE', 'QUADRUPOLE', 'MULLIKEN_CHARGES')
f=open( 'psi4out.xyz', 'w' )
f.write( "28  " )
f.write( str(ee) + "\n" )
f.write( MOL.save_string_xyz() )
f.close()
--------------------------------------------------------------------------

    Molecular point group: c1
  Charge       = 0
  Multiplicity = 1
  Basis Set: CC-PVTZ
  Basis Set:
  @DF-RHF Final Energy:  -426.31966311185454
    Total Energy =                       -426.3196631118540836
    Molecular point group: c1
  Basis Set: CC-PVTZ
  Basis Set:
  Basis Set: CC-PVTZ
  Basis Set:
  @DF-RHF Final Energy:  -426.31968825946467
    Total Energy =                       -426.3196882594638737
  Basis Set: CC-PVTZ
  Basis Set:
  Basis Set: CC-PVTZ
  Basis Set:
  @DF-RHF Final Energy:  -426.31966787027704
    Total Energy =                       -426.3196678702772715
  Basis Set: CC-PVTZ
  Basis Set:
  Basis Set: CC-PVTZ
  Basis Set:
  @DF-RHF Final Energy:  -426.31969205382529
    Total Energy =                       -426.3196920538248378
  Basis Set: CC-PVTZ
  Basis Set:
  Basis Set: CC-PVTZ
  Basis Set:
  @DF-RHF Final Energy:  -426.31968811637500
    Total Energy =                       -426.3196881163745502
  Basis Set: CC-PVTZ
  Basis Set:
  Charge       = 0
  Multiplicity = 1
  Basis Set: CC-PVTZ
  Basis Set:

    Orbital Energies (a.u.)
    -----------------------

    Doubly Occupied:

       1A    -20.536636     2A    -11.316536     3A    -11.229853
       4A    -11.228383     5A    -11.226860     6A    -11.223830
       7A    -11.214534     8A    -11.214259     9A    -11.211064
      10A    -11.203616    11A     -1.396541    12A     -1.096161
      13A     -1.078820    14A     -1.023592    15A     -0.991759
      16A     -0.908070    17A     -0.873877    18A     -0.809369
      19A     -0.800242    20A     -0.724469    21A     -0.670777
      22A     -0.653879    23A     -0.629387    24A     -0.621523
      25A     -0.611653    26A     -0.589495    27A     -0.577407
      28A     -0.575296    29A     -0.543588    30A     -0.532914
      31A     -0.522745    32A     -0.506447    33A     -0.501702
      34A     -0.485291    35A     -0.478914    36A     -0.476375
      37A     -0.472475    38A     -0.466017    39A     -0.456879
      40A     -0.394318

  @DF-RHF Final Energy:  -426.31969347249265

   => Energetics <=

    Nuclear Repulsion Energy =            532.1144723124549500
    One-Electron Energy =               -1632.7172238179589385
    Two-Electron Energy =                 674.2830580330114572
    DFT Exchange-Correlation Energy =       0.0000000000000000
    Empirical Dispersion Energy =           0.0000000000000000
    PCM Polarization Energy =               0.0000000000000000
    EFP Energy =                            0.0000000000000000
    Total Energy =                       -426.3196934724924176
    Molecular point group: c1
  Basis Set: CC-PVTZ
  Basis Set:

  -Total Gradient:
     Atom            X                  Y                   Z
    ------   -----------------  -----------------  -----------------
       1        0.000009973762     0.000009788960     0.000025087860
       2       -0.000110175856     0.001000574202    -0.000420547652
       3        0.000359374405    -0.001638179912     0.000523941114
       4       -0.000004526350     0.000015986925    -0.000021622748
       5        0.000017018508    -0.000035767249    -0.000008560788
       6       -0.001293134582     0.001727799075     0.000181621782
       7       -0.000000165058     0.000007384498     0.000004019545
       8       -0.000001139600     0.000002367835    -0.000008963244
       9       -0.000017236657     0.000000899563     0.000002401038
      10        0.001020188725    -0.001078417410    -0.000267091468
      11        0.000003292326    -0.000010213837    -0.000007388758
      12       -0.000013784124     0.000001000073     0.000022062966
      13        0.000006269518     0.000000102154    -0.000003746119
      14        0.000009922332    -0.000002066705    -0.000003278069
      15       -0.000009943718    -0.000003858671    -0.000029423757
      16        0.000014821748     0.000002046322    -0.000006054694
      17        0.000025298923     0.000012028267     0.000027377021
      18        0.000003072706    -0.000000795562     0.000001344524
      19        0.000008496105     0.000000320092     0.000008566657
      20       -0.000027092179    -0.000010764056    -0.000019697610
      21        0.000001790371     0.000010182466    -0.000041854950
      22        0.000007349406    -0.000039911257     0.000004066725
      23        0.000021602501     0.000010444790     0.000016848847
      24       -0.000008631853     0.000043585940    -0.000007161438
      25       -0.000003087863    -0.000009693354     0.000042274465
      26        0.000001855202     0.000009670848    -0.000034813643
      27        0.000005743609    -0.000036227216     0.000005118714
      28       -0.000027152307     0.000011713216     0.000015473676

  **** Optimization is complete! (in 6 steps) ****
    Final optimized geometry and variables:
    Molecular point group: c1

    Geometry (in Angstrom), charge = 0, multiplicity = 1:

    H            5.213324044367    -0.134394125582     1.261833533276
    C            4.610247249899    -0.509715521893     0.443047648594
    C            3.127738290507    -0.497109876329     0.799222605354
    H            4.803788305418     0.112016579192    -0.423909997230
    H            4.952641401031    -1.513990212056     0.213831465073
    C            2.247958103657    -1.049849563864    -0.320712105927
    H            2.829986065374     0.521000457024     1.024143965280
    H            2.964484866748    -1.077930309749     1.703669981540
    C            0.752689700654    -0.896197762033    -0.064986542021
    H            2.504726294802    -0.569268772321    -1.256398303818
    H            2.465006199189    -2.106794276298    -0.447723423610
    C            0.231473699858     0.525548139347    -0.189273411464
    H            0.191906284754    -1.488397761557    -0.783538866449
    H            0.483439519650    -1.287557013830     0.911810711841
    C           -1.128041390212     0.826897648529     0.410922751421
    O            0.850289142636     1.370351599894    -0.751901168487
    C           -2.278705396077     0.063153700275    -0.253157737853
    H           -1.285900973202     1.892883505061     0.318326235980
    H           -1.097630240359     0.583435858823     1.469667965366
    C           -3.641326155271     0.460299043276     0.308319550740
    H           -2.262197976639     0.252966805631    -1.322904718173
    H           -2.140336825308    -1.005738670868    -0.125065197587
    C           -4.795827071481    -0.290697953215    -0.345978585955
    H           -3.784375693481     1.528695157006     0.176936912682
    H           -3.653577586801     0.279743571399     1.379733491470
    H           -4.828973779717    -0.103447838334    -1.413971098451
    H           -4.699286127779    -1.361647299570    -0.201393000730
    H           -5.747626330768     0.014587952847     0.072680937248

  Mulliken Charges: (a.u.)
   Center  Symbol    Alpha    Beta     Spin     Total
       1     H     0.44894  0.44894  0.00000  0.10211
       2     C     3.15222  3.15222  0.00000 -0.30443
       3     C     3.08220  3.08220  0.00000 -0.16440
       4     H     0.45081  0.45081  0.00000  0.09839
       5     H     0.45697  0.45697  0.00000  0.08605
       6     C     3.08751  3.08751  0.00000 -0.17502
       7     H     0.44882  0.44882  0.00000  0.10236
       8     H     0.45768  0.45768  0.00000  0.08465
       9     C     3.12999  3.12999  0.00000 -0.25999
      10     H     0.44450  0.44450  0.00000  0.11101
      11     H     0.44773  0.44773  0.00000  0.10454
      12     C     2.86426  2.86426  0.00000  0.27148
      13     H     0.43399  0.43399  0.00000  0.13203
      14     H     0.44300  0.44300  0.00000  0.11400
      15     C     3.09280  3.09280  0.00000 -0.18559
      16     O     4.17852  4.17852  0.00000 -0.35704
      17     C     3.10127  3.10127  0.00000 -0.20254
      18     H     0.43797  0.43797  0.00000  0.12407
      19     H     0.44945  0.44945  0.00000  0.10111
      20     C     3.08724  3.08724  0.00000 -0.17448
      21     H     0.44567  0.44567  0.00000  0.10867
      22     H     0.45046  0.45046  0.00000  0.09908
      23     C     3.14916  3.14916  0.00000 -0.29832
      24     H     0.44977  0.44977  0.00000  0.10046
      25     H     0.45364  0.45364  0.00000  0.09271
      26     H     0.45343  0.45343  0.00000  0.09315
      27     H     0.45522  0.45522  0.00000  0.08956
      28     H     0.44680  0.44680  0.00000  0.10639

   Total alpha = 40.00000, Total beta = 40.00000, Total charge = -0.00000

*** Psi4 exiting successfully. Buy a developer a beer!
