  ==> Input File <==

--------------------------------------------------------------------------
set {
	reference rhf
	basis 6-31G*
}

set_num_threads( 1 )
memory 2 gb

molecule MOL {
0 1

H	 -2.499100	 -0.730091	 -0.745082
O	 -2.347518	 -0.290803	 0.079804
C	 -1.184022	 0.487508	 -0.006784
C	 0.062599	 -0.378592	 0.031606
H	 -1.176523	 1.099369	 -0.904519
H	 -1.187323	 1.153111	 0.844927
O	 1.171513	 0.459272	 -0.058250
H	 0.050699	 -1.089204	 -0.797170
H	 0.078739	 -0.954914	 0.954740
C	 1.476022	 0.877274	 -1.351189
H	 0.655849	 1.442248	 -1.790223
H	 2.347772	 1.514015	 -1.291893
H	 1.699159	 0.032471	 -1.999501

	symmetry c1
}
set optking {
	frozen_dihedral = ("
		8 4 3 5,
		1 2 3 5,
		4 7 10 13
	")
}

ee = energy('scf')
oeprop('DIPOLE', 'QUADRUPOLE', 'MULLIKEN_CHARGES')
f=open( 'psi4out.xyz', 'w' )
f.write( "13  " )
f.write( str(ee) + "\n" )
f.write( MOL.save_string_xyz() )
f.close()
--------------------------------------------------------------------------

    Molecular point group: c1

    Geometry (in Angstrom), charge = 0, multiplicity = 1:

       Center              X                  Y                   Z               Mass
    ------------   -----------------  -----------------  -----------------  -----------------
           H         -2.307312832759    -0.953821349932    -0.464417750648     1.007825032070
           O         -2.155730832759    -0.514533349932     0.360468249352    15.994914619560
           C         -0.992234832759     0.263777650068     0.273880249352    12.000000000000
           C          0.254386167241    -0.602322349932     0.312270249352    12.000000000000
           H         -0.984735832759     0.875638650068    -0.623854750648     1.007825032070
           H         -0.995535832759     0.929380650068     1.125591249352     1.007825032070
           O          1.363300167241     0.235541650068     0.222414249352    15.994914619560
           H          0.242486167241    -1.312934349932    -0.516505750648     1.007825032070
           H          0.270526167241    -1.178644349932     1.235404249352     1.007825032070
           C          1.667809167241     0.653543650068    -1.070524750648    12.000000000000
           H          0.847636167241     1.218517650068    -1.509558750648     1.007825032070
           H          2.539559167241     1.290284650068    -1.011228750648     1.007825032070
           H          1.890946167241    -0.191259349932    -1.718836750648     1.007825032070

  Charge       = 0
  Multiplicity = 1
  Basis Set: 6-31G*
  Basis Set:

    Orbital Energies (a.u.)
    -----------------------

    Doubly Occupied:

       1A    -20.562447     2A    -20.560455     3A    -11.272716
       4A    -11.271687     5A    -11.268566     6A     -1.390992
       7A     -1.365635     8A     -1.014412     9A     -0.928724
      10A     -0.837288    11A     -0.714887    12A     -0.672740
      13A     -0.662730    14A     -0.636270    15A     -0.594405
      16A     -0.578240    17A     -0.540484    18A     -0.494342
      19A     -0.483583    20A     -0.461304    21A     -0.403859

  @DF-RHF Final Energy:  -267.94493433699000

   => Energetics <=

    Nuclear Repulsion Energy =            193.5431349487560624
    One-Electron Energy =                -749.5445764432523674
    Two-Electron Energy =                 288.0565071575059051
    DFT Exchange-Correlation Energy =       0.0000000000000000
    Empirical Dispersion Energy =           0.0000000000000000
    PCM Polarization Energy =               0.0000000000000000
    EFP Energy =                            0.0000000000000000
    Total Energy =                       -267.9449343369903431

  Mulliken Charges: (a.u.)
   Center  Symbol    Alpha    Beta     Spin     Total
       1     H     0.28195  0.28195  0.00000  0.43609
       2     O     4.37107  4.37107  0.00000 -0.74213
       3     C     3.00555  3.00555  0.00000 -0.01109
       4     C     3.00814  3.00814  0.00000 -0.01628
       5     H     0.42909  0.42909  0.00000  0.14181
       6     H     0.40763  0.40763  0.00000  0.18474
       7     O     4.30331  4.30331  0.00000 -0.60663
       8     H     0.43664  0.43664  0.00000  0.12672
       9     H     0.40577  0.40577  0.00000  0.18846
      10     C     3.08386  3.08386  0.00000 -0.16772
      11     H     0.43076  0.43076  0.00000  0.13849
      12     H     0.40853  0.40853  0.00000  0.18295
      13     H     0.42770  0.42770  0.00000  0.14459

   Total alpha = 21.00000, Total beta = 21.00000, Total charge =  0.00000
