                              Psi4 1.0.54 Driver

  ==> Input File <==

--------------------------------------------------------------------------
set {
	reference rhf
	basis cc-pvtz
}

set_num_threads( 4 )
memory 2 gb

molecule MOL {
0 1

O	 1.847685	 1.294399	 -0.000190
C	 1.704209	 0.119472	 -0.000093
C	 0.380337	 -0.600947	 -0.000234
O	 2.715427	 -0.733672	 0.000025
C	 -0.824290	 0.329213	 -0.000115
H	 0.371455	 -1.255476	 -0.865660
H	 0.371410	 -1.255787	 0.864952
C	 -0.591788	 1.580084	 0.842075
H	 -1.690398	 -0.207887	 0.369552
H	 -1.058500	 0.610617	 -1.020531
C	 -1.789280	 2.525781	 0.853955
H	 -0.354937	 1.290820	 1.863583
H	 0.280022	 2.112365	 0.468095
C	 -1.557148	 3.775737	 1.696056
H	 -2.660396	 1.995458	 1.228216
H	 -2.025722	 2.816638	 -0.165681
H	 -1.351984	 3.518927	 2.730073
H	 -2.425393	 4.424365	 1.683098
H	 -0.712539	 4.346814	 1.324921
C	 4.020999	 -0.192556	 0.000019
H	 4.182809	 0.412891	 -0.879449
H	 4.692590	 -1.035653	 0.000152
H	 4.182726	 0.413087	 0.879368

	symmetry c1
}
set optking {
	frozen_dihedral = ("
		9 5 3 6
	")
}

ee,wfn = optimize('scf', return_wfn=True)
oeprop( wfn, 'DIPOLE', 'QUADRUPOLE', 'MULLIKEN_CHARGES')
f=open( 'psi4out.xyz', 'w' )
f.write( "23  " )
f.write( str(ee) + "\n" )
f.write( MOL.save_string_xyz() )
f.close()
--------------------------------------------------------------------------

    Molecular point group: c1
  Charge       = 0
  Multiplicity = 1
  Basis Set: CC-PVTZ
  Basis Set:
  @DF-RHF Final Energy:  -423.11109261740819
    Total Energy =                       -423.1110926174076212
    Molecular point group: c1
  Basis Set: CC-PVTZ
  Basis Set:
  Basis Set: CC-PVTZ
  Basis Set:
  @DF-RHF Final Energy:  -423.12218187828762
    Total Energy =                       -423.1221818782878472
  Basis Set: CC-PVTZ
  Basis Set:
  Basis Set: CC-PVTZ
  Basis Set:
  @DF-RHF Final Energy:  -423.12389858512353
    Total Energy =                       -423.1238985851230154
  Basis Set: CC-PVTZ
  Basis Set:
  Basis Set: CC-PVTZ
  Basis Set:
  @DF-RHF Final Energy:  -423.12162941103804
    Total Energy =                       -423.1216294110382705
  Basis Set: CC-PVTZ
  Basis Set:
  @DF-RHF Final Energy:  -423.12526339518519
    Total Energy =                       -423.1252633951849020
  @DF-RHF Final Energy:  -423.12477999420901
    Total Energy =                       -423.1247799942086658
  @DF-RHF Final Energy:  -423.12616231404763
    Total Energy =                       -423.1261623140474057
  @DF-RHF Final Energy:  -423.12558192540934
    Total Energy =                       -423.1255819254095059
  @DF-RHF Final Energy:  -423.12663233671947
    Total Energy =                       -423.1266323367192399
  @DF-RHF Final Energy:  -423.12671708866594
    Total Energy =                       -423.1267170886656004
  @DF-RHF Final Energy:  -423.12676289546209
    Total Energy =                       -423.1267628954614111
  @DF-RHF Final Energy:  -423.12677788313516
    Total Energy =                       -423.1267778831356736
  Basis Set: CC-PVTZ
  Basis Set:
  @DF-RHF Final Energy:  -423.12678551840571
    Total Energy =                       -423.1267855184059954
  Basis Set: CC-PVTZ
  Basis Set:
  Basis Set: CC-PVTZ
  Basis Set:
  @DF-RHF Final Energy:  -423.12679003696564
    Total Energy =                       -423.1267900369655308
  Basis Set: CC-PVTZ
  Basis Set:
  Basis Set: CC-PVTZ
  Basis Set:
  @DF-RHF Final Energy:  -423.12679180651304
    Total Energy =                       -423.1267918065120739
  Basis Set: CC-PVTZ
  Basis Set:
  Charge       = 0
  Multiplicity = 1
  Basis Set: CC-PVTZ
  Basis Set:

    Orbital Energies (a.u.)
    -----------------------

    Doubly Occupied:

       1A    -20.598729     2A    -20.530628     3A    -11.364123
       4A    -11.278680     5A    -11.233351     6A    -11.223191
       7A    -11.213681     8A    -11.211992     9A    -11.206142
      10A     -1.472657    11A     -1.364510    12A     -1.093265
      13A     -1.042572    14A     -0.986256    15A     -0.933682
      16A     -0.845653    17A     -0.797860    18A     -0.768807
      19A     -0.697559    20A     -0.682761    21A     -0.674179
      22A     -0.648291    23A     -0.611099    24A     -0.601456
      25A     -0.572757    26A     -0.565401    27A     -0.551884
      28A     -0.527771    29A     -0.525798    30A     -0.504746
      31A     -0.492836    32A     -0.471186    33A     -0.465947
      34A     -0.457133    35A     -0.454323    36A     -0.434446

  @DF-RHF Final Energy:  -423.12679213806825

   => Energetics <=

    Nuclear Repulsion Energy =            467.7542175695322157
    One-Electron Energy =               -1503.5513144576225386
    Two-Electron Energy =                 612.6703047500222965
    DFT Exchange-Correlation Energy =       0.0000000000000000
    Empirical Dispersion Energy =           0.0000000000000000
    PCM Polarization Energy =               0.0000000000000000
    EFP Energy =                            0.0000000000000000
    Total Energy =                       -423.1267921380681400
    Molecular point group: c1
  Basis Set: CC-PVTZ
  Basis Set:

  -Total Gradient:
     Atom            X                  Y                   Z
    ------   -----------------  -----------------  -----------------
       1       -0.000035776221    -0.000019710247     0.000060327290
       2        0.000026830107     0.000025061957    -0.000036445334
       3       -0.003946865179    -0.004656183602     0.004713754125
       4        0.000020963347    -0.000002331297    -0.000019877326
       5       -0.000520975108    -0.000944754666    -0.007456632085
       6        0.003382012653     0.004038280107    -0.002868187910
       7       -0.000002299848     0.000006508448     0.000007654391
       8        0.000015946638     0.000006543706    -0.000001505206
       9        0.001090782808     0.001564978618     0.005608482926
      10       -0.000009984533    -0.000004113058    -0.000005244330
      11        0.000004889787    -0.000004628004    -0.000002273952
      12       -0.000000696641    -0.000000396912    -0.000000853137
      13       -0.000002257005    -0.000003056959    -0.000000844283
      14       -0.000000614844    -0.000001145752     0.000002818160
      15       -0.000004488100    -0.000000264127    -0.000000532957
      16        0.000000482170     0.000000961245     0.000000785144
      17        0.000000177851     0.000000437447    -0.000001738239
      18        0.000000012866    -0.000001272178    -0.000000645548
      19        0.000001221582     0.000001914428    -0.000000537784
      20       -0.000018609582    -0.000008348937     0.000007194847
      21       -0.000001582278     0.000002846803     0.000011316716
      22       -0.000005767085     0.000010292678    -0.000015258146
      23        0.000006596616    -0.000011619700    -0.000001757362

  **** Optimization is complete! (in 16 steps) ****
    Final optimized geometry and variables:
    Molecular point group: c1

    Geometry (in Angstrom), charge = 0, multiplicity = 1:

    O            1.370346466592    -0.004640201856    -1.365063955937
    C            1.092252215502    -0.832108334309    -0.563619230453
    C           -0.248630660919    -1.523388678971    -0.486520477367
    O            1.946095250215    -1.277325834166     0.340735646302
    C           -1.441133936971    -0.557717987022    -0.525058461888
    H           -0.262522156787    -2.144719340676    -1.376427334480
    H           -0.277390087079    -2.158595260643     0.385770759970
    C           -1.311092755472     0.646945826178     0.408994478891
    H           -2.313857821926    -1.115651099797    -0.201137419393
    H           -1.611131281289    -0.218727282998    -1.538604581926
    C           -2.575107581940     1.501621888303     0.444542361618
    H           -1.088049841972     0.298521626054     1.415777389217
    H           -0.475662288993     1.264121375679     0.099558855106
    C           -2.451736626703     2.711699031706     1.364333821433
    H           -3.415881687006     0.891410891774     0.763462808113
    H           -2.806750487814     1.837562343883    -0.562379170509
    H           -2.251014907891     2.407711601365     2.386422882260
    H           -3.363953715028     3.297172544356     1.367070797079
    H           -1.642412501154     3.361337208994     1.048750583272
    C            3.251272903410    -0.733957383360     0.321938333863
    H            3.731626705530    -0.930152604643    -0.625025189021
    H            3.787489468832    -1.220901501359     1.120136582481
    H            3.222031622800     0.332534037777     0.488000795701

  Mulliken Charges: (a.u.)
   Center  Symbol    Alpha    Beta     Spin     Total
       1     O     4.20830  4.20830  0.00000 -0.41660
       2     C     2.79278  2.79278  0.00000  0.41443
       3     C     3.10608  3.10608  0.00000 -0.21217
       4     O     4.14851  4.14851  0.00000 -0.29702
       5     C     3.08731  3.08731  0.00000 -0.17461
       6     H     0.43852  0.43852  0.00000  0.12296
       7     H     0.43619  0.43619  0.00000  0.12761
       8     C     3.09894  3.09894  0.00000 -0.19787
       9     H     0.44968  0.44968  0.00000  0.10063
      10     H     0.44524  0.44524  0.00000  0.10952
      11     C     3.08649  3.08649  0.00000 -0.17297
      12     H     0.45389  0.45389  0.00000  0.09223
      13     H     0.44271  0.44271  0.00000  0.11459
      14     C     3.14990  3.14990  0.00000 -0.29981
      15     H     0.45509  0.45509  0.00000  0.08982
      16     H     0.45304  0.45304  0.00000  0.09391
      17     H     0.45591  0.45591  0.00000  0.08818
      18     H     0.44855  0.44855  0.00000  0.10290
      19     H     0.45367  0.45367  0.00000  0.09266
      20     C     3.03597  3.03597  0.00000 -0.07193
      21     H     0.45389  0.45389  0.00000  0.09223
      22     H     0.44521  0.44521  0.00000  0.10959
      23     H     0.45414  0.45414  0.00000  0.09173

   Total alpha = 36.00000, Total beta = 36.00000, Total charge =  0.00000

*** Psi4 exiting successfully. Buy a developer a beer!
