                              Psi4 1.0.54 Driver

  ==> Input File <==

--------------------------------------------------------------------------
set {
	reference rhf
	basis cc-pvtz
}

set_num_threads( 4 )
memory 2 gb

molecule MOL {
0 1

H	 4.610195	 0.375526	 0.154316
C	 3.750542	 -0.284094	 0.151488
C	 2.449948	 0.510008	 0.101411
H	 3.841794	 -0.940543	 -0.707456
H	 3.803868	 -0.899106	 1.043639
C	 1.214954	 -0.378662	 0.096630
H	 2.429693	 1.137018	 -0.783017
H	 2.404439	 1.180234	 0.956573
N	 -0.000662	 0.402931	 0.025049
H	 1.246683	 -1.031544	 -0.770496
H	 1.234867	 -1.031336	 0.974527
C	 -1.215959	 -0.382435	 0.027143
H	 -0.023158	 1.060625	 0.776216
C	 -2.451944	 0.502410	 -0.038737
H	 -1.196074	 -1.035336	 -0.840326
H	 -1.284002	 -1.035249	 0.902518
C	 -3.752217	 -0.292550	 0.005776
H	 -2.407325	 1.093801	 -0.946480
H	 -2.431979	 1.206234	 0.790023
H	 -3.817783	 -0.982946	 -0.828547
H	 -4.612613	 0.364348	 -0.042306
H	 -3.830160	 -0.871666	 0.919868

	symmetry c1
}
set optking {
	frozen_dihedral = ("
		15 12 14 18
	")
}

ee,wfn = optimize('scf', return_wfn=True)
oeprop( wfn, 'DIPOLE', 'QUADRUPOLE', 'MULLIKEN_CHARGES')
f=open( 'psi4out.xyz', 'w' )
f.write( "22  " )
f.write( str(ee) + "\n" )
f.write( MOL.save_string_xyz() )
f.close()
--------------------------------------------------------------------------

    Molecular point group: c1
  Charge       = 0
  Multiplicity = 1
  Basis Set: CC-PVTZ
  Basis Set:
  @DF-RHF Final Energy:  -290.49006767606642
    Total Energy =                       -290.4900676760664169
    Molecular point group: c1
  Basis Set: CC-PVTZ
  Basis Set:
  Basis Set: CC-PVTZ
  Basis Set:
  @DF-RHF Final Energy:  -290.49007237888344
    Total Energy =                       -290.4900723788834398
  Basis Set: CC-PVTZ
  Basis Set:
  Charge       = 0
  Multiplicity = 1
  Basis Set: CC-PVTZ
  Basis Set:

    Orbital Energies (a.u.)
    -----------------------

    Doubly Occupied:

       1A    -15.527985     2A    -11.236208     3A    -11.236144
       4A    -11.211806     5A    -11.211769     6A    -11.207526
       7A    -11.207474     8A     -1.207383     9A     -1.060432
      10A     -1.027065    11A     -0.928742    12A     -0.868885
      13A     -0.811908    14A     -0.793892    15A     -0.669857
      16A     -0.627228    17A     -0.616169    18A     -0.614602
      19A     -0.574471    20A     -0.563297    21A     -0.529653
      22A     -0.529163    23A     -0.515780    24A     -0.485423
      25A     -0.483157    26A     -0.474691    27A     -0.466298
      28A     -0.451939    29A     -0.361392

  @DF-RHF Final Energy:  -290.49007372982254

   => Energetics <=

    Nuclear Repulsion Energy =            313.6729000317914711
    One-Electron Energy =               -1013.3252695360525877
    Two-Electron Energy =                 409.1622957744386326
    DFT Exchange-Correlation Energy =       0.0000000000000000
    Empirical Dispersion Energy =           0.0000000000000000
    PCM Polarization Energy =               0.0000000000000000
    EFP Energy =                            0.0000000000000000
    Total Energy =                       -290.4900737298224271
    Molecular point group: c1
  Basis Set: CC-PVTZ
  Basis Set:

  -Total Gradient:
     Atom            X                  Y                   Z
    ------   -----------------  -----------------  -----------------
       1        0.000000680767     0.000000506746    -0.000000202665
       2       -0.000000753610     0.000001557089     0.000000658256
       3        0.000000204748    -0.000004594304    -0.000005158168
       4       -0.000000441959    -0.000000375959    -0.000000983464
       5       -0.000000432263    -0.000000355637     0.000000312507
       6        0.000016992829     0.000010851560     0.000011825087
       7        0.000000724981     0.000000197700     0.000000340005
       8       -0.000001587551    -0.000002115476    -0.000000916454
       9       -0.000037179908    -0.000030058114     0.000018965498
      10       -0.000005630514     0.000003981659     0.000000175483
      11       -0.000004255549     0.000002962732    -0.000002518665
      12       -0.000434038253    -0.000574672031     0.000293736202
      13        0.000011629120     0.000009157136    -0.000005076912
      14        0.000430683297     0.000595731504     0.000289229906
      15        0.000298484397     0.000404728946    -0.000323932462
      16        0.000005160780    -0.000010657650     0.000023531862
      17        0.000014838760     0.000013977915    -0.000000398283
      18       -0.000292439873    -0.000422910982    -0.000312043164
      19       -0.000001547179     0.000003501983     0.000011832651
      20       -0.000000451083     0.000005244657     0.000002352814
      21       -0.000000436305    -0.000003217047    -0.000002830739
      22       -0.000000205624    -0.000003442427     0.000001100705

  **** Optimization is complete! (in 3 steps) ****
    Final optimized geometry and variables:
    Molecular point group: c1

    Geometry (in Angstrom), charge = 0, multiplicity = 1:

    H            4.610399766706     0.379279942203     0.095257654836
    C            3.751828273579    -0.281775639129     0.092301511596
    C            2.449885874421     0.510283447337     0.046349634318
    H            3.842646522039    -0.936021786893    -0.768370805484
    H            3.807596988413    -0.898779113448     0.982930529569
    C            1.216361422609    -0.380411579631     0.040342052715
    H            2.427429790831     1.139934145584    -0.836130907962
    H            2.404312275612     1.177705757804     0.903700861516
    N           -0.000506434303     0.399283637474    -0.029123784519
    H            1.249019938020    -1.031531104295    -0.828085926644
    H            1.237801038411    -1.034783578738     0.916971042629
    C           -1.214911812426    -0.387674693707    -0.027451756623
    H           -0.023296229089     1.055910959630     0.722949081391
    C           -2.450931394364     0.496570288649    -0.102230172048
    H           -1.190102272156    -1.041159241104    -0.894331138347
    H           -1.284678405591    -1.037447683103     0.849949040546
    C           -3.750459414997    -0.300578268733    -0.071447738261
    H           -2.400962869131     1.086974339272    -1.010323188923
    H           -2.439627188159     1.199249147434     0.727435190438
    H           -3.803254220135    -0.995569946041    -0.902940425905
    H           -4.611262445910     0.354492649118    -0.135264766903
    H           -3.840096312154    -0.875016261703     0.844484958239

  Mulliken Charges: (a.u.)
   Center  Symbol    Alpha    Beta     Spin     Total
       1     H     0.44771  0.44771  0.00000  0.10458
       2     C     3.15360  3.15360  0.00000 -0.30719
       3     C     3.08021  3.08021  0.00000 -0.16043
       4     H     0.45475  0.45475  0.00000  0.09049
       5     H     0.45613  0.45613  0.00000  0.08774
       6     C     3.02257  3.02257  0.00000 -0.04514
       7     H     0.44914  0.44914  0.00000  0.10171
       8     H     0.45969  0.45969  0.00000  0.08062
       9     N     3.63884  3.63884  0.00000 -0.27768
      10     H     0.45919  0.45919  0.00000  0.08163
      11     H     0.47498  0.47498  0.00000  0.05005
      12     C     3.02297  3.02297  0.00000 -0.04594
      13     H     0.44553  0.44553  0.00000  0.10894
      14     C     3.07959  3.07959  0.00000 -0.15918
      15     H     0.45880  0.45880  0.00000  0.08240
      16     H     0.47481  0.47481  0.00000  0.05038
      17     C     3.15376  3.15376  0.00000 -0.30751
      18     H     0.44925  0.44925  0.00000  0.10151
      19     H     0.45978  0.45978  0.00000  0.08044
      20     H     0.45487  0.45487  0.00000  0.09027
      21     H     0.44771  0.44771  0.00000  0.10458
      22     H     0.45614  0.45614  0.00000  0.08773

   Total alpha = 29.00000, Total beta = 29.00000, Total charge = -0.00000

*** Psi4 exiting successfully. Buy a developer a beer!
