  ==> Input File <==

--------------------------------------------------------------------------
set {
	reference rhf
	basis 6-31G*
}

set_num_threads( 4 )
memory 2 gb

molecule MOL {
0 1

H	 -0.000158	 1.970498	 0.756846
O	 -0.000074	 1.880206	 -0.189275
C	 -0.000015	 0.544847	 -0.545111
C	 -1.047245	 0.295598	 -1.625468
C	 -0.172694	 -0.323217	 0.696922
H	 0.966238	 0.316595	 -0.969799
F	 -0.770788	 1.024246	 -2.685745
F	 -1.089322	 -0.966109	 -1.997869
F	 -2.252299	 0.641055	 -1.201085
F	 0.817968	 -0.099827	 1.533716
F	 -0.182157	 -1.607812	 0.410381
F	 -1.302450	 -0.031343	 1.321454

	symmetry c1
}
set optking {
	frozen_dihedral = ("
		6 3 2 1
	")
}

ee = optimize('scf')
oeprop('DIPOLE', 'QUADRUPOLE', 'MULLIKEN_CHARGES')
f=open( 'psi4out.xyz', 'w' )
f.write( "12  " )
f.write( str(ee) + "\n" )
f.write( MOL.save_string_xyz() )
f.close()
--------------------------------------------------------------------------

    Molecular point group: c1
  Charge       = 0
  Multiplicity = 1
  Basis Set: 6-31G*
  Basis Set:
  @DF-RHF Final Energy:  -786.27188477994844
    Total Energy =                       -786.2718847799486639
    Molecular point group: c1
  Basis Set: 6-31G*
  Basis Set:
  Basis Set: 6-31G*
  Basis Set:
  @DF-RHF Final Energy:  -786.27320833015222
    Total Energy =                       -786.2732083301525563
  Basis Set: 6-31G*
  Basis Set:
  Basis Set: 6-31G*
  Basis Set:
  @DF-RHF Final Energy:  -786.27349990096559
    Total Energy =                       -786.2734999009660442
  Basis Set: 6-31G*
  Basis Set:
  Basis Set: 6-31G*
  Basis Set:
  @DF-RHF Final Energy:  -786.27356727950780
    Total Energy =                       -786.2735672795070059
  Basis Set: 6-31G*
  Basis Set:
  Basis Set: 6-31G*
  Basis Set:
  @DF-RHF Final Energy:  -786.27358484612421
    Total Energy =                       -786.2735848461236401
  Basis Set: 6-31G*
  Basis Set:
  Basis Set: 6-31G*
  Basis Set:
  @DF-RHF Final Energy:  -786.27358752042880
    Total Energy =                       -786.2735875204289187
  Basis Set: 6-31G*
  Basis Set:
  Charge       = 0
  Multiplicity = 1
  Basis Set: 6-31G*
  Basis Set:

    Orbital Energies (a.u.)
    -----------------------

    Doubly Occupied:

       1A    -26.370388     2A    -26.368476     3A    -26.366940
       4A    -26.355142     5A    -26.351598     6A    -26.351313
       7A    -20.613855     8A    -11.533834     9A    -11.519638
      10A    -11.349356    11A     -1.770158    12A     -1.753577
      13A     -1.667356    14A     -1.664610    15A     -1.650653
      16A     -1.649084    17A     -1.431788    18A     -1.103962
      19A     -0.998207    20A     -0.936786    21A     -0.869570
      22A     -0.862405    23A     -0.856681    24A     -0.840937
      25A     -0.830515    26A     -0.796654    27A     -0.748382
      28A     -0.734528    29A     -0.718396    30A     -0.716821
      31A     -0.704724    32A     -0.689613    33A     -0.685520
      34A     -0.669603    35A     -0.667877    36A     -0.664363
      37A     -0.652705    38A     -0.649526    39A     -0.615232
      40A     -0.547116    41A     -0.502706

  @DF-RHF Final Energy:  -786.27358811367810

   => Energetics <=

    Nuclear Repulsion Energy =            670.7169028841566387
    One-Electron Energy =               -2428.3197930090545924
    Two-Electron Energy =                 971.3293020112201930
    DFT Exchange-Correlation Energy =       0.0000000000000000
    Empirical Dispersion Energy =           0.0000000000000000
    PCM Polarization Energy =               0.0000000000000000
    EFP Energy =                            0.0000000000000000
    Total Energy =                       -786.2735881136776470
    Molecular point group: c1
  Basis Set: 6-31G*
  Basis Set:

  -Total Gradient:
     Atom            X                  Y                   Z
    ------   -----------------  -----------------  -----------------
       1       -0.000984259423     0.000005420862     0.000029885532
       2        0.001151897117     0.000061649008    -0.000237113013
       3        0.000188687075    -0.000231209578     0.000953737131
       4        0.000006566479    -0.000021816772    -0.000023769841
       5       -0.000000355837    -0.000020556343     0.000010598705
       6       -0.000327891496     0.000179686648    -0.000764994145
       7        0.000001445621     0.000038504688    -0.000022590150
       8       -0.000001910812    -0.000031221841     0.000023784193
       9       -0.000008705953     0.000000005686     0.000018275163
      10       -0.000022218078    -0.000011538691    -0.000000236040
      11        0.000000749379     0.000033056300    -0.000007756424
      12       -0.000004004075    -0.000001979978     0.000020178894

  **** Optimization is complete! (in 7 steps) ****
    Final optimized geometry and variables:
    Molecular point group: c1

    Geometry (in Angstrom), charge = 0, multiplicity = 1:

    H            0.683449853737     1.905016838515     1.128462877887
    O            0.658789931625     1.759323210746     0.192571470449
    C            0.639796671070     0.411787821134    -0.128446781178
    C           -0.439480448397     0.211124989679    -1.185950260394
    C            0.440825887398    -0.457835201115     1.106390648688
    H            1.578454604518     0.110659743895    -0.578344319185
    F           -0.151052302478     0.932669687874    -2.248540846020
    F           -0.498102442411    -1.055287502322    -1.558165799446
    F           -1.629958544446     0.567799546678    -0.758027177127
    F            1.352926456602    -0.124018025059     2.009412779411
    F            0.586162774493    -1.733480120032     0.832253557547
    F           -0.739571827832    -0.280068194292     1.663140830008

  Mulliken Charges: (a.u.)
   Center  Symbol    Alpha    Beta     Spin     Total
       1     H     0.26271  0.26271  0.00000  0.47458
       2     O     4.37224  4.37224  0.00000 -0.74448
       3     C     3.02272  3.02272  0.00000 -0.04543
       4     C     2.43814  2.43814  0.00000  1.12372
       5     C     2.46455  2.46455  0.00000  1.07090
       6     H     0.38457  0.38457  0.00000  0.23087
       7     F     4.67641  4.67641  0.00000 -0.35283
       8     F     4.67917  4.67917  0.00000 -0.35834
       9     F     4.67312  4.67312  0.00000 -0.34623
      10     F     4.68351  4.68351  0.00000 -0.36702
      11     F     4.67054  4.67054  0.00000 -0.34108
      12     F     4.67233  4.67233  0.00000 -0.34466

   Total alpha = 41.00000, Total beta = 41.00000, Total charge =  0.00000
