  ==> Input File <==

--------------------------------------------------------------------------
set {
	reference rhf
	basis 6-31G*
}

set_num_threads( 1 )
memory 2 gb

molecule MOL {
0 1

H	 4.738664	 -0.524504	 2.882328
C	 4.248167	 -1.087041	 2.093983
C	 2.760847	 -0.745282	 2.014874
H	 4.751165	 -0.854906	 1.159934
H	 4.399429	 -2.143559	 2.298160
C	 2.036720	 -1.527119	 0.916611
H	 2.646749	 0.319032	 1.836493
H	 2.292090	 -0.955689	 2.974920
C	 0.542007	 -1.219308	 0.825221
H	 2.498368	 -1.319593	 -0.042273
H	 2.155597	 -2.592346	 1.101544
C	 0.219052	 0.162428	 0.275906
H	 0.058963	 -1.936532	 0.163383
H	 0.060156	 -1.341520	 1.792723
C	 -1.181045	 0.701995	 0.511084
O	 1.025697	 0.797316	 -0.334542
C	 -2.285934	 -0.139295	 -0.145128
H	 -1.200098	 1.713320	 0.123047
H	 -1.356408	 0.752884	 1.584090
C	 -3.651768	 0.085446	 0.506485
H	 -2.346596	 0.110469	 -1.202272
H	 -2.034737	 -1.195320	 -0.088721
C	 -4.759797	 -0.746382	 -0.137905
H	 -3.908762	 1.140117	 0.445781
H	 -3.588286	 -0.154158	 1.565709
H	 -4.868882	 -0.505166	 -1.191300
H	 -4.548009	 -1.809175	 -0.062213
H	 -5.715422	 -0.564821	 0.343442

	symmetry c1
}
set optking {
	frozen_dihedral = ("
		10 6 3 2,
		16 12 15 17
	")
}

ee = energy('scf')
oeprop('DIPOLE', 'QUADRUPOLE', 'MULLIKEN_CHARGES')
f=open( 'psi4out.xyz', 'w' )
f.write( "28  " )
f.write( str(ee) + "\n" )
f.write( MOL.save_string_xyz() )
f.close()
--------------------------------------------------------------------------

    Molecular point group: c1

    Geometry (in Angstrom), charge = 0, multiplicity = 1:

       Center              X                  Y                   Z               Mass
    ------------   -----------------  -----------------  -----------------  -----------------
           H          4.840452450848    -0.148975870673     2.229500683721     1.007825032070
           C          4.349955450848    -0.711512870673     1.441155683721    12.000000000000
           C          2.862635450848    -0.369753870673     1.362046683721    12.000000000000
           H          4.852953450848    -0.479377870673     0.507106683721     1.007825032070
           H          4.501217450848    -1.768030870673     1.645332683721     1.007825032070
           C          2.138508450848    -1.151590870673     0.263783683721    12.000000000000
           H          2.748537450848     0.694560129327     1.183665683721     1.007825032070
           H          2.393878450848    -0.580160870673     2.322092683721     1.007825032070
           C          0.643795450848    -0.843779870673     0.172393683721    12.000000000000
           H          2.600156450848    -0.944064870673    -0.695100316279     1.007825032070
           H          2.257385450848    -2.216817870673     0.448716683721     1.007825032070
           C          0.320840450848     0.537956129327    -0.376921316279    12.000000000000
           H          0.160751450848    -1.561003870673    -0.489444316279     1.007825032070
           H          0.161944450848    -0.965991870673     1.139895683721     1.007825032070
           C         -1.079256549152     1.077523129327    -0.141743316279    12.000000000000
           O          1.127485450848     1.172844129327    -0.987369316279    15.994914619560
           C         -2.184145549152     0.236233129327    -0.797955316279    12.000000000000
           H         -1.098309549152     2.088848129327    -0.529780316279     1.007825032070
           H         -1.254619549152     1.128412129327     0.931262683721     1.007825032070
           C         -3.549979549152     0.460974129327    -0.146342316279    12.000000000000
           H         -2.244807549152     0.485997129327    -1.855099316279     1.007825032070
           H         -1.932948549152    -0.819791870673    -0.741548316279     1.007825032070
           C         -4.658008549152    -0.370853870673    -0.790732316279    12.000000000000
           H         -3.806973549152     1.515645129327    -0.207046316279     1.007825032070
           H         -3.486497549152     0.221370129327     0.912881683721     1.007825032070
           H         -4.767093549152    -0.129637870673    -1.844127316279     1.007825032070
           H         -4.446220549152    -1.433646870673    -0.715040316279     1.007825032070
           H         -5.613633549152    -0.189292870673    -0.309385316279     1.007825032070

  Charge       = 0
  Multiplicity = 1
  Basis Set: 6-31G*
  Basis Set:

    Orbital Energies (a.u.)
    -----------------------

    Doubly Occupied:

       1A    -20.548079     2A    -11.322132     3A    -11.231704
       4A    -11.230109     5A    -11.228347     6A    -11.226484
       7A    -11.216649     8A    -11.216519     9A    -11.212441
      10A    -11.205804    11A     -1.393187    12A     -1.095621
      13A     -1.077439    14A     -1.022594    15A     -0.990877
      16A     -0.907230    17A     -0.873782    18A     -0.810156
      19A     -0.799702    20A     -0.722892    21A     -0.665856
      22A     -0.657231    23A     -0.627069    24A     -0.618814
      25A     -0.609825    26A     -0.589505    27A     -0.576318
      28A     -0.573935    29A     -0.543829    30A     -0.535146
      31A     -0.520322    32A     -0.507807    33A     -0.497252
      34A     -0.485507    35A     -0.478068    36A     -0.476534
      37A     -0.471253    38A     -0.465220    39A     -0.454553
      40A     -0.392283

  @DF-RHF Final Energy:  -426.16691536277494

   => Energetics <=

    Nuclear Repulsion Energy =            532.3974712461786112
    One-Electron Energy =               -1632.9726790164993417
    Two-Electron Energy =                 674.4082924075459005
    DFT Exchange-Correlation Energy =       0.0000000000000000
    Empirical Dispersion Energy =           0.0000000000000000
    PCM Polarization Energy =               0.0000000000000000
    EFP Energy =                            0.0000000000000000
    Total Energy =                       -426.1669153627748301

  Mulliken Charges: (a.u.)
   Center  Symbol    Alpha    Beta     Spin     Total
       1     H     0.41932  0.41932  0.00000  0.16136
       2     C     3.24014  3.24014  0.00000 -0.48028
       3     C     3.15652  3.15652  0.00000 -0.31304
       4     H     0.41828  0.41828  0.00000  0.16345
       5     H     0.42362  0.42362  0.00000  0.15277
       6     C     3.14872  3.14872  0.00000 -0.29745
       7     H     0.41046  0.41046  0.00000  0.17909
       8     H     0.42769  0.42769  0.00000  0.14462
       9     C     3.21226  3.21226  0.00000 -0.42452
      10     H     0.40651  0.40651  0.00000  0.18698
      11     H     0.42194  0.42194  0.00000  0.15611
      12     C     2.73250  2.73250  0.00000  0.53500
      13     H     0.40307  0.40307  0.00000  0.19387
      14     H     0.41316  0.41316  0.00000  0.17368
      15     C     3.20247  3.20247  0.00000 -0.40494
      16     O     4.26616  4.26616  0.00000 -0.53231
      17     C     3.16392  3.16392  0.00000 -0.32783
      18     H     0.39881  0.39881  0.00000  0.20238
      19     H     0.41257  0.41257  0.00000  0.17486
      20     C     3.15281  3.15281  0.00000 -0.30561
      21     H     0.41161  0.41161  0.00000  0.17679
      22     H     0.41827  0.41827  0.00000  0.16347
      23     C     3.24048  3.24048  0.00000 -0.48095
      24     H     0.41902  0.41902  0.00000  0.16196
      25     H     0.42194  0.42194  0.00000  0.15611
      26     H     0.41962  0.41962  0.00000  0.16076
      27     H     0.42109  0.42109  0.00000  0.15782
      28     H     0.41707  0.41707  0.00000  0.16585

   Total alpha = 40.00000, Total beta = 40.00000, Total charge = -0.00000
