  ==> Input File <==

--------------------------------------------------------------------------
set {
	reference rhf
	basis 6-31G*
}

set_num_threads( 4 )
memory 2 gb

molecule MOL {
0 1

H	 2.091023	 -1.015764	 -0.428264
C	 1.951159	 -0.223429	 0.317018
C	 0.692068	 0.589600	 0.160137
O	 2.762184	 -0.055885	 1.169248
C	 -0.558097	 -0.297372	 0.091132
H	 0.791645	 1.202255	 -0.728243
H	 0.616171	 1.253469	 1.020572
C	 -1.850991	 0.512573	 -0.019058
H	 -0.476753	 -0.965681	 -0.762987
H	 -0.604799	 -0.930658	 0.975228
C	 -3.096943	 -0.368295	 -0.099594
H	 -1.800724	 1.150330	 -0.898172
H	 -1.931651	 1.177355	 0.838044
H	 -3.060452	 -1.020287	 -0.967456
H	 -3.996858	 0.233488	 -0.175704
H	 -3.191959	 -0.995686	 0.782074

	symmetry c1
}
set optking {
	frozen_dihedral = ("
		4 2 3 6
	")
}

ee = optimize('scf')
oeprop('DIPOLE', 'QUADRUPOLE', 'MULLIKEN_CHARGES')
f=open( 'psi4out.xyz', 'w' )
f.write( "16  " )
f.write( str(ee) + "\n" )
f.write( MOL.save_string_xyz() )
f.close()
--------------------------------------------------------------------------

    Molecular point group: c1
  Charge       = 0
  Multiplicity = 1
  Basis Set: 6-31G*
  Basis Set:
  @DF-RHF Final Energy:  -270.01956051984951
    Total Energy =                       -270.0195605198492785
    Molecular point group: c1
  Basis Set: 6-31G*
  Basis Set:
  Basis Set: 6-31G*
  Basis Set:
  @DF-RHF Final Energy:  -270.01982942748140
    Total Energy =                       -270.0198294274812270
  Basis Set: 6-31G*
  Basis Set:
  Basis Set: 6-31G*
  Basis Set:
  @DF-RHF Final Energy:  -270.01944786592935
    Total Energy =                       -270.0194478659292940
  Basis Set: 6-31G*
  Basis Set:
  Basis Set: 6-31G*
  Basis Set:
  @DF-RHF Final Energy:  -270.01987195010076
    Total Energy =                       -270.0198719501008782
  Basis Set: 6-31G*
  Basis Set:
  Basis Set: 6-31G*
  Basis Set:
  @DF-RHF Final Energy:  -270.01986326006931
    Total Energy =                       -270.0198632600693713
  Basis Set: 6-31G*
  Basis Set:
  Basis Set: 6-31G*
  Basis Set:
  @DF-RHF Final Energy:  -270.01989911809034
    Total Energy =                       -270.0198991180903931
  Basis Set: 6-31G*
  Basis Set:
  Charge       = 0
  Multiplicity = 1
  Basis Set: 6-31G*
  Basis Set:

    Orbital Energies (a.u.)
    -----------------------

    Doubly Occupied:

       1A    -20.562407     2A    -11.326672     3A    -11.236503
       4A    -11.235345     5A    -11.229454     6A    -11.218578
       7A     -1.402292     8A     -1.096729     9A     -1.019009
      10A     -0.905956    11A     -0.812147    12A     -0.794245
      13A     -0.676842    14A     -0.648077    15A     -0.630549
      16A     -0.602981    17A     -0.583075    18A     -0.549675
      19A     -0.528853    20A     -0.507132    21A     -0.488040
      22A     -0.482733    23A     -0.478637    24A     -0.409148

  @DF-RHF Final Energy:  -270.01989912722161

   => Energetics <=

    Nuclear Repulsion Energy =            228.6631270543577159
    One-Electron Energy =                -818.5158972491849454
    Two-Electron Energy =                 319.8328710676054811
    DFT Exchange-Correlation Energy =       0.0000000000000000
    Empirical Dispersion Energy =           0.0000000000000000
    PCM Polarization Energy =               0.0000000000000000
    EFP Energy =                            0.0000000000000000
    Total Energy =                       -270.0198991272217768
    Molecular point group: c1
  Basis Set: 6-31G*
  Basis Set:

  -Total Gradient:
     Atom            X                  Y                   Z
    ------   -----------------  -----------------  -----------------
       1        0.000001943048    -0.000001884569     0.000000113391
       2       -0.000167435573    -0.000239461805     0.000276457554
       3       -0.000076284718    -0.000142252339    -0.000238960220
       4        0.000127309791     0.000189458508    -0.000174148537
       5       -0.000004475700    -0.000007407714    -0.000005505256
       6        0.000109447721     0.000194271257     0.000143592327
       7       -0.000002100180    -0.000000760817    -0.000005488113
       8        0.000001408383     0.000003537637     0.000013925374
       9       -0.000000276775    -0.000001625297    -0.000000672412
      10        0.000009628700     0.000006224189     0.000001368796
      11        0.000002622073    -0.000001300277    -0.000016938767
      12       -0.000006300995     0.000003803058     0.000002635130
      13        0.000004095569    -0.000002715744     0.000003602226
      14       -0.000000159519    -0.000006838181     0.000002981720
      15        0.000000961027    -0.000000051803    -0.000005436281
      16       -0.000000382857     0.000007003898     0.000002473065

  **** Optimization is complete! (in 7 steps) ****
    Final optimized geometry and variables:
    Molecular point group: c1

    Geometry (in Angstrom), charge = 0, multiplicity = 1:

    H            2.084285200517    -1.019499378428    -0.738411674902
    C            1.970700340942    -0.241095466637     0.025636897684
    C            0.701362620744     0.566824926185    -0.063227700196
    O            2.818844821037    -0.078051408404     0.841807574766
    C           -0.547467515529    -0.318296049439    -0.152861484467
    H            0.771157862624     1.187735852349    -0.956022215573
    H            0.660046345744     1.227262627272     0.795117813108
    C           -1.836551095026     0.492085845579    -0.297437183825
    H           -0.452655013179    -0.996462019840    -0.998951131832
    H           -0.611055462545    -0.942102842355     0.736028207207
    C           -3.083096663168    -0.387452057083    -0.381237187315
    H           -1.771149133231     1.114283714286    -1.187259685742
    H           -1.928973957598     1.172182200605     0.545831533220
    H           -3.034357742945    -1.057584255322    -1.234754917434
    H           -3.979998178334     0.214757821723    -0.484470140444
    H           -3.194203774794    -0.996206163269     0.511337338816

  Mulliken Charges: (a.u.)
   Center  Symbol    Alpha    Beta     Spin     Total
       1     H     0.43200  0.43200  0.00000  0.13599
       2     C     2.82924  2.82924  0.00000  0.34153
       3     C     3.20884  3.20884  0.00000 -0.41769
       4     O     4.23763  4.23763  0.00000 -0.47525
       5     C     3.16420  3.16420  0.00000 -0.32840
       6     H     0.40847  0.40847  0.00000  0.18306
       7     H     0.39908  0.39908  0.00000  0.20185
       8     C     3.15158  3.15158  0.00000 -0.30316
       9     H     0.41945  0.41945  0.00000  0.16111
      10     H     0.41356  0.41356  0.00000  0.17287
      11     C     3.24045  3.24045  0.00000 -0.48089
      12     H     0.42082  0.42082  0.00000  0.15835
      13     H     0.41839  0.41839  0.00000  0.16323
      14     H     0.42055  0.42055  0.00000  0.15890
      15     H     0.41638  0.41638  0.00000  0.16725
      16     H     0.41937  0.41937  0.00000  0.16126

   Total alpha = 24.00000, Total beta = 24.00000, Total charge = -0.00000
