  ==> Input File <==

--------------------------------------------------------------------------
set {
	reference rhf
	basis 6-31G*
}

set_num_threads( 4 )
memory 2 gb

molecule MOL {
0 1

O	 0.074228	 1.262779	 -0.000085
C	 0.028650	 0.075053	 -0.000277
C	 -1.233602	 -0.752807	 0.000328
O	 1.109162	 -0.694619	 -0.000298
C	 -2.501530	 0.091881	 0.000126
H	 -1.193807	 -1.406641	 -0.865785
H	 -1.193516	 -1.405779	 0.867015
H	 -2.545121	 0.729328	 -0.874513
H	 -3.377167	 -0.548497	 0.000561
H	 -2.544818	 0.730135	 0.874258
C	 1.998367	 -0.553869	 -1.093501
H	 1.498282	 -0.787698	 -2.022291
H	 2.799840	 -1.253305	 -0.913797
H	 2.384527	 0.454110	 -1.141783

	symmetry c1
}
set optking {
	frozen_dihedral = ("
		11 4 2 3
	")
}

ee = optimize('scf')
oeprop('DIPOLE', 'QUADRUPOLE', 'MULLIKEN_CHARGES')
f=open( 'psi4out.xyz', 'w' )
f.write( "14  " )
f.write( str(ee) + "\n" )
f.write( MOL.save_string_xyz() )
f.close()
--------------------------------------------------------------------------

    Molecular point group: c1
  Charge       = 0
  Multiplicity = 1
  Basis Set: 6-31G*
  Basis Set:
  @DF-RHF Final Energy:  -305.85708017745037
    Total Energy =                       -305.8570801774504844
    Molecular point group: c1
  Basis Set: 6-31G*
  Basis Set:
  Basis Set: 6-31G*
  Basis Set:
  @DF-RHF Final Energy:  -305.85588059960139
    Total Energy =                       -305.8558805996013916
  Basis Set: 6-31G*
  Basis Set:
  Basis Set: 6-31G*
  Basis Set:
  @DF-RHF Final Energy:  -305.85775313316378
    Total Energy =                       -305.8577531331637829
  Basis Set: 6-31G*
  Basis Set:
  Basis Set: 6-31G*
  Basis Set:
  @DF-RHF Final Energy:  -305.85793485768716
    Total Energy =                       -305.8579348576870416
  Basis Set: 6-31G*
  Basis Set:
  Basis Set: 6-31G*
  Basis Set:
  @DF-RHF Final Energy:  -305.85794621442204
    Total Energy =                       -305.8579462144220429
  Basis Set: 6-31G*
  Basis Set:
  Basis Set: 6-31G*
  Basis Set:
  @DF-RHF Final Energy:  -305.85794737081289
    Total Energy =                       -305.8579473708130081
  Basis Set: 6-31G*
  Basis Set:
  Charge       = 0
  Multiplicity = 1
  Basis Set: 6-31G*
  Basis Set:

    Orbital Energies (a.u.)
    -----------------------

    Doubly Occupied:

       1A    -20.590010     2A    -20.554756     3A    -11.375485
       4A    -11.287683     5A    -11.241459     6A    -11.218357
       7A     -1.462149     8A     -1.366140     9A     -1.063552
      10A     -0.977060    11A     -0.886442    12A     -0.766096
      13A     -0.700430    14A     -0.676768    15A     -0.672255
      16A     -0.620246    17A     -0.612060    18A     -0.555377
      19A     -0.540957    20A     -0.522391    21A     -0.509599
      22A     -0.495513    23A     -0.455220    24A     -0.437213

  @DF-RHF Final Energy:  -305.85794749790369

   => Energetics <=

    Nuclear Repulsion Energy =            246.6281521917003943
    One-Electron Energy =                -905.7977654254081017
    Two-Electron Energy =                 353.3116657358040129
    DFT Exchange-Correlation Energy =       0.0000000000000000
    Empirical Dispersion Energy =           0.0000000000000000
    PCM Polarization Energy =               0.0000000000000000
    EFP Energy =                            0.0000000000000000
    Total Energy =                       -305.8579474979036377
    Molecular point group: c1
  Basis Set: 6-31G*
  Basis Set:

  -Total Gradient:
     Atom            X                  Y                   Z
    ------   -----------------  -----------------  -----------------
       1        0.000001445925    -0.000023542625     0.000150707241
       2       -0.001878357642    -0.002028715084     0.007153715423
       3        0.000133025039    -0.000264722467    -0.006304413313
       4        0.005162722927     0.007518222244     0.002426079828
       5       -0.000003687118    -0.000016056484    -0.000003194145
       6        0.000003496245     0.000005665850    -0.000007707898
       7        0.000001430905     0.000011119757    -0.000005385201
       8        0.000005982635    -0.000000383705    -0.000006312622
       9        0.000004582902     0.000002822802     0.000001688337
      10       -0.000003906294     0.000003528330     0.000009228542
      11       -0.003423483851    -0.005211817783    -0.003414078702
      12       -0.000008769413    -0.000001198459     0.000001535780
      13        0.000004539797     0.000001537127    -0.000004845175
      14        0.000000977943     0.000003540495     0.000002981905

  **** Optimization is complete! (in 7 steps) ****
    Final optimized geometry and variables:
    Molecular point group: c1

    Geometry (in Angstrom), charge = 0, multiplicity = 1:

    O            0.128531869172     1.350745716586     0.067952405073
    C            0.083555348483     0.172851270246     0.178589518142
    C           -1.180613146857    -0.649561571755     0.183269424211
    O            1.188598944965    -0.593529227665     0.234415142685
    C           -2.451861454197     0.185343739612     0.265358737250
    H           -1.155317987939    -1.240815836928    -0.729483313450
    H           -1.117513394584    -1.365256100306     0.997016248602
    H           -2.515698557470     0.880062615403    -0.562869766126
    H           -3.325428648149    -0.457303057430     0.242743543856
    H           -2.478823767889     0.762851263046     1.182013786408
    C            2.095552604478    -0.480885583058    -0.845068713278
    H            1.632174841379    -0.827945889585    -1.762064844888
    H            2.935095768725    -1.114714525226    -0.605838788607
    H            2.426677600723     0.540620343954    -0.966394334890

  Mulliken Charges: (a.u.)
   Center  Symbol    Alpha    Beta     Spin     Total
       1     O     4.26445  4.26445  0.00000 -0.52889
       2     C     2.61059  2.61059  0.00000  0.77882
       3     C     3.20694  3.20694  0.00000 -0.41389
       4     O     4.31485  4.31485  0.00000 -0.62969
       5     C     3.24033  3.24033  0.00000 -0.48066
       6     H     0.40431  0.40431  0.00000  0.19138
       7     H     0.39912  0.39912  0.00000  0.20176
       8     H     0.40844  0.40844  0.00000  0.18312
       9     H     0.41747  0.41747  0.00000  0.16506
      10     H     0.41054  0.41054  0.00000  0.17892
      11     C     3.09360  3.09360  0.00000 -0.18719
      12     H     0.42082  0.42082  0.00000  0.15837
      13     H     0.40515  0.40515  0.00000  0.18969
      14     H     0.40339  0.40339  0.00000  0.19322

   Total alpha = 24.00000, Total beta = 24.00000, Total charge = -0.00000
