  ==> Input File <==

--------------------------------------------------------------------------
set {
	reference rhf
	basis 6-31G*
}

set_num_threads( 1 )
memory 2 gb

molecule MOL {
0 1

O	 -0.291628	 1.323815	 -0.000732
C	 -0.449655	 0.146360	 0.000961
C	 -1.783294	 -0.549321	 -0.000296
O	 0.550821	 -0.724572	 0.000672
H	 -1.863538	 -1.185371	 -0.874187
H	 -2.574672	 0.185258	 -0.002793
H	 -1.866414	 -1.182381	 0.875436
C	 1.671101	 -0.415361	 0.810389
H	 2.121369	 0.515097	 0.495964
H	 2.364917	 -1.230650	 0.677454
H	 1.379292	 -0.336711	 1.847696

	symmetry c1
}
set optking {
	frozen_dihedral = ("
		2 4 8 9
	")
}

ee = energy('scf')
oeprop('DIPOLE', 'QUADRUPOLE', 'MULLIKEN_CHARGES')
f=open( 'psi4out.xyz', 'w' )
f.write( "11  " )
f.write( str(ee) + "\n" )
f.write( MOL.save_string_xyz() )
f.close()
--------------------------------------------------------------------------

    Molecular point group: c1

    Geometry (in Angstrom), charge = 0, multiplicity = 1:

       Center              X                  Y                   Z               Mass
    ------------   -----------------  -----------------  -----------------  -----------------
           O         -0.250582351238     1.371022529697    -0.173279842239    15.994914619560
           C         -0.408609351238     0.193567529697    -0.171586842239    12.000000000000
           C         -1.742248351238    -0.502113470303    -0.172843842239    12.000000000000
           O          0.591866648762    -0.677364470303    -0.171875842239    15.994914619560
           H         -1.822492351238    -1.138163470303    -1.046734842239     1.007825032070
           H         -2.533626351238     0.232465529697    -0.175340842239     1.007825032070
           H         -1.825368351238    -1.135173470303     0.702888157761     1.007825032070
           C          1.712146648762    -0.368153470303     0.637841157761    12.000000000000
           H          2.162414648762     0.562304529697     0.323416157761     1.007825032070
           H          2.405962648762    -1.183442470303     0.504906157761     1.007825032070
           H          1.420337648762    -0.289503470303     1.675148157761     1.007825032070

  Charge       = 0
  Multiplicity = 1
  Basis Set: 6-31G*
  Basis Set:

    Orbital Energies (a.u.)
    -----------------------

    Doubly Occupied:

       1A    -20.598217     2A    -20.549678     3A    -11.377040
       4A    -11.286381     5A    -11.234819     6A     -1.468957
       7A     -1.365404     8A     -1.033723     9A     -0.956814
      10A     -0.779114    11A     -0.695670    12A     -0.680918
      13A     -0.675072    14A     -0.599891    15A     -0.592666
      16A     -0.566058    17A     -0.536066    18A     -0.509267
      19A     -0.456530    20A     -0.440860

  @DF-RHF Final Energy:  -266.82775664820645

   => Energetics <=

    Nuclear Repulsion Energy =            183.1521115858281803
    One-Electron Energy =                -727.1534828153532999
    Two-Electron Energy =                 277.1736145813184748
    DFT Exchange-Correlation Energy =       0.0000000000000000
    Empirical Dispersion Energy =           0.0000000000000000
    PCM Polarization Energy =               0.0000000000000000
    EFP Energy =                            0.0000000000000000
    Total Energy =                       -266.8277566482066732

  Mulliken Charges: (a.u.)
   Center  Symbol    Alpha    Beta     Spin     Total
       1     O     4.27320  4.27320  0.00000 -0.54640
       2     C     2.62326  2.62326  0.00000  0.75347
       3     C     3.28291  3.28291  0.00000 -0.56582
       4     O     4.30172  4.30172  0.00000 -0.60344
       5     H     0.39872  0.39872  0.00000  0.20257
       6     H     0.39772  0.39772  0.00000  0.20456
       7     H     0.40297  0.40297  0.00000  0.19407
       8     C     3.09473  3.09473  0.00000 -0.18947
       9     H     0.40207  0.40207  0.00000  0.19585
      10     H     0.40627  0.40627  0.00000  0.18746
      11     H     0.41643  0.41643  0.00000  0.16715

   Total alpha = 20.00000, Total beta = 20.00000, Total charge = -0.00000
