                              Psi4 1.0.54 Driver

  ==> Input File <==

--------------------------------------------------------------------------
set {
	reference rhf
	basis cc-pvtz
}

set_num_threads( 4 )
memory 2 gb

molecule MOL {
0 1

O	 0.074770	 1.259872	 0.000487
C	 0.029490	 0.077183	 0.000078
C	 -1.232113	 -0.748027	 0.000015
O	 1.106773	 -0.690081	 -0.000204
C	 -2.501422	 0.088592	 -0.000052
H	 -1.188777	 -1.400384	 -0.865133
H	 -1.188857	 -1.400312	 0.865225
H	 -2.548170	 0.725504	 -0.873205
H	 -3.371613	 -0.556398	 -0.000040
H	 -2.548215	 0.725571	 0.873047
C	 2.352685	 -0.059371	 0.217852
H	 2.547891	 0.674673	 -0.549813
H	 3.093043	 -0.841911	 0.181445
H	 2.370428	 0.426138	 1.182327

	symmetry c1
}
set optking {
	frozen_dihedral = ("
		11 4 2 3
	")
}

ee,wfn = optimize('scf', return_wfn=True)
oeprop( wfn, 'DIPOLE', 'QUADRUPOLE', 'MULLIKEN_CHARGES')
f=open( 'psi4out.xyz', 'w' )
f.write( "14  " )
f.write( str(ee) + "\n" )
f.write( MOL.save_string_xyz() )
f.close()
--------------------------------------------------------------------------

    Molecular point group: c1
  Charge       = 0
  Multiplicity = 1
  Basis Set: CC-PVTZ
  Basis Set:
  @DF-RHF Final Energy:  -305.98709014907297
    Total Energy =                       -305.9870901490730830
    Molecular point group: c1
  Basis Set: CC-PVTZ
  Basis Set:
  Basis Set: CC-PVTZ
  Basis Set:
  @DF-RHF Final Energy:  -305.98614744485383
    Total Energy =                       -305.9861474448538274
  Basis Set: CC-PVTZ
  Basis Set:
  Basis Set: CC-PVTZ
  Basis Set:
  @DF-RHF Final Energy:  -305.98716565515804
    Total Energy =                       -305.9871656551580941
  Basis Set: CC-PVTZ
  Basis Set:
  Basis Set: CC-PVTZ
  Basis Set:
  @DF-RHF Final Energy:  -305.98719467188914
    Total Energy =                       -305.9871946718888580
  Basis Set: CC-PVTZ
  Basis Set:
  Basis Set: CC-PVTZ
  Basis Set:
  @DF-RHF Final Energy:  -305.98720920598629
    Total Energy =                       -305.9872092059862325
  Basis Set: CC-PVTZ
  Basis Set:
  Charge       = 0
  Multiplicity = 1
  Basis Set: CC-PVTZ
  Basis Set:

    Orbital Energies (a.u.)
    -----------------------

    Doubly Occupied:

       1A    -20.596785     2A    -20.535186     3A    -11.365318
       4A    -11.279351     5A    -11.237356     6A    -11.214972
       7A     -1.472791     8A     -1.366817     9A     -1.065441
      10A     -0.981102    11A     -0.879266    12A     -0.770940
      13A     -0.702844    14A     -0.685752    15A     -0.675596
      16A     -0.621669    17A     -0.604313    18A     -0.546887
      19A     -0.538742    20A     -0.522614    21A     -0.515665
      22A     -0.497345    23A     -0.461298    24A     -0.442504

  @DF-RHF Final Energy:  -305.98721161740434

   => Energetics <=

    Nuclear Repulsion Energy =            247.5357377683470759
    One-Electron Energy =                -907.8847925053073595
    Two-Electron Energy =                 354.3618431195558856
    DFT Exchange-Correlation Energy =       0.0000000000000000
    Empirical Dispersion Energy =           0.0000000000000000
    PCM Polarization Energy =               0.0000000000000000
    EFP Energy =                            0.0000000000000000
    Total Energy =                       -305.9872116174043981
    Molecular point group: c1
  Basis Set: CC-PVTZ
  Basis Set:

  -Total Gradient:
     Atom            X                  Y                   Z
    ------   -----------------  -----------------  -----------------
       1        0.000013755333    -0.000070234745    -0.000023018475
       2       -0.000291806237     0.000149823000    -0.001855611380
       3        0.000049841970    -0.000113466989     0.002171683479
       4        0.000374462969     0.000586211563    -0.002645057605
       5       -0.000003715343    -0.000042355762    -0.000004275076
       6        0.000003328765    -0.000029251970    -0.000025784818
       7        0.000012233656    -0.000028647307     0.000015144852
       8        0.000007270565     0.000018328304    -0.000019740699
       9        0.000005881528     0.000001232282     0.000005580596
      10       -0.000009179751     0.000020577882     0.000018286640
      11       -0.000233044797    -0.000530214938     0.002397792596
      12        0.000041203209     0.000055031434    -0.000049093481
      13        0.000034999845    -0.000033093144    -0.000013103894
      14       -0.000005231714     0.000016060392     0.000027197265

  **** Optimization is complete! (in 6 steps) ****
    Final optimized geometry and variables:
    Molecular point group: c1

    Geometry (in Angstrom), charge = 0, multiplicity = 1:

    O            0.073552778664     1.259827846884     0.094325393873
    C            0.029917856140     0.082390862095    -0.015799422403
    C           -1.229593120946    -0.745198029970    -0.037194766617
    O            1.108918833730    -0.679322329829    -0.098185369193
    C           -2.500277523107     0.087828042793    -0.088178813096
    H           -1.165329754459    -1.425345452409    -0.878562829090
    H           -1.204185710851    -1.368212403340     0.850834076534
    H           -2.530553473720     0.697847863884    -0.981569567225
    H           -3.369154811604    -0.558871068805    -0.087574864809
    H           -2.565517298103     0.750696987940     0.763765759532
    C            2.359063511105    -0.059758813502     0.127895948611
    H            2.555756704097     0.693185251117    -0.620711000668
    H            3.095526986462    -0.844620909150     0.068043330194
    H            2.382513673740     0.399991806384     1.105123306496

  Mulliken Charges: (a.u.)
   Center  Symbol    Alpha    Beta     Spin     Total
       1     O     4.19580  4.19580  0.00000 -0.39160
       2     C     2.80274  2.80274  0.00000  0.39452
       3     C     3.09390  3.09390  0.00000 -0.18780
       4     O     4.14753  4.14753  0.00000 -0.29506
       5     C     3.14010  3.14010  0.00000 -0.28019
       6     H     0.44002  0.44002  0.00000  0.11995
       7     H     0.44276  0.44276  0.00000  0.11447
       8     H     0.44963  0.44963  0.00000  0.10074
       9     H     0.45029  0.45029  0.00000  0.09943
      10     H     0.44692  0.44692  0.00000  0.10615
      11     C     3.03604  3.03604  0.00000 -0.07207
      12     H     0.45274  0.45274  0.00000  0.09453
      13     H     0.44552  0.44552  0.00000  0.10897
      14     H     0.45602  0.45602  0.00000  0.08797

   Total alpha = 24.00000, Total beta = 24.00000, Total charge = -0.00000

*** Psi4 exiting successfully. Buy a developer a beer!
