  ==> Input File <==

--------------------------------------------------------------------------
set {
	reference rhf
	basis 6-31G*
}

set_num_threads( 4 )
memory 2 gb

molecule MOL {
0 1

H	 1.148083	 -1.049780	 0.784252
O	 1.319262	 -0.618148	 -0.041729
C	 0.709265	 0.639550	 -0.033818
C	 0.254841	 1.113616	 -1.389303
H	 1.443848	 1.329403	 0.365797
H	 -0.137092	 0.654857	 0.652092
C	 0.527131	 0.520563	 -2.534253
H	 -0.336156	 2.016466	 -1.381102
H	 1.127848	 -0.369565	 -2.581587
H	 0.168367	 0.915170	 -3.467821

	symmetry c1
}
set optking {
	frozen_dihedral = ("
		5 3 2 1
	")
}

ee = optimize('scf')
oeprop('DIPOLE', 'QUADRUPOLE', 'MULLIKEN_CHARGES')
f=open( 'psi4out.xyz', 'w' )
f.write( "10  " )
f.write( str(ee) + "\n" )
f.write( MOL.save_string_xyz() )
f.close()
--------------------------------------------------------------------------

    Molecular point group: c1
  Charge       = 0
  Multiplicity = 1
  Basis Set: 6-31G*
  Basis Set:
  @DF-RHF Final Energy:  -191.91308857449735
    Total Energy =                       -191.9130885744972943
    Molecular point group: c1
  Basis Set: 6-31G*
  Basis Set:
  Basis Set: 6-31G*
  Basis Set:
  @DF-RHF Final Energy:  -191.91445804913724
    Total Energy =                       -191.9144580491371812
  Basis Set: 6-31G*
  Basis Set:
  Basis Set: 6-31G*
  Basis Set:
  @DF-RHF Final Energy:  -191.91481693069397
    Total Energy =                       -191.9148169306939451
  Basis Set: 6-31G*
  Basis Set:
  Basis Set: 6-31G*
  Basis Set:
  @DF-RHF Final Energy:  -191.91484458896389
    Total Energy =                       -191.9148445889637173
  Basis Set: 6-31G*
  Basis Set:
  Basis Set: 6-31G*
  Basis Set:
  @DF-RHF Final Energy:  -191.91486536512113
    Total Energy =                       -191.9148653651211305
  Basis Set: 6-31G*
  Basis Set:
  Basis Set: 6-31G*
  Basis Set:
  @DF-RHF Final Energy:  -191.91490556874288
    Total Energy =                       -191.9149055687427960
  Basis Set: 6-31G*
  Basis Set:
  Charge       = 0
  Multiplicity = 1
  Basis Set: 6-31G*
  Basis Set:

    Orbital Energies (a.u.)
    -----------------------

    Doubly Occupied:

       1A    -20.559001     2A    -11.278543     3A    -11.223482
       4A    -11.209300     5A     -1.367479     6A     -1.053080
       7A     -0.922452     8A     -0.753341     9A     -0.708664
      10A     -0.641273    11A     -0.610930    12A     -0.584592
      13A     -0.512177    14A     -0.490410    15A     -0.450247
      16A     -0.354993

  @DF-RHF Final Energy:  -191.91491512279720

   => Energetics <=

    Nuclear Repulsion Energy =            119.4092599740672540
    One-Electron Energy =                -497.2084225542588456
    Two-Electron Energy =                 185.8842474573944230
    DFT Exchange-Correlation Energy =       0.0000000000000000
    Empirical Dispersion Energy =           0.0000000000000000
    PCM Polarization Energy =               0.0000000000000000
    EFP Energy =                            0.0000000000000000
    Total Energy =                       -191.9149151227971686
    Molecular point group: c1
  Basis Set: 6-31G*
  Basis Set:

  -Total Gradient:
     Atom            X                  Y                   Z
    ------   -----------------  -----------------  -----------------
       1       -0.000845536181    -0.000506787484    -0.000493527215
       2        0.001104569169     0.000636336783     0.000432869188
       3       -0.000537532892    -0.000444931713     0.000899066789
       4       -0.000009845446    -0.000007430188    -0.000008097248
       5        0.000317474551     0.000298390626    -0.000852209159
       6       -0.000019027073    -0.000007020172     0.000011203059
       7       -0.000048778341    -0.000035939786    -0.000026246988
       8        0.000008498812     0.000018372275     0.000003282160
       9        0.000023143875     0.000028317033     0.000018319993
      10        0.000007033523     0.000020692629     0.000015339417

  **** Optimization is complete! (in 7 steps) ****
    Final optimized geometry and variables:
    Molecular point group: c1

    Geometry (in Angstrom), charge = 0, multiplicity = 1:

    H            0.482795987126    -1.444537773362     1.617539146745
    O            0.642222585013    -0.932842012214     0.838995628832
    C           -0.055073668103     0.279707392055     0.915221023699
    C           -0.452029917879     0.758844243271    -0.451687224199
    H            0.564535675821     1.041133100866     1.387279229917
    H           -0.950467131973     0.176686201185     1.526790410025
    C           -0.250926928175     0.106950570505    -1.577884941969
    H           -0.934407480016     1.723944796274    -0.464370084988
    H            0.232315630632    -0.851432219878    -1.593250408188
    H           -0.561571686112     0.519787053890    -2.521069620342

  Mulliken Charges: (a.u.)
   Center  Symbol    Alpha    Beta     Spin     Total
       1     H     0.27820  0.27820  0.00000  0.44359
       2     O     4.36925  4.36925  0.00000 -0.73850
       3     C     2.99895  2.99895  0.00000  0.00210
       4     C     3.08917  3.08917  0.00000 -0.17833
       5     H     0.42272  0.42272  0.00000  0.15456
       6     H     0.42687  0.42687  0.00000  0.14626
       7     C     3.18996  3.18996  0.00000 -0.37993
       8     H     0.41247  0.41247  0.00000  0.17505
       9     H     0.39795  0.39795  0.00000  0.20410
      10     H     0.41445  0.41445  0.00000  0.17110

   Total alpha = 16.00000, Total beta = 16.00000, Total charge = -0.00000
