  ==> Input File <==

--------------------------------------------------------------------------
set {
	reference rhf
	basis 6-31G*
}

set_num_threads( 1 )
memory 2 gb

molecule MOL {
0 1

H	 -3.820736	 1.069369	 0.467257
O	 -2.964583	 1.378566	 0.208077
C	 -2.026376	 0.340750	 0.341611
C	 -0.673256	 0.843270	 -0.132153
H	 -1.956895	 0.023767	 1.380664
H	 -2.328114	 -0.525214	 -0.246364
C	 0.486613	 -0.083066	 0.235839
H	 -0.715586	 0.970948	 -1.210718
H	 -0.508072	 1.829858	 0.297090
C	 1.840406	 0.433480	 -0.254303
H	 0.300215	 -1.068318	 -0.178947
H	 0.519509	 -0.203625	 1.318070
C	 3.000220	 -0.489290	 0.118523
H	 1.809207	 0.553576	 -1.335192
H	 2.021860	 1.424500	 0.157276
H	 2.864959	 -1.479103	 -0.307933
H	 3.946603	 -0.099227	 -0.243630
H	 3.080049	 -0.602997	 1.196117

	symmetry c1
}
set optking {
	frozen_dihedral = ("
		14 10 7 11,
		10 7 4 8,
		1 2 3 4
	")
}

ee = energy('scf')
oeprop('DIPOLE', 'QUADRUPOLE', 'MULLIKEN_CHARGES')
f=open( 'psi4out.xyz', 'w' )
f.write( "18  " )
f.write( str(ee) + "\n" )
f.write( MOL.save_string_xyz() )
f.close()
--------------------------------------------------------------------------

    Molecular point group: c1

    Geometry (in Angstrom), charge = 0, multiplicity = 1:

       Center              X                  Y                   Z               Mass
    ------------   -----------------  -----------------  -----------------  -----------------
           H         -3.700026269909     0.655013052200     0.372509545234     1.007825032070
           O         -2.843873269909     0.964210052200     0.113329545234    15.994914619560
           C         -1.905666269909    -0.073605947800     0.246863545234    12.000000000000
           C         -0.552546269909     0.428914052200    -0.226900454766    12.000000000000
           H         -1.836185269909    -0.390588947800     1.285916545234     1.007825032070
           H         -2.207404269909    -0.939569947800    -0.341111454766     1.007825032070
           C          0.607322730091    -0.497421947800     0.141091545234    12.000000000000
           H         -0.594876269909     0.556592052200    -1.305465454766     1.007825032070
           H         -0.387362269909     1.415502052200     0.202342545234     1.007825032070
           C          1.961115730091     0.019124052200    -0.349050454766    12.000000000000
           H          0.420924730091    -1.482673947800    -0.273694454766     1.007825032070
           H          0.640218730091    -0.617980947800     1.223322545234     1.007825032070
           C          3.120929730091    -0.903645947800     0.023775545234    12.000000000000
           H          1.929916730091     0.139220052200    -1.429939454766     1.007825032070
           H          2.142569730091     1.010144052200     0.062528545234     1.007825032070
           H          2.985668730091    -1.893458947800    -0.402680454766     1.007825032070
           H          4.067312730091    -0.513582947800    -0.338377454766     1.007825032070
           H          3.200758730091    -1.017352947800     1.101369545234     1.007825032070

  Charge       = 0
  Multiplicity = 1
  Basis Set: 6-31G*
  Basis Set:

    Orbital Energies (a.u.)
    -----------------------

    Doubly Occupied:

       1A    -20.552030     2A    -11.267352     3A    -11.216377
       4A    -11.215784     5A    -11.210918     6A    -11.208874
       7A     -1.358429     8A     -1.080587     9A     -1.011101
      10A     -0.913701    11A     -0.819660    12A     -0.792345
      13A     -0.693186    14A     -0.661341    15A     -0.621765
      16A     -0.587302    17A     -0.571897    18A     -0.556482
      19A     -0.530753    20A     -0.493683    21A     -0.489673
      22A     -0.468484    23A     -0.464759    24A     -0.451601
      25A     -0.433537

  @DF-RHF Final Energy:  -271.17908040610416

   => Energetics <=

    Nuclear Repulsion Energy =            245.1366968045168448
    One-Electron Energy =                -853.2884052276690454
    Two-Electron Energy =                 336.9726280170477821
    DFT Exchange-Correlation Energy =       0.0000000000000000
    Empirical Dispersion Energy =           0.0000000000000000
    PCM Polarization Energy =               0.0000000000000000
    EFP Energy =                            0.0000000000000000
    Total Energy =                       -271.1790804061043900

  Mulliken Charges: (a.u.)
   Center  Symbol    Alpha    Beta     Spin     Total
       1     H     0.28109  0.28109  0.00000  0.43783
       2     O     4.37184  4.37184  0.00000 -0.74369
       3     C     2.98963  2.98963  0.00000  0.02075
       4     C     3.16032  3.16032  0.00000 -0.32064
       5     H     0.43287  0.43287  0.00000  0.13426
       6     H     0.43255  0.43255  0.00000  0.13490
       7     C     3.15845  3.15845  0.00000 -0.31689
       8     H     0.41710  0.41710  0.00000  0.16581
       9     H     0.41279  0.41279  0.00000  0.17443
      10     C     3.15112  3.15112  0.00000 -0.30225
      11     H     0.42391  0.42391  0.00000  0.15218
      12     H     0.42326  0.42326  0.00000  0.15349
      13     C     3.23938  3.23938  0.00000 -0.47875
      14     H     0.42186  0.42186  0.00000  0.15628
      15     H     0.42119  0.42119  0.00000  0.15761
      16     H     0.42199  0.42199  0.00000  0.15602
      17     H     0.41885  0.41885  0.00000  0.16229
      18     H     0.42181  0.42181  0.00000  0.15638

   Total alpha = 25.00000, Total beta = 25.00000, Total charge =  0.00000
