                              Psi4 1.0.54 Driver

  ==> Input File <==

--------------------------------------------------------------------------
set {
	reference rhf
	basis cc-pvtz
}

set_num_threads( 4 )
memory 2 gb

molecule MOL {
0 1

H	 0.192352	 -3.403117	 1.327753
O	 0.417924	 -2.653531	 0.797682
C	 -0.599535	 -1.797556	 0.824255
C	 -0.318151	 -0.570512	 0.000144
O	 -1.588371	 -2.014102	 1.435221
C	 -1.454884	 0.441630	 -0.000560
H	 0.599035	 -0.132648	 0.380846
H	 -0.089131	 -0.906461	 -1.006130
C	 -2.822577	 -0.232186	 0.000063
H	 -1.359760	 1.084704	 -0.867077
H	 -1.359641	 1.085996	 0.864983
H	 -2.954352	 -0.858985	 -0.875745
H	 -3.615886	 0.505352	 0.000019
H	 -2.953878	 -0.858359	 0.876394

	symmetry c1
}
set optking {
	frozen_dihedral = ("
		7 4 6 10
	")
}

ee,wfn = optimize('scf', return_wfn=True)
oeprop( wfn, 'DIPOLE', 'QUADRUPOLE', 'MULLIKEN_CHARGES')
f=open( 'psi4out.xyz', 'w' )
f.write( "14  " )
f.write( str(ee) + "\n" )
f.write( MOL.save_string_xyz() )
f.close()
--------------------------------------------------------------------------

    Molecular point group: c1
  Charge       = 0
  Multiplicity = 1
  Basis Set: CC-PVTZ
  Basis Set:
  @DF-RHF Final Energy:  -305.98276571454448
    Total Energy =                       -305.9827657145445414
    Molecular point group: c1
  Basis Set: CC-PVTZ
  Basis Set:
  Basis Set: CC-PVTZ
  Basis Set:
  @DF-RHF Final Energy:  -305.99272554010878
    Total Energy =                       -305.9927255401086654
  Basis Set: CC-PVTZ
  Basis Set:
  Basis Set: CC-PVTZ
  Basis Set:
  @DF-RHF Final Energy:  -305.99417296208924
    Total Energy =                       -305.9941729620891238
  Basis Set: CC-PVTZ
  Basis Set:
  Basis Set: CC-PVTZ
  Basis Set:
  @DF-RHF Final Energy:  -305.99461454932305
    Total Energy =                       -305.9946145493230460
  Basis Set: CC-PVTZ
  Basis Set:
  @DF-RHF Final Energy:  -305.99554151451071
    Total Energy =                       -305.9955415145107622
  @DF-RHF Final Energy:  -305.99601158405903
    Total Energy =                       -305.9960115840588060
  @DF-RHF Final Energy:  -305.99644170025528
    Total Energy =                       -305.9964417002555024
  @DF-RHF Final Energy:  -305.99658297709834
    Total Energy =                       -305.9965829770983987
  Basis Set: CC-PVTZ
  Basis Set:
  @DF-RHF Final Energy:  -305.99661368178079
    Total Energy =                       -305.9966136817806728
  Basis Set: CC-PVTZ
  Basis Set:
  Basis Set: CC-PVTZ
  Basis Set:
  @DF-RHF Final Energy:  -305.99662081661484
    Total Energy =                       -305.9966208166146089
  Basis Set: CC-PVTZ
  Basis Set:
  Basis Set: CC-PVTZ
  Basis Set:
  @DF-RHF Final Energy:  -305.99662315259468
    Total Energy =                       -305.9966231525946796
  Basis Set: CC-PVTZ
  Basis Set:
  Charge       = 0
  Multiplicity = 1
  Basis Set: CC-PVTZ
  Basis Set:

    Orbital Energies (a.u.)
    -----------------------

    Doubly Occupied:

       1A    -20.606278     2A    -20.538328     3A    -11.374032
       4A    -11.240066     5A    -11.228623     6A    -11.209459
       7A     -1.478647     8A     -1.368843     9A     -1.082115
      10A     -0.977125    11A     -0.864353    12A     -0.790834
      13A     -0.706585    14A     -0.688652    15A     -0.661334
      16A     -0.622831    17A     -0.592727    18A     -0.569229
      19A     -0.559759    20A     -0.501496    21A     -0.491345
      22A     -0.486882    23A     -0.478785    24A     -0.442032

  @DF-RHF Final Energy:  -305.99662372389201

   => Energetics <=

    Nuclear Repulsion Energy =            246.1571768637431319
    One-Electron Energy =                -905.1868812825559871
    Two-Electron Energy =                 353.0330806949208409
    DFT Exchange-Correlation Energy =       0.0000000000000000
    Empirical Dispersion Energy =           0.0000000000000000
    PCM Polarization Energy =               0.0000000000000000
    EFP Energy =                            0.0000000000000000
    Total Energy =                       -305.9966237238919575
    Molecular point group: c1
  Basis Set: CC-PVTZ
  Basis Set:

  -Total Gradient:
     Atom            X                  Y                   Z
    ------   -----------------  -----------------  -----------------
       1        0.000002336590    -0.000011542747     0.000007734132
       2       -0.000034963752     0.000050462338     0.000033208780
       3        0.000057268715    -0.000026354009    -0.000064335309
       4        0.001038235373     0.001819000386    -0.007897054868
       5       -0.000049696674     0.000004779476     0.000022949375
       6        0.004398311723     0.003636972301     0.005482661913
       7       -0.001472463302    -0.002059011299     0.005808220725
       8       -0.000018522947     0.000018603084     0.000014912418
       9        0.000034954027     0.000043634936     0.000014675411
      10       -0.003971232559    -0.003399893457    -0.003417998862
      11        0.000003355443    -0.000025311814    -0.000007678982
      12       -0.000006981397    -0.000009600048    -0.000007322215
      13        0.000003422616    -0.000021142279     0.000003783130
      14        0.000015976142    -0.000020596871     0.000006244348

  **** Optimization is complete! (in 12 steps) ****
    Final optimized geometry and variables:
    Molecular point group: c1

    Geometry (in Angstrom), charge = 0, multiplicity = 1:

    H            0.680908879368    -2.502922064643     0.336477615112
    O            0.819612206622    -1.797649055993    -0.278291624072
    C            0.476071247702    -0.657157722170     0.309465390467
    C            0.734647640104     0.546801481651    -0.561651118285
    O            0.059351275443    -0.621795562596     1.416576103824
    C           -0.321196986223     1.651929395250    -0.436292068371
    H            1.688089435980     0.912314110586    -0.190499612729
    H            0.863814254665     0.226662092587    -1.584788374258
    C           -1.765716330521     1.155722690845    -0.506936929909
    H           -0.177592631443     2.322370652190    -1.276639865045
    H           -0.168019121549     2.211094476608     0.476528048174
    H           -1.934304012892     0.575260942773    -1.409194133541
    H           -2.449003449906     1.996394330073    -0.528157068998
    H           -2.020984703706     0.540927762028     0.344471014531

  Mulliken Charges: (a.u.)
   Center  Symbol    Alpha    Beta     Spin     Total
       1     H     0.38060  0.38060  0.00000  0.23880
       2     O     4.16001  4.16001  0.00000 -0.32003
       3     C     2.79907  2.79907  0.00000  0.40187
       4     C     3.11009  3.11009  0.00000 -0.22017
       5     O     4.19962  4.19962  0.00000 -0.39925
       6     C     3.08031  3.08031  0.00000 -0.16062
       7     H     0.43831  0.43831  0.00000  0.12338
       8     H     0.43395  0.43395  0.00000  0.13210
       9     C     3.15963  3.15963  0.00000 -0.31925
      10     H     0.44896  0.44896  0.00000  0.10207
      11     H     0.44596  0.44596  0.00000  0.10808
      12     H     0.45521  0.45521  0.00000  0.08959
      13     H     0.44761  0.44761  0.00000  0.10477
      14     H     0.44067  0.44067  0.00000  0.11866

   Total alpha = 24.00000, Total beta = 24.00000, Total charge = -0.00000

*** Psi4 exiting successfully. Buy a developer a beer!
