  ==> Input File <==

--------------------------------------------------------------------------
set {
	reference rhf
	basis 6-31G*
}

set_num_threads( 4 )
memory 2 gb

molecule MOL {
0 1

H	 2.502559	 0.351305	 1.128519
O	 1.646564	 -0.061891	 1.186211
C	 1.050492	 0.053836	 0.000068
C	 -0.318135	 -0.576402	 0.000164
O	 1.571629	 0.596276	 -0.919264
C	 -1.454360	 0.441875	 -0.000474
H	 -0.374042	 -1.230163	 -0.866135
H	 -0.374274	 -1.229227	 0.867154
C	 -2.826123	 -0.230780	 0.000056
H	 -1.357605	 1.085198	 -0.868380
H	 -1.357504	 1.086451	 0.866496
H	 -2.959731	 -0.858053	 -0.876869
H	 -3.619374	 0.509403	 -0.000080
H	 -2.959371	 -0.857318	 0.877556

	symmetry c1
}
set optking {
	frozen_dihedral = ("
		2 3 4 7
	")
}

ee = optimize('scf')
oeprop('DIPOLE', 'QUADRUPOLE', 'MULLIKEN_CHARGES')
f=open( 'psi4out.xyz', 'w' )
f.write( "14  " )
f.write( str(ee) + "\n" )
f.write( MOL.save_string_xyz() )
f.close()
--------------------------------------------------------------------------

    Molecular point group: c1
  Charge       = 0
  Multiplicity = 1
  Basis Set: 6-31G*
  Basis Set:
  @DF-RHF Final Energy:  -305.87830073384657
    Total Energy =                       -305.8783007338465154
    Molecular point group: c1
  Basis Set: 6-31G*
  Basis Set:
  Basis Set: 6-31G*
  Basis Set:
  @DF-RHF Final Energy:  -305.87891608584971
    Total Energy =                       -305.8789160858499940
  Basis Set: 6-31G*
  Basis Set:
  Basis Set: 6-31G*
  Basis Set:
  @DF-RHF Final Energy:  -305.87742431470929
    Total Energy =                       -305.8774243147092307
  Basis Set: 6-31G*
  Basis Set:
  Basis Set: 6-31G*
  Basis Set:
  @DF-RHF Final Energy:  -305.87907269842680
    Total Energy =                       -305.8790726984270805
  Basis Set: 6-31G*
  Basis Set:
  Basis Set: 6-31G*
  Basis Set:
  @DF-RHF Final Energy:  -305.87907876492307
    Total Energy =                       -305.8790787649231220
  Basis Set: 6-31G*
  Basis Set:
  Charge       = 0
  Multiplicity = 1
  Basis Set: 6-31G*
  Basis Set:

    Orbital Energies (a.u.)
    -----------------------

    Doubly Occupied:

       1A    -20.614912     2A    -20.548682     3A    -11.380703
       4A    -11.239519     5A    -11.234237     6A    -11.220333
       7A     -1.475015     8A     -1.364701     9A     -1.085374
      10A     -0.979353    11A     -0.854334    12A     -0.803901
      13A     -0.702169    14A     -0.686897    15A     -0.647518
      16A     -0.630636    17A     -0.593691    18A     -0.569882
      19A     -0.551785    20A     -0.513969    21A     -0.496610
      22A     -0.488167    23A     -0.470513    24A     -0.440180

  @DF-RHF Final Energy:  -305.87907892106341

   => Energetics <=

    Nuclear Repulsion Energy =            240.1531944495732205
    One-Electron Energy =                -892.8783875276895969
    Two-Electron Energy =                 346.8461141570531368
    DFT Exchange-Correlation Energy =       0.0000000000000000
    Empirical Dispersion Energy =           0.0000000000000000
    PCM Polarization Energy =               0.0000000000000000
    EFP Energy =                            0.0000000000000000
    Total Energy =                       -305.8790789210632397
    Molecular point group: c1
  Basis Set: 6-31G*
  Basis Set:

  -Total Gradient:
     Atom            X                  Y                   Z
    ------   -----------------  -----------------  -----------------
       1        0.000002014618     0.000009704518     0.000004113450
       2       -0.000042627826     0.000070990087     0.000039121276
       3        0.000020917392    -0.000076105608    -0.000152632145
       4        0.000044091041    -0.000075840379     0.000080752466
       5        0.000001330116    -0.000005231843     0.000037003368
       6        0.000021975429    -0.000004546872     0.000044598731
       7       -0.000048295879     0.000070960746    -0.000042381346
       8       -0.000009302832    -0.000000445620     0.000003023157
       9        0.000003876382    -0.000008755309    -0.000022993292
      10        0.000007187597     0.000008031126     0.000018647713
      11       -0.000014768066     0.000001713022    -0.000001999355
      12        0.000003766368    -0.000009328624     0.000003656681
      13        0.000001618690     0.000006232164    -0.000010983317
      14        0.000008216963     0.000012622591     0.000000072612

  **** Optimization is complete! (in 6 steps) ****
    Final optimized geometry and variables:
    Molecular point group: c1

    Geometry (in Angstrom), charge = 0, multiplicity = 1:

    H            2.552465438961     0.342665246745     1.012656869904
    O            1.722368536011    -0.116630239235     1.098866989049
    C            1.061871919163     0.007085457585    -0.049787015720
    C           -0.290469421017    -0.658292397557    -0.028744284883
    O            1.507564779481     0.606355363468    -0.974764318643
    C           -1.416756326880     0.385496711304    -0.052059924209
    H           -0.354663219883    -1.281243856235    -0.914336071004
    H           -0.373216905031    -1.292892052428     0.844394670580
    C           -2.798747487308    -0.263584256807    -0.082890962917
    H           -1.285060055701     1.022241663721    -0.919907081217
    H           -1.333552655182     1.023696370240     0.823714253283
    H           -2.919072062985    -0.887233426985    -0.963831175652
    H           -3.578964339861     0.490159897633    -0.101496710699
    H           -2.960997482624    -0.887468187261     0.791101642668

  Mulliken Charges: (a.u.)
   Center  Symbol    Alpha    Beta     Spin     Total
       1     H     0.26824  0.26824  0.00000  0.46351
       2     O     4.34705  4.34705  0.00000 -0.69411
       3     C     2.62965  2.62965  0.00000  0.74070
       4     C     3.20111  3.20111  0.00000 -0.40223
       5     O     4.28016  4.28016  0.00000 -0.56033
       6     C     3.16395  3.16395  0.00000 -0.32790
       7     H     0.39916  0.39916  0.00000  0.20168
       8     H     0.40030  0.40030  0.00000  0.19940
       9     C     3.24139  3.24139  0.00000 -0.48278
      10     H     0.40346  0.40346  0.00000  0.19308
      11     H     0.41375  0.41375  0.00000  0.17250
      12     H     0.41830  0.41830  0.00000  0.16340
      13     H     0.41432  0.41432  0.00000  0.17135
      14     H     0.41914  0.41914  0.00000  0.16171

   Total alpha = 24.00000, Total beta = 24.00000, Total charge =  0.00000
