  ==> Input File <==

--------------------------------------------------------------------------
set {
	reference rhf
	basis 6-31G*
}

set_num_threads( 1 )
memory 2 gb

molecule MOL {
0 1

H	 -3.205869	 0.706700	 1.838701
O	 -2.348784	 0.984310	 1.548677
C	 -2.026376	 0.340750	 0.341611
C	 -0.673256	 0.843270	 -0.132153
H	 -1.987613	 -0.737564	 0.485390
H	 -2.784026	 0.544187	 -0.414188
C	 0.486613	 -0.083066	 0.235839
H	 -0.715586	 0.970948	 -1.210718
H	 -0.508072	 1.829858	 0.297090
C	 1.840406	 0.433480	 -0.254303
H	 0.300215	 -1.068318	 -0.178947
H	 0.519509	 -0.203625	 1.318070
C	 3.000220	 -0.489290	 0.118523
H	 1.809207	 0.553576	 -1.335192
H	 2.021860	 1.424500	 0.157276
H	 2.864959	 -1.479103	 -0.307933
H	 3.946603	 -0.099227	 -0.243630
H	 3.080049	 -0.602997	 1.196117

	symmetry c1
}
set optking {
	frozen_dihedral = ("
		14 10 7 11,
		10 7 4 8,
		1 2 3 4
	")
}

ee = energy('scf')
oeprop('DIPOLE', 'QUADRUPOLE', 'MULLIKEN_CHARGES')
f=open( 'psi4out.xyz', 'w' )
f.write( "18  " )
f.write( str(ee) + "\n" )
f.write( MOL.save_string_xyz() )
f.close()
--------------------------------------------------------------------------

    Molecular point group: c1

    Geometry (in Angstrom), charge = 0, multiplicity = 1:

       Center              X                  Y                   Z               Mass
    ------------   -----------------  -----------------  -----------------  -----------------
           H         -3.198441448650     0.364556594699     1.497003448843     1.007825032070
           O         -2.341356448650     0.642166594699     1.206979448843    15.994914619560
           C         -2.018948448650    -0.001393405301    -0.000086551157    12.000000000000
           C         -0.665828448650     0.501126594699    -0.473850551157    12.000000000000
           H         -1.980185448650    -1.079707405301     0.143692448843     1.007825032070
           H         -2.776598448650     0.202043594699    -0.755885551157     1.007825032070
           C          0.494040551350    -0.425209405301    -0.105858551157    12.000000000000
           H         -0.708158448650     0.628804594699    -1.552415551157     1.007825032070
           H         -0.500644448650     1.487714594699    -0.044607551157     1.007825032070
           C          1.847833551350     0.091336594699    -0.596000551157    12.000000000000
           H          0.307642551350    -1.410461405301    -0.520644551157     1.007825032070
           H          0.526936551350    -0.545768405301     0.976372448843     1.007825032070
           C          3.007647551350    -0.831433405301    -0.223174551157    12.000000000000
           H          1.816634551350     0.211432594699    -1.676889551157     1.007825032070
           H          2.029287551350     1.082356594699    -0.184421551157     1.007825032070
           H          2.872386551350    -1.821246405301    -0.649630551157     1.007825032070
           H          3.954030551350    -0.441370405301    -0.585327551157     1.007825032070
           H          3.087476551350    -0.945140405301     0.854419448843     1.007825032070

  Charge       = 0
  Multiplicity = 1
  Basis Set: 6-31G*
  Basis Set:

    Orbital Energies (a.u.)
    -----------------------

    Doubly Occupied:

       1A    -20.551568     2A    -11.266545     3A    -11.212896
       4A    -11.211216     5A    -11.210094     6A    -11.206479
       7A     -1.358321     8A     -1.077527     9A     -1.009672
      10A     -0.913082    11A     -0.818393    12A     -0.788745
      13A     -0.704155    14A     -0.635273    15A     -0.633052
      16A     -0.578970    17A     -0.571023    18A     -0.560612
      19A     -0.524269    20A     -0.499799    21A     -0.488912
      22A     -0.468626    23A     -0.462639    24A     -0.450025
      25A     -0.426018

  @DF-RHF Final Energy:  -271.17551703372749

   => Energetics <=

    Nuclear Repulsion Energy =            247.1850208354094605
    One-Electron Energy =                -857.4651839342413950
    Two-Electron Energy =                 339.1046460651045322
    DFT Exchange-Correlation Energy =       0.0000000000000000
    Empirical Dispersion Energy =           0.0000000000000000
    PCM Polarization Energy =               0.0000000000000000
    EFP Energy =                            0.0000000000000000
    Total Energy =                       -271.1755170337274308

  Mulliken Charges: (a.u.)
   Center  Symbol    Alpha    Beta     Spin     Total
       1     H     0.28167  0.28167  0.00000  0.43667
       2     O     4.37068  4.37068  0.00000 -0.74136
       3     C     2.99613  2.99613  0.00000  0.00774
       4     C     3.16258  3.16258  0.00000 -0.32515
       5     H     0.43077  0.43077  0.00000  0.13847
       6     H     0.43061  0.43061  0.00000  0.13878
       7     C     3.15594  3.15594  0.00000 -0.31188
       8     H     0.42298  0.42298  0.00000  0.15403
       9     H     0.40642  0.40642  0.00000  0.18716
      10     C     3.15224  3.15224  0.00000 -0.30448
      11     H     0.42551  0.42551  0.00000  0.14898
      12     H     0.41649  0.41649  0.00000  0.16703
      13     C     3.23920  3.23920  0.00000 -0.47840
      14     H     0.42407  0.42407  0.00000  0.15187
      15     H     0.42129  0.42129  0.00000  0.15742
      16     H     0.42260  0.42260  0.00000  0.15480
      17     H     0.41969  0.41969  0.00000  0.16063
      18     H     0.42114  0.42114  0.00000  0.15773

   Total alpha = 25.00000, Total beta = 25.00000, Total charge =  0.00000
