                              Psi4 1.0.54 Driver

  ==> Input File <==

--------------------------------------------------------------------------
set {
	reference rhf
	basis cc-pvtz
}

set_num_threads( 4 )
memory 2 gb

molecule MOL {
0 1

H	 3.721907	 -0.933076	 -0.066039
O	 2.824271	 -1.154299	 0.131461
C	 2.076458	 -0.067370	 -0.038225
C	 0.626018	 -0.337582	 0.258241
O	 2.538288	 0.965419	 -0.381593
C	 -0.267326	 0.883135	 0.076490
H	 0.325620	 -1.161483	 -0.378003
H	 0.574537	 -0.713685	 1.275261
C	 -1.726822	 0.642622	 0.463839
H	 -0.210803	 1.217591	 -0.953497
H	 0.129920	 1.693110	 0.675679
C	 -2.379293	 1.769359	 1.263081
H	 -1.772670	 -0.269044	 1.052071
H	 -2.313056	 0.451827	 -0.432472
C	 -3.797327	 1.429400	 1.710388
H	 -1.769050	 1.986995	 2.135591
H	 -2.405926	 2.680274	 0.673607
H	 -4.236099	 2.242982	 2.276291
H	 -3.807742	 0.545341	 2.338901
H	 -4.440120	 1.235135	 0.858195

	symmetry c1
}
set optking {
	frozen_dihedral = ("
		12 9 6 10
	")
}

ee,wfn = optimize('scf', return_wfn=True)
oeprop( wfn, 'DIPOLE', 'QUADRUPOLE', 'MULLIKEN_CHARGES')
f=open( 'psi4out.xyz', 'w' )
f.write( "20  " )
f.write( str(ee) + "\n" )
f.write( MOL.save_string_xyz() )
f.close()
--------------------------------------------------------------------------

    Molecular point group: c1
  Charge       = 0
  Multiplicity = 1
  Basis Set: CC-PVTZ
  Basis Set:
  @DF-RHF Final Energy:  -384.09169098747168
    Total Energy =                       -384.0916909874713383
    Molecular point group: c1
  Basis Set: CC-PVTZ
  Basis Set:
  Basis Set: CC-PVTZ
  Basis Set:
  @DF-RHF Final Energy:  -384.09218154607703
    Total Energy =                       -384.0921815460773701
  Basis Set: CC-PVTZ
  Basis Set:
  Basis Set: CC-PVTZ
  Basis Set:
  @DF-RHF Final Energy:  -384.09246327833097
    Total Energy =                       -384.0924632783307402
  Basis Set: CC-PVTZ
  Basis Set:
  Basis Set: CC-PVTZ
  Basis Set:
  @DF-RHF Final Energy:  -384.09182855387093
    Total Energy =                       -384.0918285538710393
  Basis Set: CC-PVTZ
  Basis Set:
  Basis Set: CC-PVTZ
  Basis Set:
  @DF-RHF Final Energy:  -384.09248900712578
    Total Energy =                       -384.0924890071257778
  Basis Set: CC-PVTZ
  Basis Set:
  Basis Set: CC-PVTZ
  Basis Set:
  @DF-RHF Final Energy:  -384.09249321065164
    Total Energy =                       -384.0924932106511278
  Basis Set: CC-PVTZ
  Basis Set:
  Basis Set: CC-PVTZ
  Basis Set:
  @DF-RHF Final Energy:  -384.09249460068077
    Total Energy =                       -384.0924946006808796
  Basis Set: CC-PVTZ
  Basis Set:
  Charge       = 0
  Multiplicity = 1
  Basis Set: CC-PVTZ
  Basis Set:

    Orbital Energies (a.u.)
    -----------------------

    Doubly Occupied:

       1A    -20.603862     2A    -20.540542     3A    -11.373220
       4A    -11.239315     5A    -11.220757     6A    -11.218232
       7A    -11.217091     8A    -11.209271     9A     -1.477413
      10A     -1.368942    11A     -1.095737    12A     -1.043830
      13A     -0.959557    14A     -0.870184    15A     -0.806317
      16A     -0.790722    17A     -0.703663    18A     -0.690492
      19A     -0.669065    20A     -0.638211    21A     -0.600676
      22A     -0.596279    23A     -0.570281    24A     -0.561833
      25A     -0.542725    26A     -0.507343    27A     -0.493345
      28A     -0.484323    29A     -0.473644    30A     -0.466841
      31A     -0.462139    32A     -0.443569

  @DF-RHF Final Energy:  -384.09249470834175

   => Energetics <=

    Nuclear Repulsion Energy =            372.4746446647695848
    One-Electron Energy =               -1261.2554383783185585
    Two-Electron Energy =                 504.6882990052073978
    DFT Exchange-Correlation Energy =       0.0000000000000000
    Empirical Dispersion Energy =           0.0000000000000000
    PCM Polarization Energy =               0.0000000000000000
    EFP Energy =                            0.0000000000000000
    Total Energy =                       -384.0924947083415759
    Molecular point group: c1
  Basis Set: CC-PVTZ
  Basis Set:

  -Total Gradient:
     Atom            X                  Y                   Z
    ------   -----------------  -----------------  -----------------
       1        0.000011132727    -0.000008202737     0.000000940666
       2        0.000013841765    -0.000002606601    -0.000011903096
       3       -0.000012127952     0.000035759734     0.000008012997
       4        0.000005336001    -0.000002695276    -0.000017809900
       5       -0.000004232823    -0.000029048476     0.000009158525
       6       -0.000151660738     0.003874588416     0.002475808787
       7       -0.000001421096     0.000000668127     0.000007757667
       8        0.000003458317     0.000001995842     0.000007714489
       9       -0.000971325690     0.000901669064    -0.003508646114
      10        0.000349821113    -0.003519744516    -0.001266889594
      11       -0.000004414024    -0.000005210611    -0.000002476527
      12        0.000759335866    -0.001251068786     0.002301873073
      13        0.000008661701    -0.000000220028    -0.000000384988
      14       -0.000001428820     0.000000540971    -0.000005340077
      15        0.000000582117     0.000002536696     0.000000056612
      16        0.000000090146    -0.000000916021     0.000005184183
      17       -0.000000412702     0.000002798139    -0.000001732397
      18       -0.000001445115     0.000001286804     0.000001491028
      19       -0.000000000172    -0.000003178679     0.000001355788
      20       -0.000003790620     0.000001047939    -0.000004171120

  **** Optimization is complete! (in 8 steps) ****
    Final optimized geometry and variables:
    Molecular point group: c1

    Geometry (in Angstrom), charge = 0, multiplicity = 1:

    H            3.638962795788    -1.537061196288    -0.644837286037
    O            2.745050821121    -1.725099198866    -0.401278639440
    C            2.034312670759    -0.606341880804    -0.513360194193
    C            0.592572758958    -0.821421815131    -0.139917024212
    O            2.518121318424     0.413094300034    -0.866722627684
    C           -0.265312857503     0.433317499257    -0.251423640982
    H            0.212920373363    -1.615598809798    -0.774845785658
    H            0.580277659180    -1.219515862393     0.869461402897
    C           -1.740485908566     0.163306654927     0.090180366905
    H           -0.178928884775     0.804077638145    -1.264900859881
    H            0.142105508321     1.198094003581     0.397489183990
    C           -2.386780398203     1.277583433595     0.909905257579
    H           -1.822666042628    -0.761029549386     0.656546625030
    H           -2.306850341739     0.003926424167    -0.822033852640
    C           -3.858137404305     1.021019334648     1.215369493741
    H           -1.838106034857     1.393294337000     1.840302845210
    H           -2.287183366001     2.221005279353     0.379749591129
    H           -4.281832968425     1.824051818883     1.807250278971
    H           -3.987742413950     0.097508176817     1.770219469373
    H           -4.439323612330     0.940884345420     0.302772256320

  Mulliken Charges: (a.u.)
   Center  Symbol    Alpha    Beta     Spin     Total
       1     H     0.38241  0.38241  0.00000  0.23518
       2     O     4.16001  4.16001  0.00000 -0.32002
       3     C     2.80680  2.80680  0.00000  0.38639
       4     C     3.11093  3.11093  0.00000 -0.22187
       5     O     4.19119  4.19119  0.00000 -0.38238
       6     C     3.08884  3.08884  0.00000 -0.17768
       7     H     0.43650  0.43650  0.00000  0.12699
       8     H     0.43805  0.43805  0.00000  0.12389
       9     C     3.09153  3.09153  0.00000 -0.18306
      10     H     0.44341  0.44341  0.00000  0.11318
      11     H     0.44524  0.44524  0.00000  0.10951
      12     C     3.08394  3.08394  0.00000 -0.16788
      13     H     0.45692  0.45692  0.00000  0.08616
      14     H     0.45047  0.45047  0.00000  0.09907
      15     C     3.15030  3.15030  0.00000 -0.30060
      16     H     0.45413  0.45413  0.00000  0.09174
      17     H     0.45153  0.45153  0.00000  0.09694
      18     H     0.44770  0.44770  0.00000  0.10461
      19     H     0.45540  0.45540  0.00000  0.08920
      20     H     0.45469  0.45469  0.00000  0.09063

   Total alpha = 32.00000, Total beta = 32.00000, Total charge = -0.00000

*** Psi4 exiting successfully. Buy a developer a beer!
