  ==> Input File <==

--------------------------------------------------------------------------
set {
	reference rhf
	basis 6-31G*
}

set_num_threads( 4 )
memory 2 gb

molecule MOL {
0 1

H	 -2.008675	 0.885633	 4.202088
C	 -1.350564	 0.773322	 3.358844
C	 -1.315374	 1.749611	 2.374583
C	 -0.540469	 -0.346879	 3.259703
H	 -1.944155	 2.617885	 2.452688
C	 -0.468917	 1.604497	 1.290639
H	 -0.569111	 -1.102637	 4.023651
C	 0.307629	 -0.494260	 2.175553
H	 -0.428471	 2.349839	 0.519600
C	 0.345236	 0.482435	 1.187416
H	 0.936248	 -1.359497	 2.094777
C	 1.239129	 0.373821	 0.000060
O	 1.970282	 -0.730723	 0.000018
O	 1.298100	 1.190019	 -0.865505
C	 3.377318	 -0.566646	 -0.000065
H	 3.695437	 -0.028981	 -0.881264
H	 3.789299	 -1.563704	 0.000236
H	 3.695516	 -0.028316	 0.880770

	symmetry c1
}
set optking {
	frozen_dihedral = ("
		10 12 13 15
	")
}

ee = optimize('scf')
oeprop('DIPOLE', 'QUADRUPOLE', 'MULLIKEN_CHARGES')
f=open( 'psi4out.xyz', 'w' )
f.write( "18  " )
f.write( str(ee) + "\n" )
f.write( MOL.save_string_xyz() )
f.close()
--------------------------------------------------------------------------

    Molecular point group: c1
  Charge       = 0
  Multiplicity = 1
  Basis Set: 6-31G*
  Basis Set:
  @DF-RHF Final Energy:  -457.33632256271005
    Total Energy =                       -457.3363225627101656
    Molecular point group: c1
  Basis Set: 6-31G*
  Basis Set:
  Basis Set: 6-31G*
  Basis Set:
  @DF-RHF Final Energy:  -457.33474651589455
    Total Energy =                       -457.3347465158944942
  Basis Set: 6-31G*
  Basis Set:
  Basis Set: 6-31G*
  Basis Set:
  @DF-RHF Final Energy:  -457.33694274481678
    Total Energy =                       -457.3369427448167244
  Basis Set: 6-31G*
  Basis Set:
  Basis Set: 6-31G*
  Basis Set:
  @DF-RHF Final Energy:  -457.33704324995563
    Total Energy =                       -457.3370432499558547
  Basis Set: 6-31G*
  Basis Set:
  Basis Set: 6-31G*
  Basis Set:
  @DF-RHF Final Energy:  -457.33704578016597
    Total Energy =                       -457.3370457801655675
  Basis Set: 6-31G*
  Basis Set:
  Charge       = 0
  Multiplicity = 1
  Basis Set: 6-31G*
  Basis Set:

    Orbital Energies (a.u.)
    -----------------------

    Doubly Occupied:

       1A    -20.591985     2A    -20.551747     3A    -11.379303
       4A    -11.287467     5A    -11.248173     6A    -11.247663
       7A    -11.246456     8A    -11.244248     9A    -11.239802
      10A    -11.239057    11A     -1.463216    12A     -1.365287
      13A     -1.167251    14A     -1.046417    15A     -1.027203
      16A     -0.974651    17A     -0.866351    18A     -0.836990
      19A     -0.777225    20A     -0.738034    21A     -0.683973
      22A     -0.674390    23A     -0.664389    24A     -0.635662
      25A     -0.626113    26A     -0.603933    27A     -0.596067
      28A     -0.558014    29A     -0.527076    30A     -0.518841
      31A     -0.502638    32A     -0.497794    33A     -0.458217
      34A     -0.442670    35A     -0.347317    36A     -0.343381

  @DF-RHF Final Energy:  -457.33704620952989

   => Energetics <=

    Nuclear Repulsion Energy =            494.1171887790554251
    One-Electron Energy =               -1602.4704661326575206
    Two-Electron Energy =                 651.0162311440719805
    DFT Exchange-Correlation Energy =       0.0000000000000000
    Empirical Dispersion Energy =           0.0000000000000000
    PCM Polarization Energy =               0.0000000000000000
    EFP Energy =                            0.0000000000000000
    Total Energy =                       -457.3370462095301718
    Molecular point group: c1
  Basis Set: 6-31G*
  Basis Set:

  -Total Gradient:
     Atom            X                  Y                   Z
    ------   -----------------  -----------------  -----------------
       1       -0.000004668526     0.000002486594    -0.000004875448
       2       -0.000005424921     0.000041653157    -0.000012580171
       3       -0.000019149788    -0.000015834258     0.000034165742
       4        0.000030191692    -0.000016454856    -0.000013847185
       5       -0.000003960897     0.000003581092     0.000001338798
       6        0.000021054471    -0.000009862159    -0.000012339093
       7       -0.000002087014     0.000000922710    -0.000004173768
       8       -0.000012117466    -0.000025039379     0.000021637229
       9       -0.000003558451     0.000002978114     0.000004694218
      10        0.004293969214     0.002967747421     0.002959920991
      11        0.000001878612     0.000009024028    -0.000003419463
      12       -0.006192908322    -0.004358095323    -0.001294968683
      13        0.001850427511     0.001366253659    -0.008088161651
      14       -0.000004714852     0.000007674009    -0.000014530633
      15        0.000064956643     0.000038288056     0.006418069481
      16        0.000001602378    -0.000009019632     0.000003742524
      17       -0.000004600344     0.000002129751     0.000001035090
      18       -0.000010889940    -0.000008432985     0.000004292026

  **** Optimization is complete! (in 6 steps) ****
    Final optimized geometry and variables:
    Molecular point group: c1

    Geometry (in Angstrom), charge = 0, multiplicity = 1:

    H           -2.569642007934     0.535810002646     3.015006306819
    C           -1.922426464105     0.411119412764     2.165162438029
    C           -1.890817483465     1.380667173945     1.172540233653
    C           -1.125023122845    -0.717118629054     2.064896232620
    H           -2.511658764396     2.254527764669     1.252055497098
    C           -1.059809619674     1.220296170733     0.080280645930
    H           -1.153551060610    -1.468264703111     2.833308652946
    C           -0.290520247833    -0.879188495746     0.971347869480
    H           -1.022590708343     1.959782904837    -0.696548497255
    C           -0.252359230570     0.091226526824    -0.022551659692
    H            0.325218663428    -1.752970488004     0.885142313067
    C            0.648870170804    -0.028856938244    -1.202709447304
    O            1.410066520814    -1.135591966222    -1.202142425685
    O            0.739764637860     0.801034670949    -2.046404516668
    C            2.811666893948    -0.933829523955    -1.207544987304
    H            3.110366048538    -0.340580873446    -2.059492439541
    H            3.259024939187    -1.913799014895    -1.264443485009
    H            3.121474850168    -0.445912291675    -0.290605747207

  Mulliken Charges: (a.u.)
   Center  Symbol    Alpha    Beta     Spin     Total
       1     H     0.39475  0.39475  0.00000  0.21050
       2     C     3.08958  3.08958  0.00000 -0.17917
       3     C     3.10698  3.10698  0.00000 -0.21396
       4     C     3.10664  3.10664  0.00000 -0.21329
       5     H     0.39477  0.39477  0.00000  0.21046
       6     C     3.08557  3.08557  0.00000 -0.17114
       7     H     0.39577  0.39577  0.00000  0.20846
       8     C     3.08944  3.08944  0.00000 -0.17888
       9     H     0.37594  0.37594  0.00000  0.24813
      10     C     3.07846  3.07846  0.00000 -0.15692
      11     H     0.38165  0.38165  0.00000  0.23671
      12     C     2.58569  2.58569  0.00000  0.82862
      13     O     4.32285  4.32285  0.00000 -0.64571
      14     O     4.27156  4.27156  0.00000 -0.54313
      15     C     3.09479  3.09479  0.00000 -0.18957
      16     H     0.40221  0.40221  0.00000  0.19557
      17     H     0.40568  0.40568  0.00000  0.18863
      18     H     0.41766  0.41766  0.00000  0.16468

   Total alpha = 36.00000, Total beta = 36.00000, Total charge = -0.00000
