  ==> Input File <==

--------------------------------------------------------------------------
set {
	reference rhf
	basis cc-pvtz
}

set_num_threads( 4 )
memory 2 gb

molecule MOL {
0 1

O	 -0.165056	 -0.749692	 -1.994417
C	 -0.270118	 0.062546	 -1.120375
C	 -1.412578	 1.057055	 -1.144258
N	 0.622280	 0.144970	 -0.099307
H	 -1.047975	 2.076252	 -1.169699
H	 -1.990191	 0.862961	 -2.032618
H	 -2.048398	 0.948547	 -0.274239
C	 1.664396	 -0.854993	 0.000772
C	 0.423447	 0.949440	 1.082660
H	 2.462727	 -0.615153	 -0.690869
H	 1.261798	 -1.821849	 -0.240651
H	 2.081615	 -0.891605	 1.003877
H	 1.383006	 1.301460	 1.438981
H	 -0.184816	 1.813896	 0.878629
H	 -0.042346	 0.382826	 1.885797

	symmetry c1
}
set optking {
	frozen_dihedral = ("
		2 4 8 10
	")
}

ee = optimize('scf')
oeprop('DIPOLE', 'QUADRUPOLE', 'MULLIKEN_CHARGES')
f=open( 'psi4out.xyz', 'w' )
f.write( "15  " )
f.write( str(ee) + "\n" )
f.write( MOL.save_string_xyz() )
f.close()
--------------------------------------------------------------------------

    Molecular point group: c1
  Charge       = 0
  Multiplicity = 1
  Basis Set: CC-PVTZ
  Basis Set:
  @DF-RHF Final Energy:  -286.13347539681695
    Total Energy =                       -286.1334753968168911
    Molecular point group: c1
  Basis Set: CC-PVTZ
  Basis Set:
  Basis Set: CC-PVTZ
  Basis Set:
  @DF-RHF Final Energy:  -286.13431654759142
    Total Energy =                       -286.1343165475915384
  Basis Set: CC-PVTZ
  Basis Set:
  Basis Set: CC-PVTZ
  Basis Set:
  @DF-RHF Final Energy:  -286.13447685646975
    Total Energy =                       -286.1344768564696324
  Basis Set: CC-PVTZ
  Basis Set:
  Basis Set: CC-PVTZ
  Basis Set:
  @DF-RHF Final Energy:  -286.13452842137343
    Total Energy =                       -286.1345284213734885
  Basis Set: CC-PVTZ
  Basis Set:
  @DF-RHF Final Energy:  -286.13465645337988
    Total Energy =                       -286.1346564533795913
  @DF-RHF Final Energy:  -286.13474876047053
    Total Energy =                       -286.1347487604704725
  @DF-RHF Final Energy:  -286.13482322521747
    Total Energy =                       -286.1348232252173034
  @DF-RHF Final Energy:  -286.13489184480596
    Total Energy =                       -286.1348918448060203
  @DF-RHF Final Energy:  -286.13495809032719
    Total Energy =                       -286.1349580903272454
  @DF-RHF Final Energy:  -286.13514085752763
    Total Energy =                       -286.1351408575271762
  @DF-RHF Final Energy:  -286.13530018093752
    Total Energy =                       -286.1353001809375201
  @DF-RHF Final Energy:  -286.13542241378161
    Total Energy =                       -286.1354224137817255
  @DF-RHF Final Energy:  -286.13548324772449
    Total Energy =                       -286.1354832477247783
  Basis Set: CC-PVTZ
  Basis Set:
  @DF-RHF Final Energy:  -286.13548762803975
    Total Energy =                       -286.1354876280398685
  Basis Set: CC-PVTZ
  Basis Set:
  Basis Set: CC-PVTZ
  Basis Set:
  @DF-RHF Final Energy:  -286.13548910997963
    Total Energy =                       -286.1354891099795168
  Basis Set: CC-PVTZ
  Basis Set:
  Basis Set: CC-PVTZ
  Basis Set:
  @DF-RHF Final Energy:  -286.13549094590837
    Total Energy =                       -286.1354909459083729
  Basis Set: CC-PVTZ
  Basis Set:
  Charge       = 0
  Multiplicity = 1
  Basis Set: CC-PVTZ
  Basis Set:

    Orbital Energies (a.u.)
    -----------------------

    Doubly Occupied:

       1A    -20.504976     2A    -15.577796     3A    -11.334245
       4A    -11.263968     5A    -11.246647     6A    -11.226616
       7A     -1.388409     8A     -1.245375     9A     -1.014906
      10A     -0.973244    11A     -0.919706    12A     -0.738625
      13A     -0.682698    14A     -0.661127    15A     -0.653806
      16A     -0.589733    17A     -0.578192    18A     -0.569043
      19A     -0.563119    20A     -0.547517    21A     -0.530460
      22A     -0.504905    23A     -0.414855    24A     -0.371345

  @DF-RHF Final Energy:  -286.13549104608040

   => Energetics <=

    Nuclear Repulsion Energy =            253.0637997575208260
    One-Electron Energy =                -890.1959547109112236
    Two-Electron Energy =                 350.9966639073098804
    DFT Exchange-Correlation Energy =       0.0000000000000000
    Empirical Dispersion Energy =           0.0000000000000000
    PCM Polarization Energy =               0.0000000000000000
    EFP Energy =                            0.0000000000000000
    Total Energy =                       -286.1354910460805741
    Molecular point group: c1
  Basis Set: CC-PVTZ
  Basis Set:

  -Total Gradient:
     Atom            X                  Y                   Z
    ------   -----------------  -----------------  -----------------
       1        0.000010339720     0.000002384210     0.000019230428
       2        0.000270511229     0.000310917151    -0.000138128257
       3       -0.000002935527    -0.000006067006     0.000016288992
       4       -0.000418512877    -0.000516948718     0.000063969602
       5        0.000001056405     0.000002689971    -0.000001377580
       6        0.000002893951     0.000001053365    -0.000001668606
       7        0.000001049591     0.000002496138     0.000000289305
       8        0.000275858351     0.000410696710     0.000531587102
       9        0.000007868912     0.000000689064    -0.000012865320
      10       -0.000155086581    -0.000195500982    -0.000453099448
      11        0.000005131609    -0.000008700684    -0.000010592453
      12        0.000006317611    -0.000006440443    -0.000006793505
      13        0.000000029984     0.000003354155     0.000005207041
      14       -0.000001965482     0.000000125527    -0.000002169683
      15       -0.000002556896    -0.000000748458    -0.000009877621

  **** Optimization is complete! (in 17 steps) ****
    Final optimized geometry and variables:
    Molecular point group: c1

    Geometry (in Angstrom), charge = 0, multiplicity = 1:

    O           -0.199158512805    -0.749137506039    -1.518006537098
    C           -0.408664734488    -0.027768374008    -0.585382597568
    C           -1.519987031972     0.998735417244    -0.651284329822
    N            0.314963877789    -0.117072884890     0.561664646638
    H           -1.124931205169     2.006166911055    -0.601479317190
    H           -2.027755269809     0.864961416649    -1.592028431387
    H           -2.225571343438     0.873063383766     0.160008002116
    C            1.443564659198    -1.026081754585     0.571911544896
    C            0.317346040331     0.900687818810     1.586420049293
    H            2.316220442196    -0.591699529670     0.092046937668
    H            1.189574427844    -1.931439853253     0.048085649179
    H            1.693865216112    -1.264762704749     1.596604949606
    H            1.105016797305     1.634572136119     1.430148797172
    H           -0.625063313827     1.419246801024     1.629704056425
    H            0.480480080077     0.437804835091     2.550706065233

  Mulliken Charges: (a.u.)
   Center  Symbol    Alpha    Beta     Spin     Total
       1     O     4.21904  4.21904  0.00000 -0.43808
       2     C     2.84488  2.84488  0.00000  0.31024
       3     C     3.16066  3.16066  0.00000 -0.32132
       4     N     3.56447  3.56447  0.00000 -0.12894
       5     H     0.44894  0.44894  0.00000  0.10213
       6     H     0.42873  0.42873  0.00000  0.14254
       7     H     0.44878  0.44878  0.00000  0.10244
       8     C     3.09400  3.09400  0.00000 -0.18801
       9     C     3.09601  3.09601  0.00000 -0.19202
      10     H     0.45574  0.45574  0.00000  0.08852
      11     H     0.43141  0.43141  0.00000  0.13718
      12     H     0.45758  0.45758  0.00000  0.08485
      13     H     0.45572  0.45572  0.00000  0.08856
      14     H     0.44547  0.44547  0.00000  0.10905
      15     H     0.44857  0.44857  0.00000  0.10286

   Total alpha = 24.00000, Total beta = 24.00000, Total charge = -0.00000
