  ==> Input File <==

--------------------------------------------------------------------------
set {
	reference rhf
	basis 6-31G*
}

set_num_threads( 4 )
memory 2 gb

molecule MOL {
0 1

O	 3.225979	 0.970355	 -0.599647
C	 2.701189	 0.057885	 -0.047330
C	 1.245376	 -0.013843	 0.345420
O	 3.347903	 -1.046386	 0.304773
C	 0.455112	 1.231400	 -0.050772
H	 0.838542	 -0.913825	 -0.103701
H	 1.208210	 -0.175333	 1.419774
C	 -0.998893	 1.219485	 0.433193
H	 0.482531	 1.345121	 -1.130325
H	 0.957290	 2.103070	 0.354729
C	 -1.648619	 -0.166036	 0.490629
H	 -1.581562	 1.848914	 -0.235417
H	 -1.058057	 1.687016	 1.414989
C	 -3.129187	 -0.113473	 0.872928
H	 -1.544738	 -0.650286	 -0.479181
H	 -1.123856	 -0.796636	 1.204729
C	 -3.787584	 -1.492726	 0.938538
H	 -3.664406	 0.505474	 0.154818
H	 -3.234671	 0.380270	 1.837703
C	 -5.266952	 -1.431156	 1.317195
H	 -3.682210	 -1.987912	 -0.024441
H	 -3.256659	 -2.111443	 1.659017
H	 -5.705251	 -2.423645	 1.355492
H	 -5.832250	 -0.847671	 0.595961
H	 -5.403352	 -0.971587	 2.292114
C	 4.728119	 -1.109107	 -0.004993
H	 4.882018	 -1.033965	 -1.071845
H	 5.068212	 -2.067527	 0.355250
H	 5.265056	 -0.311663	 0.488280

	symmetry c1
}
set optking {
	frozen_dihedral = ("
		11 8 5 9
	")
}

ee = optimize('scf')
oeprop('DIPOLE', 'QUADRUPOLE', 'MULLIKEN_CHARGES')
f=open( 'psi4out.xyz', 'w' )
f.write( "29  " )
f.write( str(ee) + "\n" )
f.write( MOL.save_string_xyz() )
f.close()
--------------------------------------------------------------------------

    Molecular point group: c1
  Charge       = 0
  Multiplicity = 1
  Basis Set: 6-31G*
  Basis Set:
  @DF-RHF Final Energy:  -501.03950205697151
    Total Energy =                       -501.0395020569715143
    Molecular point group: c1
  Basis Set: 6-31G*
  Basis Set:
  Basis Set: 6-31G*
  Basis Set:
  @DF-RHF Final Energy:  -501.03995716535917
    Total Energy =                       -501.0399571653595103
  Basis Set: 6-31G*
  Basis Set:
  Basis Set: 6-31G*
  Basis Set:
  @DF-RHF Final Energy:  -501.04027336821866
    Total Energy =                       -501.0402733682185499
  Basis Set: 6-31G*
  Basis Set:
  Basis Set: 6-31G*
  Basis Set:
  @DF-RHF Final Energy:  -501.03977824390336
    Total Energy =                       -501.0397782439036973
  Basis Set: 6-31G*
  Basis Set:
  Basis Set: 6-31G*
  Basis Set:
  @DF-RHF Final Energy:  -501.04039034516586
    Total Energy =                       -501.0403903451656333
  Basis Set: 6-31G*
  Basis Set:
  Basis Set: 6-31G*
  Basis Set:
  @DF-RHF Final Energy:  -501.04039419206822
    Total Energy =                       -501.0403941920681063
  Basis Set: 6-31G*
  Basis Set:
  Basis Set: 6-31G*
  Basis Set:
  @DF-RHF Final Energy:  -501.04039709582332
    Total Energy =                       -501.0403970958232094
  Basis Set: 6-31G*
  Basis Set:
  Charge       = 0
  Multiplicity = 1
  Basis Set: 6-31G*
  Basis Set:

    Orbital Energies (a.u.)
    -----------------------

    Doubly Occupied:

       1A    -20.603386     2A    -20.545289     3A    -11.372092
       4A    -11.280682     5A    -11.235226     6A    -11.218760
       7A    -11.217663     8A    -11.216457     9A    -11.216085
      10A    -11.214626    11A    -11.209228    12A     -1.469143
      13A     -1.362596    14A     -1.097361    15A     -1.066434
      16A     -1.018953    17A     -0.977100    18A     -0.928987
      19A     -0.864228    20A     -0.798953    21A     -0.790900
      22A     -0.760541    23A     -0.700029    24A     -0.682864
      25A     -0.671490    26A     -0.654611    27A     -0.628268
      28A     -0.603557    29A     -0.592612    30A     -0.580363
      31A     -0.567474    32A     -0.552067    33A     -0.531252
      34A     -0.527163    35A     -0.519041    36A     -0.512943
      37A     -0.497644    38A     -0.479915    39A     -0.467699
      40A     -0.461371    41A     -0.458157    42A     -0.452948
      43A     -0.439589    44A     -0.436783

  @DF-RHF Final Energy:  -501.04039758215868

   => Energetics <=

    Nuclear Repulsion Energy =            612.0392950346010821
    One-Electron Energy =               -1895.1943305090012473
    Two-Electron Energy =                 782.1146378922414897
    DFT Exchange-Correlation Energy =       0.0000000000000000
    Empirical Dispersion Energy =           0.0000000000000000
    PCM Polarization Energy =               0.0000000000000000
    EFP Energy =                            0.0000000000000000
    Total Energy =                       -501.0403975821586755
    Molecular point group: c1
  Basis Set: 6-31G*
  Basis Set:

  -Total Gradient:
     Atom            X                  Y                   Z
    ------   -----------------  -----------------  -----------------
       1        0.000005514461     0.000006412274     0.000026315989
       2       -0.000003934716    -0.000023969495    -0.000071320525
       3       -0.000013869645     0.000012518662     0.000027003910
       4       -0.000010428311     0.000010071211     0.000015665335
       5        0.000344483719    -0.007650169723     0.000910318749
       6       -0.000013375084    -0.000015615560    -0.000001198332
       7        0.000001875062    -0.000002266069     0.000002459762
       8       -0.001973058830     0.002295894146    -0.005889434366
       9        0.000209956177     0.005956590273     0.000767110481
      10       -0.000013625258     0.000003125560    -0.000004389731
      11        0.001432277314    -0.000599768301     0.004209775558
      12       -0.000004149601     0.000012123305     0.000002062988
      13        0.000022625965    -0.000014792677     0.000003332049
      14       -0.000002746829     0.000013707803    -0.000006689425
      15        0.000025463855    -0.000010482475     0.000001526922
      16       -0.000009978510    -0.000001824795     0.000009829737
      17        0.000004625095    -0.000000763929    -0.000005394601
      18       -0.000005206053     0.000005940655     0.000004360411
      19        0.000001829972    -0.000006446448     0.000002818684
      20       -0.000000259633     0.000005360095    -0.000007751756
      21        0.000002486470    -0.000003387377     0.000001439108
      22       -0.000000667313     0.000003581055     0.000002434270
      23        0.000001600418     0.000000033098    -0.000002533777
      24       -0.000001985764     0.000001549713     0.000001017650
      25        0.000001477567    -0.000001440011    -0.000000313738
      26       -0.000000583355     0.000004113357     0.000002413930
      27       -0.000001234529     0.000000046285    -0.000000422246
      28       -0.000000577457     0.000000247205     0.000000023715
      29        0.000001464778    -0.000000387838    -0.000000460749

  **** Optimization is complete! (in 8 steps) ****
    Final optimized geometry and variables:
    Molecular point group: c1

    Geometry (in Angstrom), charge = 0, multiplicity = 1:

    O            3.105085879409     1.176305074244    -0.982333802563
    C            2.621308077437     0.252917386817    -0.411172328858
    C            1.173295631072     0.128722145145    -0.001528941109
    O            3.313768377451    -0.820081639385    -0.049351349699
    C            0.336952938462     1.337040152992    -0.409601136644
    H            0.798204147215    -0.793118538835    -0.432940479094
    H            1.156066979494    -0.018494701290     1.075120971343
    C           -1.124977059878     1.327252960134     0.077490889019
    H            0.372022655537     1.475410997206    -1.485500088059
    H            0.816462252856     2.227124480892    -0.015019297692
    C           -1.820467457383    -0.037332755816     0.116086994772
    H           -1.697302755281     2.008182144426    -0.546287580871
    H           -1.159873218435     1.743222846409     1.082900585592
    C           -3.294720504662     0.066773347476     0.512182869804
    H           -1.747187779174    -0.519098234071    -0.858361508985
    H           -1.311946895625    -0.690971860871     0.819936833396
    C           -4.001088844976    -1.288422630391     0.580269695006
    H           -3.814399918453     0.706682055370    -0.198828394950
    H           -3.373317458388     0.560883812482     1.479373154403
    C           -5.473781148023    -1.175327315396     0.972843896858
    H           -3.922402848685    -1.784320015406    -0.384907754094
    H           -3.485934362681    -1.927723584180     1.294198277884
    H           -5.946799037023    -2.151692128057     1.012549053909
    H           -6.024535879843    -0.569882198038     0.258492027369
    H           -5.584703775515    -0.714134413990     1.950207635746
    C            4.692147325214    -0.834428270641    -0.372934481876
    H            4.832187696638    -0.769930804704    -1.442393907872
    H            5.072620080551    -1.773377600429    -0.001974289365
    H            5.202863141195    -0.009385950162     0.102477821483

  Mulliken Charges: (a.u.)
   Center  Symbol    Alpha    Beta     Spin     Total
       1     O     4.28582  4.28582  0.00000 -0.57164
       2     C     2.60417  2.60417  0.00000  0.79166
       3     C     3.21137  3.21137  0.00000 -0.42274
       4     O     4.30767  4.30767  0.00000 -0.61534
       5     C     3.15589  3.15589  0.00000 -0.31177
       6     H     0.39797  0.39797  0.00000  0.20406
       7     H     0.40078  0.40078  0.00000  0.19845
       8     C     3.15497  3.15497  0.00000 -0.30994
       9     H     0.41170  0.41170  0.00000  0.17660
      10     H     0.40927  0.40927  0.00000  0.18145
      11     C     3.15771  3.15771  0.00000 -0.31542
      12     H     0.41792  0.41792  0.00000  0.16416
      13     H     0.42271  0.42271  0.00000  0.15459
      14     C     3.15017  3.15017  0.00000 -0.30035
      15     H     0.42373  0.42373  0.00000  0.15253
      16     H     0.42236  0.42236  0.00000  0.15528
      17     C     3.15139  3.15139  0.00000 -0.30278
      18     H     0.42325  0.42325  0.00000  0.15350
      19     H     0.42379  0.42379  0.00000  0.15243
      20     C     3.23935  3.23935  0.00000 -0.47869
      21     H     0.42304  0.42304  0.00000  0.15391
      22     H     0.42338  0.42338  0.00000  0.15325
      23     H     0.41923  0.41923  0.00000  0.16153
      24     H     0.42155  0.42155  0.00000  0.15689
      25     H     0.42173  0.42173  0.00000  0.15655
      26     C     3.09239  3.09239  0.00000 -0.18477
      27     H     0.40908  0.40908  0.00000  0.18184
      28     H     0.40849  0.40849  0.00000  0.18301
      29     H     0.40913  0.40913  0.00000  0.18174

   Total alpha = 44.00000, Total beta = 44.00000, Total charge =  0.00000
