  ==> Input File <==

--------------------------------------------------------------------------
set {
	reference rhf
	basis 6-31G*
}

set_num_threads( 4 )
memory 2 gb

molecule MOL {
0 1

H	 2.650155	 -1.630488	 0.896544
O	 3.366769	 -1.524074	 0.288094
C	 3.094068	 -2.233635	 -0.893520
C	 2.019415	 -1.578175	 -1.753880
H	 4.028523	 -2.267493	 -1.438792
H	 2.815879	 -3.261820	 -0.664992
C	 0.640505	 -1.522205	 -1.091806
H	 2.344849	 -0.571971	 -2.004905
H	 1.949450	 -2.131535	 -2.688901
C	 -0.427600	 -0.908214	 -2.001193
H	 0.708798	 -0.946956	 -0.172681
H	 0.333248	 -2.529298	 -0.809498
C	 -1.845646	 -0.906169	 -1.418541
H	 -0.140534	 0.111134	 -2.252925
H	 -0.441707	 -1.459091	 -2.939295
C	 -2.037799	 -0.007733	 -0.193645
H	 -2.534300	 -0.583404	 -2.196611
H	 -2.132049	 -1.926074	 -1.166344
C	 -3.489788	 0.042957	 0.286558
H	 -1.704016	 1.001064	 -0.432449
H	 -1.409255	 -0.350935	 0.624553
C	 -4.216917	 1.317354	 -0.141063
H	 -4.025645	 -0.823308	 -0.095450
H	 -3.513059	 -0.038752	 1.371301
H	 -4.239342	 1.411634	 -1.223113
H	 -5.243387	 1.322503	 0.212445
H	 -3.726170	 2.201406	 0.256408

	symmetry c1
}
set optking {
	frozen_dihedral = ("
		20 16 19 22
	")
}

ee = optimize('scf')
oeprop('DIPOLE', 'QUADRUPOLE', 'MULLIKEN_CHARGES')
f=open( 'psi4out.xyz', 'w' )
f.write( "27  " )
f.write( str(ee) + "\n" )
f.write( MOL.save_string_xyz() )
f.close()
--------------------------------------------------------------------------

    Molecular point group: c1
  Charge       = 0
  Multiplicity = 1
  Basis Set: 6-31G*
  Basis Set:
  @DF-RHF Final Energy:  -388.27691825073066
    Total Energy =                       -388.2769182507308869
    Molecular point group: c1
  Basis Set: 6-31G*
  Basis Set:
  Basis Set: 6-31G*
  Basis Set:
  @DF-RHF Final Energy:  -388.27717114621976
    Total Energy =                       -388.2771711462200983
  Basis Set: 6-31G*
  Basis Set:
  Basis Set: 6-31G*
  Basis Set:
  @DF-RHF Final Energy:  -388.27722260620141
    Total Energy =                       -388.2772226062011214
  Basis Set: 6-31G*
  Basis Set:
  Basis Set: 6-31G*
  Basis Set:
  @DF-RHF Final Energy:  -388.27723756063341
    Total Energy =                       -388.2772375606333526
  Basis Set: 6-31G*
  Basis Set:
  Basis Set: 6-31G*
  Basis Set:
  @DF-RHF Final Energy:  -388.27726512482496
    Total Energy =                       -388.2772651248249076
  Basis Set: 6-31G*
  Basis Set:
  Basis Set: 6-31G*
  Basis Set:
  @DF-RHF Final Energy:  -388.27726693076363
    Total Energy =                       -388.2772669307636306
  Basis Set: 6-31G*
  Basis Set:
  Charge       = 0
  Multiplicity = 1
  Basis Set: 6-31G*
  Basis Set:

    Orbital Energies (a.u.)
    -----------------------

    Doubly Occupied:

       1A    -20.552309     2A    -11.267053     3A    -11.219828
       4A    -11.217067     5A    -11.215926     6A    -11.215823
       7A    -11.215213     8A    -11.214221     9A    -11.209608
      10A     -1.359064    11A     -1.094656    12A     -1.060292
      13A     -1.010340    14A     -0.947384    15A     -0.889481
      16A     -0.823243    17A     -0.800256    18A     -0.776427
      19A     -0.693727    20A     -0.647287    21A     -0.633461
      22A     -0.615858    23A     -0.603644    24A     -0.589898
      25A     -0.578992    26A     -0.554146    27A     -0.539280
      28A     -0.527196    29A     -0.509409    30A     -0.490795
      31A     -0.485599    32A     -0.476224    33A     -0.469190
      34A     -0.460260    35A     -0.449120    36A     -0.439959
      37A     -0.422829

  @DF-RHF Final Energy:  -388.27726771842509

   => Energetics <=

    Nuclear Repulsion Energy =            460.2685622223279438
    One-Electron Energy =               -1438.5415305099518264
    Two-Electron Energy =                 589.9957005691990162
    DFT Exchange-Correlation Energy =       0.0000000000000000
    Empirical Dispersion Energy =           0.0000000000000000
    PCM Polarization Energy =               0.0000000000000000
    EFP Energy =                            0.0000000000000000
    Total Energy =                       -388.2772677184248096
    Molecular point group: c1
  Basis Set: 6-31G*
  Basis Set:

  -Total Gradient:
     Atom            X                  Y                   Z
    ------   -----------------  -----------------  -----------------
       1        0.000000435384     0.000001798800     0.000002803694
       2       -0.000008033927    -0.000002970935     0.000002411773
       3        0.000011428773     0.000006292638    -0.000007832215
       4       -0.000000388562    -0.000006738510     0.000007024568
       5       -0.000000141338    -0.000003447229    -0.000004637042
       6       -0.000002671314     0.000002653271     0.000001118739
       7        0.000008068046    -0.000011736178    -0.000004738863
       8        0.000003545529    -0.000001907609     0.000000491326
       9       -0.000000684515    -0.000001132054     0.000000572098
      10       -0.000000955609    -0.000000760315    -0.000003317748
      11        0.000008258573     0.000001555011    -0.000006803591
      12       -0.000004861341     0.000006612772     0.000002519118
      13       -0.000019830479    -0.000016913101    -0.000006918967
      14        0.000003955990    -0.000000107134     0.000015580208
      15        0.000007379685     0.000015677884    -0.000007123781
      16        0.001445792198     0.000914670127     0.004561450531
      17       -0.000010134938    -0.000014592787     0.000000256376
      18        0.000004121786    -0.000000095143     0.000002542894
      19       -0.001142211389    -0.001551596822    -0.003422203526
      20       -0.000972136042    -0.000384289127    -0.003061461005
      21       -0.000021722735    -0.000003935466    -0.000004003603
      22        0.000675399978     0.001068130758     0.001954874333
      23        0.000011021886     0.000007842077    -0.000020088617
      24        0.000006013343    -0.000023701026     0.000002568267
      25       -0.000005484683     0.000011871182    -0.000006422537
      26        0.000002723810    -0.000008745965     0.000001761698
      27        0.000001111887    -0.000004435115    -0.000000424130

  **** Optimization is complete! (in 7 steps) ****
    Final optimized geometry and variables:
    Molecular point group: c1

    Geometry (in Angstrom), charge = 0, multiplicity = 1:

    H            2.938522723956    -0.807967519023     1.629386997001
    O            3.650832261310    -0.696012673348     1.016884815119
    C            3.375109640940    -1.404829554564    -0.164452357039
    C            2.292024928917    -0.753481569242    -1.017317302928
    H            4.306603472588    -1.432435898377    -0.715087500230
    H            3.103910340142    -2.434974220767     0.063639463004
    C            0.916809027413    -0.705765927310    -0.347067406165
    H            2.610755129238     0.254796416776    -1.268617453087
    H            2.219321925256    -1.305659754168    -1.952814394256
    C           -0.159495394378    -0.093202672440    -1.247893163882
    H            0.988047998359    -0.133221903274     0.573574736068
    H            0.615594539437    -1.715101715064    -0.066257807013
    C           -1.573606650387    -0.102984675294    -0.657108722538
    H            0.120442441720     0.929308282115    -1.495104800785
    H           -0.175168658923    -0.638681957425    -2.189181149213
    C           -1.762615956245     0.780645449643     0.582392435967
    H           -2.268455744688     0.226608853659    -1.427207057876
    H           -1.855897610902    -1.126386705479    -0.415077949472
    C           -3.235895754209     0.866973545977     1.032132383716
    H           -1.399981184462     1.777797655665     0.340757511986
    H           -1.147820838152     0.409664150933     1.395759137470
    C           -3.933187389905     2.150287514226     0.578130973712
    H           -3.783254969416     0.003484531152     0.662795162038
    H           -3.291656539411     0.813712625125     2.116097635767
    H           -3.903622588737     2.257656587214    -0.503008500203
    H           -4.975707278290     2.160757834199     0.881435929929
    H           -3.452918783538     3.023890701202     1.008765328983

  Mulliken Charges: (a.u.)
   Center  Symbol    Alpha    Beta     Spin     Total
       1     H     0.27992  0.27992  0.00000  0.44016
       2     O     4.37093  4.37093  0.00000 -0.74187
       3     C     2.99739  2.99739  0.00000  0.00521
       4     C     3.16086  3.16086  0.00000 -0.32173
       5     H     0.41444  0.41444  0.00000  0.17112
       6     H     0.43204  0.43204  0.00000  0.13591
       7     C     3.16326  3.16326  0.00000 -0.32652
       8     H     0.41498  0.41498  0.00000  0.17004
       9     H     0.42433  0.42433  0.00000  0.15135
      10     C     3.15243  3.15243  0.00000 -0.30487
      11     H     0.42302  0.42302  0.00000  0.15396
      12     H     0.42541  0.42541  0.00000  0.14917
      13     C     3.15532  3.15532  0.00000 -0.31063
      14     H     0.42169  0.42169  0.00000  0.15663
      15     H     0.42156  0.42156  0.00000  0.15688
      16     C     3.15590  3.15590  0.00000 -0.31181
      17     H     0.42111  0.42111  0.00000  0.15777
      18     H     0.42396  0.42396  0.00000  0.15208
      19     C     3.15503  3.15503  0.00000 -0.31006
      20     H     0.42153  0.42153  0.00000  0.15694
      21     H     0.42063  0.42063  0.00000  0.15874
      22     C     3.23986  3.23986  0.00000 -0.47972
      23     H     0.42069  0.42069  0.00000  0.15861
      24     H     0.42069  0.42069  0.00000  0.15862
      25     H     0.42214  0.42214  0.00000  0.15573
      26     H     0.41997  0.41997  0.00000  0.16007
      27     H     0.42090  0.42090  0.00000  0.15821

   Total alpha = 37.00000, Total beta = 37.00000, Total charge = -0.00000
