  ==> Input File <==

--------------------------------------------------------------------------
set {
	reference rhf
	basis 6-31G*
}

set_num_threads( 4 )
memory 2 gb

molecule MOL {
0 1

H	 2.851729	 -0.414915	 0.126751
O	 2.014636	 -0.866024	 0.076133
C	 1.049006	 0.052227	 0.078207
C	 -0.318135	 -0.576402	 0.000164
O	 1.282679	 1.215439	 0.135918
C	 -1.454360	 0.441875	 -0.000474
H	 -0.340796	 -1.193084	 -0.894371
H	 -0.406398	 -1.265091	 0.836179
C	 -2.826123	 -0.230780	 0.000056
H	 -1.357605	 1.085198	 -0.868380
H	 -1.357504	 1.086451	 0.866496
H	 -2.959731	 -0.858053	 -0.876869
H	 -3.619374	 0.509403	 -0.000080
H	 -2.959371	 -0.857318	 0.877556

	symmetry c1
}
set optking {
	frozen_dihedral = ("
		7 4 6 10
	")
}

ee = optimize('scf')
oeprop('DIPOLE', 'QUADRUPOLE', 'MULLIKEN_CHARGES')
f=open( 'psi4out.xyz', 'w' )
f.write( "14  " )
f.write( str(ee) + "\n" )
f.write( MOL.save_string_xyz() )
f.close()
--------------------------------------------------------------------------

    Molecular point group: c1
  Charge       = 0
  Multiplicity = 1
  Basis Set: 6-31G*
  Basis Set:
  @DF-RHF Final Energy:  -305.88083945228652
    Total Energy =                       -305.8808394522864660
    Molecular point group: c1
  Basis Set: 6-31G*
  Basis Set:
  Basis Set: 6-31G*
  Basis Set:
  @DF-RHF Final Energy:  -305.88084355687744
    Total Energy =                       -305.8808435568771529
  Basis Set: 6-31G*
  Basis Set:
  Charge       = 0
  Multiplicity = 1
  Basis Set: 6-31G*
  Basis Set:

    Orbital Energies (a.u.)
    -----------------------

    Doubly Occupied:

       1A    -20.613103     2A    -20.552187     3A    -11.381718
       4A    -11.241410     5A    -11.225667     6A    -11.217073
       7A     -1.475181     8A     -1.366258     9A     -1.083202
      10A     -0.979718    11A     -0.857250    12A     -0.791148
      13A     -0.699997    14A     -0.688756    15A     -0.667698
      16A     -0.615534    17A     -0.594039    18A     -0.572876
      19A     -0.545605    20A     -0.504925    21A     -0.491582
      22A     -0.482778    23A     -0.479016    24A     -0.444669

  @DF-RHF Final Energy:  -305.88084346387143

   => Energetics <=

    Nuclear Repulsion Energy =            239.9735367962999817
    One-Electron Energy =                -892.5659809987982953
    Two-Electron Energy =                 346.7116007386267711
    DFT Exchange-Correlation Energy =       0.0000000000000000
    Empirical Dispersion Energy =           0.0000000000000000
    PCM Polarization Energy =               0.0000000000000000
    EFP Energy =                            0.0000000000000000
    Total Energy =                       -305.8808434638715426
    Molecular point group: c1
  Basis Set: 6-31G*
  Basis Set:

  -Total Gradient:
     Atom            X                  Y                   Z
    ------   -----------------  -----------------  -----------------
       1        0.000001921588    -0.000001565852    -0.000004343080
       2        0.000002637952     0.000034567387    -0.000259360502
       3       -0.000052259338    -0.000089506707     0.000833412639
       4       -0.000556595873    -0.000582445677     0.000057008559
       5        0.000016064356     0.000016443454    -0.000311970835
       6        0.000525158282     0.000589923171     0.000391543894
       7        0.000336821967     0.000400662222    -0.000302919637
       8        0.000067444236     0.000013043584     0.000034202762
       9        0.000031181057     0.000022045639    -0.000047885144
      10       -0.000365316852    -0.000381575951    -0.000377734457
      11       -0.000002828719    -0.000015705228    -0.000005165727
      12       -0.000025899875     0.000003715852    -0.000005657127
      13       -0.000001485101    -0.000004930568     0.000006824033
      14        0.000023156314    -0.000004671327    -0.000007955378

  **** Optimization is complete! (in 3 steps) ****
    Final optimized geometry and variables:
    Molecular point group: c1

    Geometry (in Angstrom), charge = 0, multiplicity = 1:

    H            2.852907223758    -0.413748220864     0.064799156147
    O            2.015551752381    -0.865062006564     0.020798311510
    C            1.049777584408     0.053028095481     0.029519662013
    C           -0.317788986553    -0.575963467744    -0.041526192050
    O            1.283955825929     1.216397231321     0.081919229484
    C           -1.453139993319     0.443395516158    -0.043832840610
    H           -0.340657307832    -1.192528987733    -0.936081059683
    H           -0.403239606144    -1.262225751724     0.796703119978
    C           -2.825062428586    -0.229341258523    -0.053396407216
    H           -1.354134821086     1.086020706299    -0.912258985123
    H           -1.360829831555     1.086046475057     0.824641931296
    H           -2.952791131041    -0.856328348107    -0.931425761483
    H           -3.618339666984     0.510811468946    -0.058847308964
    H           -2.964334041835    -0.856197800959     0.822918685135

  Mulliken Charges: (a.u.)
   Center  Symbol    Alpha    Beta     Spin     Total
       1     H     0.26776  0.26776  0.00000  0.46449
       2     O     4.35113  4.35113  0.00000 -0.70226
       3     C     2.62355  2.62355  0.00000  0.75291
       4     C     3.20921  3.20921  0.00000 -0.41842
       5     O     4.27914  4.27914  0.00000 -0.55828
       6     C     3.15239  3.15239  0.00000 -0.30478
       7     H     0.39866  0.39866  0.00000  0.20268
       8     H     0.39887  0.39887  0.00000  0.20226
       9     C     3.24295  3.24295  0.00000 -0.48590
      10     H     0.41091  0.41091  0.00000  0.17818
      11     H     0.40921  0.40921  0.00000  0.18159
      12     H     0.42092  0.42092  0.00000  0.15816
      13     H     0.41450  0.41450  0.00000  0.17101
      14     H     0.42082  0.42082  0.00000  0.15837

   Total alpha = 24.00000, Total beta = 24.00000, Total charge = -0.00000
