                              Psi4 1.0.54 Driver

  ==> Input File <==

--------------------------------------------------------------------------
set {
	reference rhf
	basis cc-pvtz
}

set_num_threads( 4 )
memory 2 gb

molecule MOL {
0 1

H	 -2.005034	 0.884000	 -4.195724
C	 -1.348107	 0.772306	 -3.354209
C	 -1.313249	 1.745835	 -2.372035
C	 -0.539403	 -0.344016	 -3.255181
H	 -1.941240	 2.612043	 -2.449566
C	 -0.468839	 1.601604	 -1.290987
H	 -0.567181	 -1.098424	 -4.017394
C	 0.306648	 -0.489874	 -2.173322
H	 -0.429178	 2.345592	 -0.521593
C	 0.344131	 0.483451	 -1.187552
H	 0.934236	 -1.353187	 -2.093602
C	 1.238974	 0.374429	 0.000004
O	 1.968286	 -0.725612	 -0.000027
O	 1.295301	 1.188158	 0.860151
C	 3.373556	 -0.568203	 0.000011
H	 3.695416	 -0.031588	 -0.879663
H	 3.782700	 -1.565294	 -0.000152
H	 3.695405	 -0.031851	 0.879862

	symmetry c1
}
set optking {
	frozen_dihedral = ("
		10 12 13 15
	")
}

ee,wfn = optimize('scf', return_wfn=True)
oeprop( wfn, 'DIPOLE', 'QUADRUPOLE', 'MULLIKEN_CHARGES')
f=open( 'psi4out.xyz', 'w' )
f.write( "18  " )
f.write( str(ee) + "\n" )
f.write( MOL.save_string_xyz() )
f.close()
--------------------------------------------------------------------------

    Molecular point group: c1
  Charge       = 0
  Multiplicity = 1
  Basis Set: CC-PVTZ
  Basis Set:
  @DF-RHF Final Energy:  -457.49625068916095
    Total Energy =                       -457.4962506891613430
    Molecular point group: c1
  Basis Set: CC-PVTZ
  Basis Set:
  Basis Set: CC-PVTZ
  Basis Set:
  @DF-RHF Final Energy:  -457.49145689201021
    Total Energy =                       -457.4914568920099782
  Basis Set: CC-PVTZ
  Basis Set:
  Basis Set: CC-PVTZ
  Basis Set:
  @DF-RHF Final Energy:  -457.49662809611033
    Total Energy =                       -457.4966280961100438
  Basis Set: CC-PVTZ
  Basis Set:
  Basis Set: CC-PVTZ
  Basis Set:
  @DF-RHF Final Energy:  -457.49663598417004
    Total Energy =                       -457.4966359841696431
  Basis Set: CC-PVTZ
  Basis Set:
  Basis Set: CC-PVTZ
  Basis Set:
  @DF-RHF Final Energy:  -457.49694360987121
    Total Energy =                       -457.4969436098713231
  Basis Set: CC-PVTZ
  Basis Set:
  Basis Set: CC-PVTZ
  Basis Set:
  @DF-RHF Final Energy:  -457.49695340331249
    Total Energy =                       -457.4969534033125456
  Basis Set: CC-PVTZ
  Basis Set:
  Charge       = 0
  Multiplicity = 1
  Basis Set: CC-PVTZ
  Basis Set:

    Orbital Energies (a.u.)
    -----------------------

    Doubly Occupied:

       1A    -20.585094     2A    -20.541815     3A    -11.373507
       4A    -11.285545     5A    -11.247004     6A    -11.246556
       7A    -11.245522     8A    -11.242778     9A    -11.238529
      10A    -11.237819    11A     -1.467419    12A     -1.369545
      13A     -1.172961    14A     -1.050443    15A     -1.031629
      16A     -0.976187    17A     -0.869609    18A     -0.841360
      19A     -0.780657    20A     -0.743055    21A     -0.688445
      22A     -0.678831    23A     -0.668036    24A     -0.638644
      25A     -0.632333    26A     -0.607191    27A     -0.599190
      28A     -0.560865    29A     -0.530855    30A     -0.523080
      31A     -0.507257    32A     -0.502686    33A     -0.462635
      34A     -0.447431    35A     -0.352919    36A     -0.348798

  @DF-RHF Final Energy:  -457.49695392567889

   => Energetics <=

    Nuclear Repulsion Energy =            495.1088169751104715
    One-Electron Energy =               -1604.6190847173506882
    Two-Electron Energy =                 652.0133138165612081
    DFT Exchange-Correlation Energy =       0.0000000000000000
    Empirical Dispersion Energy =           0.0000000000000000
    PCM Polarization Energy =               0.0000000000000000
    EFP Energy =                            0.0000000000000000
    Total Energy =                       -457.4969539256788948
    Molecular point group: c1
  Basis Set: CC-PVTZ
  Basis Set:

  -Total Gradient:
     Atom            X                  Y                   Z
    ------   -----------------  -----------------  -----------------
       1       -0.000005933779    -0.000000744784     0.000002321228
       2        0.000010366691     0.000047969521     0.000012365346
       3       -0.000034899896    -0.000036172103    -0.000038816018
       4        0.000032838603    -0.000004076987     0.000019209082
       5        0.000001665709    -0.000004668118    -0.000002407574
       6        0.000042773024    -0.000045994761     0.000010161328
       7       -0.000005453820     0.000008935279     0.000005199901
       8       -0.000024688593    -0.000015881604    -0.000017070605
       9       -0.000002909423    -0.000001961978     0.000001983160
      10        0.004522798326     0.002046472350    -0.003246076747
      11       -0.000003160394     0.000013807839     0.000005329091
      12       -0.006669157680    -0.003278802611     0.001772317796
      13        0.002277068208     0.001794567476     0.007817008975
      14       -0.000010509374     0.000057391369    -0.000019772570
      15       -0.000090535703    -0.000570485880    -0.006310884240
      16       -0.000014583112    -0.000009424099    -0.000000574000
      17       -0.000015044211     0.000010254907    -0.000004682262
      18       -0.000010634580    -0.000011185817    -0.000005611888

  **** Optimization is complete! (in 7 steps) ****
    Final optimized geometry and variables:
    Molecular point group: c1

    Geometry (in Angstrom), charge = 0, multiplicity = 1:

    H           -2.547734900092     0.630459941735    -3.006689149489
    C           -1.901445227123     0.490297267747    -2.161168268808
    C           -1.698345021551     1.529219136432    -1.268485943174
    C           -1.276919126362    -0.725892330987    -1.966225948650
    H           -2.185634136563     2.472676464152    -1.420758564323
    C           -0.869514811810     1.349261660807    -0.182451429564
    H           -1.437866483849    -1.531166200099    -2.656474620576
    C           -0.444140981018    -0.907304342519    -0.878021677128
    H           -0.701910338430     2.142154478859     0.517894181494
    C           -0.234383998906     0.130697762870     0.015052192555
    H            0.037276852970    -1.849934974462    -0.719420296917
    C            0.673983792464    -0.013330307329     1.187960813615
    O            1.261321055638    -1.212526017326     1.283968425250
    O            0.904444374472     0.863658085520     1.944438581785
    C            2.674887040343    -1.229482100679     1.249886278983
    H            3.029067947368    -0.885326752449     0.285678737134
    H            2.972449413582    -2.254791862243     1.397553081860
    H            3.086038986308    -0.610795589172     2.033495340698

  Mulliken Charges: (a.u.)
   Center  Symbol    Alpha    Beta     Spin     Total
       1     H     0.41982  0.41982  0.00000  0.16036
       2     C     3.06899  3.06899  0.00000 -0.13799
       3     C     3.07569  3.07569  0.00000 -0.15138
       4     C     3.07587  3.07587  0.00000 -0.15174
       5     H     0.42015  0.42015  0.00000  0.15971
       6     C     3.07650  3.07650  0.00000 -0.15300
       7     H     0.42120  0.42120  0.00000  0.15759
       8     C     3.09013  3.09013  0.00000 -0.18026
       9     H     0.40653  0.40653  0.00000  0.18695
      10     C     3.01815  3.01815  0.00000 -0.03631
      11     H     0.40884  0.40884  0.00000  0.18232
      12     C     2.76918  2.76918  0.00000  0.46164
      13     O     4.16854  4.16854  0.00000 -0.33708
      14     O     4.19132  4.19132  0.00000 -0.38264
      15     C     3.04196  3.04196  0.00000 -0.08392
      16     H     0.46168  0.46168  0.00000  0.07663
      17     H     0.44327  0.44327  0.00000  0.11346
      18     H     0.44218  0.44218  0.00000  0.11565

   Total alpha = 36.00000, Total beta = 36.00000, Total charge = -0.00000

*** Psi4 exiting successfully. Buy a developer a beer!
