  ==> Input File <==

--------------------------------------------------------------------------
set {
	reference rhf
	basis 6-31G*
}

set_num_threads( 1 )
memory 2 gb

molecule MOL {
0 1

O	 -2.408801	 -2.191444	 0.888406
C	 -1.689725	 -2.705585	 0.086519
C	 -0.655018	 -1.889055	 -0.667779
C	 -1.747808	 -4.190390	 -0.195183
C	 0.581030	 -1.627124	 0.207847
H	 -1.114369	 -0.944225	 -0.937218
H	 -0.361309	 -2.395555	 -1.582776
C	 1.631333	 -0.777471	 -0.511575
H	 0.252991	 -1.138466	 1.118335
H	 1.028246	 -2.574981	 0.503335
C	 2.915987	 -0.544314	 0.291766
H	 1.194095	 0.183428	 -0.776568
H	 1.892476	 -1.262831	 -1.449700
C	 3.373361	 0.914346	 0.347591
H	 3.708709	 -1.142521	 -0.150311
H	 2.780642	 -0.921148	 1.303579
H	 3.506512	 1.320010	 -0.651625
H	 4.322697	 0.999599	 0.867103
H	 2.660624	 1.545032	 0.868198
H	 -2.091295	 -4.355919	 -1.212966
H	 -2.426048	 -4.672008	 0.495337
H	 -0.760541	 -4.635972	 -0.114155

	symmetry c1
}
set optking {
	frozen_dihedral = ("
		6 3 2 1,
		6 3 5 8,
		3 5 8 12
	")
}

ee = energy('scf')
oeprop('DIPOLE', 'QUADRUPOLE', 'MULLIKEN_CHARGES')
f=open( 'psi4out.xyz', 'w' )
f.write( "22  " )
f.write( str(ee) + "\n" )
f.write( MOL.save_string_xyz() )
f.close()
--------------------------------------------------------------------------

    Molecular point group: c1

    Geometry (in Angstrom), charge = 0, multiplicity = 1:

       Center              X                  Y                   Z               Mass
    ------------   -----------------  -----------------  -----------------  -----------------
           O         -2.663733860951    -0.569780041125     0.825417023165    15.994914619560
           C         -1.944657860951    -1.083921041125     0.023530023165    12.000000000000
           C         -0.909950860951    -0.267391041125    -0.730767976835    12.000000000000
           C         -2.002740860951    -2.568726041125    -0.258171976835    12.000000000000
           C          0.326097139049    -0.005460041125     0.144858023165    12.000000000000
           H         -1.369301860951     0.677438958875    -1.000206976835     1.007825032070
           H         -0.616241860951    -0.773891041125    -1.645764976835     1.007825032070
           C          1.376400139049     0.844192958875    -0.574563976835    12.000000000000
           H         -0.001941860951     0.483197958875     1.055346023165     1.007825032070
           H          0.773313139049    -0.953317041125     0.440346023165     1.007825032070
           C          2.661054139049     1.077349958875     0.228777023165    12.000000000000
           H          0.939162139049     1.805091958875    -0.839556976835     1.007825032070
           H          1.637543139049     0.358832958875    -1.512688976835     1.007825032070
           C          3.118428139049     2.536009958875     0.284602023165    12.000000000000
           H          3.453776139049     0.479142958875    -0.213299976835     1.007825032070
           H          2.525709139049     0.700515958875     1.240590023165     1.007825032070
           H          3.251579139049     2.941673958875    -0.714613976835     1.007825032070
           H          4.067764139049     2.621262958875     0.804114023165     1.007825032070
           H          2.405691139049     3.166695958875     0.805209023165     1.007825032070
           H         -2.346227860951    -2.734255041125    -1.275954976835     1.007825032070
           H         -2.680980860951    -3.050344041125     0.432348023165     1.007825032070
           H         -1.015473860951    -3.014308041125    -0.177143976835     1.007825032070

  Charge       = 0
  Multiplicity = 1
  Basis Set: 6-31G*
  Basis Set:

    Orbital Energies (a.u.)
    -----------------------

    Doubly Occupied:

       1A    -20.547321     2A    -11.324509     3A    -11.230391
       4A    -11.228937     5A    -11.228219     6A    -11.221029
       7A    -11.219316     8A    -11.212423     9A     -1.393083
      10A     -1.094915    11A     -1.044783    12A     -1.000727
      13A     -0.938654    14A     -0.848538    15A     -0.796354
      16A     -0.732433    17A     -0.663077    18A     -0.645150
      19A     -0.629351    20A     -0.610186    21A     -0.598425
      22A     -0.581776    23A     -0.560142    24A     -0.553484
      25A     -0.530195    26A     -0.512106    27A     -0.503342
      28A     -0.486736    29A     -0.472183    30A     -0.462827
      31A     -0.458222    32A     -0.396157

  @DF-RHF Final Energy:  -348.09427112608654

   => Energetics <=

    Nuclear Repulsion Energy =            368.9710200409554659
    One-Electron Energy =               -1202.6808292274838550
    Two-Electron Energy =                 485.6155380604419634
    DFT Exchange-Correlation Energy =       0.0000000000000000
    Empirical Dispersion Energy =           0.0000000000000000
    PCM Polarization Energy =               0.0000000000000000
    EFP Energy =                            0.0000000000000000
    Total Energy =                       -348.0942711260864826

  Mulliken Charges: (a.u.)
   Center  Symbol    Alpha    Beta     Spin     Total
       1     O     4.26242  4.26242  0.00000 -0.52483
       2     C     2.73723  2.73723  0.00000  0.52555
       3     C     3.20072  3.20072  0.00000 -0.40145
       4     C     3.28955  3.28955  0.00000 -0.57911
       5     C     3.16416  3.16416  0.00000 -0.32831
       6     H     0.40105  0.40105  0.00000  0.19790
       7     H     0.41692  0.41692  0.00000  0.16616
       8     C     3.15407  3.15407  0.00000 -0.30814
       9     H     0.40505  0.40505  0.00000  0.18989
      10     H     0.42046  0.42046  0.00000  0.15908
      11     C     3.15544  3.15544  0.00000 -0.31088
      12     H     0.41786  0.41786  0.00000  0.16429
      13     H     0.42138  0.42138  0.00000  0.15723
      14     C     3.24070  3.24070  0.00000 -0.48141
      15     H     0.42033  0.42033  0.00000  0.15935
      16     H     0.41891  0.41891  0.00000  0.16218
      17     H     0.42128  0.42128  0.00000  0.15744
      18     H     0.41928  0.41928  0.00000  0.16144
      19     H     0.41948  0.41948  0.00000  0.16104
      20     H     0.40692  0.40692  0.00000  0.18617
      21     H     0.39708  0.39708  0.00000  0.20585
      22     H     0.40971  0.40971  0.00000  0.18058

   Total alpha = 32.00000, Total beta = 32.00000, Total charge =  0.00000
