  ==> Input File <==

--------------------------------------------------------------------------
set {
	reference rhf
	basis 6-31G*
}

set_num_threads( 1 )
memory 2 gb

molecule MOL {
0 1

H	 -3.892951	 0.981613	 -0.358725
C	 -3.196921	 0.361773	 0.172313
C	 -2.076860	 -0.007332	 -0.404944
H	 -3.439953	 0.057760	 1.173024
O	 -0.950264	 -0.267419	 0.309196
H	 -1.988745	 -0.144260	 -1.468280
C	 0.232045	 -0.478830	 -0.383119
C	 0.947190	 0.820219	 -0.678636
H	 0.073012	 -0.997787	 -1.321781
H	 0.877668	 -1.077331	 0.242544
F	 2.085472	 0.563801	 -1.306625
F	 0.227597	 1.610221	 -1.458323
F	 1.231165	 1.489766	 0.419297

	symmetry c1
}
set optking {
	frozen_dihedral = ("
		11 8 7 9,
		3 5 7 9,
		6 3 5 7
	")
}

ee = energy('scf')
oeprop('DIPOLE', 'QUADRUPOLE', 'MULLIKEN_CHARGES')
f=open( 'psi4out.xyz', 'w' )
f.write( "13  " )
f.write( str(ee) + "\n" )
f.write( MOL.save_string_xyz() )
f.close()
--------------------------------------------------------------------------

    Molecular point group: c1

    Geometry (in Angstrom), charge = 0, multiplicity = 1:

       Center              X                  Y                   Z               Mass
    ------------   -----------------  -----------------  -----------------  -----------------
           H         -3.849821099454     0.406433036484     0.092737439346     1.007825032070
           C         -3.153791099454    -0.213406963516     0.623775439346    12.000000000000
           C         -2.033730099454    -0.582511963516     0.046518439346    12.000000000000
           H         -3.396823099454    -0.517419963516     1.624486439346     1.007825032070
           O         -0.907134099454    -0.842598963516     0.760658439346    15.994914619560
           H         -1.945615099454    -0.719439963516    -1.016817560654     1.007825032070
           C          0.275174900546    -1.054009963516     0.068343439346    12.000000000000
           C          0.990319900546     0.245039036484    -0.227173560654    12.000000000000
           H          0.116141900546    -1.572966963516    -0.870318560654     1.007825032070
           H          0.920797900546    -1.652510963516     0.694006439346     1.007825032070
           F          2.128601900546    -0.011378963516    -0.855162560654    18.998403224000
           F          0.270726900546     1.035041036484    -1.006860560654    18.998403224000
           F          1.274294900546     0.914586036484     0.870759439346    18.998403224000

  Charge       = 0
  Multiplicity = 1
  Basis Set: 6-31G*
  Basis Set:

    Orbital Energies (a.u.)
    -----------------------

    Doubly Occupied:

       1A    -26.345073     2A    -26.343287     3A    -26.340509
       4A    -20.609113     5A    -11.503611     6A    -11.319726
       7A    -11.302699     8A    -11.212799     9A     -1.741753
      10A     -1.639968    11A     -1.638121    12A     -1.439162
      13A     -1.084608    14A     -1.016478    15A     -0.925470
      16A     -0.836679    17A     -0.830972    18A     -0.821696
      19A     -0.791718    20A     -0.721735    21A     -0.711200
      22A     -0.696219    23A     -0.675817    24A     -0.659954
      25A     -0.654610    26A     -0.643057    27A     -0.634260
      28A     -0.585946    29A     -0.569028    30A     -0.525743
      31A     -0.511246    32A     -0.337466

  @DF-RHF Final Energy:  -527.51541343604072

   => Energetics <=

    Nuclear Repulsion Energy =            413.4964079263111216
    One-Electron Energy =               -1550.6840817862175754
    Two-Electron Energy =                 609.6722604238659642
    DFT Exchange-Correlation Energy =       0.0000000000000000
    Empirical Dispersion Energy =           0.0000000000000000
    PCM Polarization Energy =               0.0000000000000000
    EFP Energy =                            0.0000000000000000
    Total Energy =                       -527.5154134360404896

  Mulliken Charges: (a.u.)
   Center  Symbol    Alpha    Beta     Spin     Total
       1     H     0.40511  0.40511  0.00000  0.18979
       2     C     3.24172  3.24172  0.00000 -0.48343
       3     C     2.89462  2.89462  0.00000  0.21077
       4     H     0.40327  0.40327  0.00000  0.19346
       5     O     4.29809  4.29809  0.00000 -0.59619
       6     H     0.40626  0.40626  0.00000  0.18748
       7     C     3.06461  3.06461  0.00000 -0.12922
       8     C     2.45479  2.45479  0.00000  1.09041
       9     H     0.40541  0.40541  0.00000  0.18917
      10     H     0.38971  0.38971  0.00000  0.22059
      11     F     4.68272  4.68272  0.00000 -0.36544
      12     F     4.67940  4.67940  0.00000 -0.35880
      13     F     4.67429  4.67429  0.00000 -0.34859

   Total alpha = 32.00000, Total beta = 32.00000, Total charge = -0.00000
