  ==> Input File <==

--------------------------------------------------------------------------
set {
	reference rhf
	basis 6-31G*
}

set_num_threads( 4 )
memory 2 gb

molecule MOL {
0 1

H	 -3.338529	 0.334146	 -2.008041
C	 -2.656569	 -0.344562	 -1.533755
C	 -2.076860	 -0.007332	 -0.404944
H	 -2.465900	 -1.291723	 -2.002201
O	 -1.180634	 -0.819263	 0.215062
H	 -2.259772	 0.933252	 0.083973
C	 0.051604	 -1.018856	 -0.387932
C	 1.043764	 0.054862	 -0.001873
H	 -0.017620	 -1.041351	 -1.469781
H	 0.437898	 -1.966374	 -0.042284
F	 2.212596	 -0.199467	 -0.571921
F	 0.652529	 1.252447	 -0.405055
F	 1.230877	 0.110694	 1.300533

	symmetry c1
}
set optking {
	frozen_dihedral = ("
		6 3 5 7
	")
}

ee = optimize('scf')
oeprop('DIPOLE', 'QUADRUPOLE', 'MULLIKEN_CHARGES')
f=open( 'psi4out.xyz', 'w' )
f.write( "13  " )
f.write( str(ee) + "\n" )
f.write( MOL.save_string_xyz() )
f.close()
--------------------------------------------------------------------------

    Molecular point group: c1
  Charge       = 0
  Multiplicity = 1
  Basis Set: 6-31G*
  Basis Set:
  @DF-RHF Final Energy:  -527.53181752483579
    Total Energy =                       -527.5318175248361285
    Molecular point group: c1
  Basis Set: 6-31G*
  Basis Set:
  Basis Set: 6-31G*
  Basis Set:
  @DF-RHF Final Energy:  -527.53226299429957
    Total Energy =                       -527.5322629943001402
  Basis Set: 6-31G*
  Basis Set:
  Basis Set: 6-31G*
  Basis Set:
  @DF-RHF Final Energy:  -527.53257761659961
    Total Energy =                       -527.5325776165993830
  Basis Set: 6-31G*
  Basis Set:
  Basis Set: 6-31G*
  Basis Set:
  @DF-RHF Final Energy:  -527.53259095430610
    Total Energy =                       -527.5325909543059879
  Basis Set: 6-31G*
  Basis Set:
  Basis Set: 6-31G*
  Basis Set:
  @DF-RHF Final Energy:  -527.53259282976887
    Total Energy =                       -527.5325928297688733
  Basis Set: 6-31G*
  Basis Set:
  Charge       = 0
  Multiplicity = 1
  Basis Set: 6-31G*
  Basis Set:

    Orbital Energies (a.u.)
    -----------------------

    Doubly Occupied:

       1A    -26.341853     2A    -26.340777     3A    -26.337730
       4A    -20.598910     5A    -11.499593     6A    -11.313902
       7A    -11.298126     8A    -11.229382     9A     -1.738649
      10A     -1.637071    11A     -1.635001    12A     -1.427216
      13A     -1.078677    14A     -1.020488    15A     -0.926328
      16A     -0.834292    17A     -0.828222    18A     -0.825859
      19A     -0.764630    20A     -0.718657    21A     -0.711955
      22A     -0.700366    23A     -0.671862    24A     -0.657071
      25A     -0.652573    26A     -0.645129    27A     -0.640401
      28A     -0.591881    29A     -0.562039    30A     -0.530094
      31A     -0.470839    32A     -0.374112

  @DF-RHF Final Energy:  -527.53259342133765

   => Energetics <=

    Nuclear Repulsion Energy =            414.3246932999022647
    One-Electron Energy =               -1552.5072040485233629
    Two-Electron Energy =                 610.6499173272834469
    DFT Exchange-Correlation Energy =       0.0000000000000000
    Empirical Dispersion Energy =           0.0000000000000000
    PCM Polarization Energy =               0.0000000000000000
    EFP Energy =                            0.0000000000000000
    Total Energy =                       -527.5325934213376513
    Molecular point group: c1
  Basis Set: 6-31G*
  Basis Set:

  -Total Gradient:
     Atom            X                  Y                   Z
    ------   -----------------  -----------------  -----------------
       1        0.000002141499     0.000016206406    -0.000029218526
       2        0.000023876550    -0.000073816486     0.000025835655
       3        0.000136929773     0.000141504943    -0.000147154262
       4       -0.000006235645     0.000028067278     0.000000406111
       5        0.000051472241     0.000101830927     0.000173555004
       6       -0.000126874853    -0.000082023570     0.000085337362
       7        0.000004698990    -0.000104268089    -0.000119073870
       8        0.000008920259     0.000031583488    -0.000029045976
       9       -0.000012103405    -0.000010120264     0.000001364460
      10       -0.000023391359    -0.000003767683     0.000000087562
      11       -0.000022928743     0.000005232367     0.000022320444
      12       -0.000052922030    -0.000025967475    -0.000026256095
      13        0.000016416739    -0.000024461841     0.000041842132

  **** Optimization is complete! (in 6 steps) ****
    Final optimized geometry and variables:
    Molecular point group: c1

    Geometry (in Angstrom), charge = 0, multiplicity = 1:

    H           -3.510569726913     0.366938189815    -1.821533425181
    C           -2.796945224994    -0.291318661096    -1.363852806486
    C           -2.143878901819     0.089707437073    -0.289595381200
    H           -2.645169069229    -1.256749897406    -1.811988332920
    O           -1.239799104970    -0.696460781546     0.371040246752
    H           -2.303271707934     1.041305244807     0.182721942999
    C           -0.000600972348    -0.926000926432    -0.219524495311
    C            0.998977434144     0.125045660928     0.204602655927
    H           -0.057086381867    -0.927058149503    -1.299812494541
    H            0.360484757904    -1.885216662006     0.122034738136
    F            2.167860917458    -0.110894519635    -0.372633532866
    F            0.611895243838     1.339678951205    -0.150026995300
    F            1.186855241546     0.131973642639     1.509610819514

  Mulliken Charges: (a.u.)
   Center  Symbol    Alpha    Beta     Spin     Total
       1     H     0.40369  0.40369  0.00000  0.19262
       2     C     3.22040  3.22040  0.00000 -0.44079
       3     C     2.91000  2.91000  0.00000  0.18000
       4     H     0.40567  0.40567  0.00000  0.18866
       5     O     4.31127  4.31127  0.00000 -0.62254
       6     H     0.40000  0.40000  0.00000  0.19999
       7     C     3.05357  3.05357  0.00000 -0.10713
       8     C     2.45720  2.45720  0.00000  1.08559
       9     H     0.40373  0.40373  0.00000  0.19253
      10     H     0.39458  0.39458  0.00000  0.21085
      11     F     4.68305  4.68305  0.00000 -0.36611
      12     F     4.68042  4.68042  0.00000 -0.36084
      13     F     4.67642  4.67642  0.00000 -0.35285

   Total alpha = 32.00000, Total beta = 32.00000, Total charge =  0.00000
