  ==> Input File <==

--------------------------------------------------------------------------
set {
	reference rhf
	basis 6-31G*
}

set_num_threads( 1 )
memory 2 gb

molecule MOL {
0 1

O	 0.749854	 1.307668	 -0.000040
C	 0.576249	 0.131685	 -0.000108
C	 -0.766779	 -0.556801	 -0.000461
O	 1.568443	 -0.749345	 -0.000005
C	 -1.945214	 0.412366	 0.000161
H	 -0.796911	 -1.211249	 -0.867467
H	 -0.796854	 -1.212390	 0.865687
C	 -3.042613	 -0.019561	 0.971614
H	 -2.348158	 0.486665	 -1.004189
H	 -1.592168	 1.404984	 0.258315
H	 -3.435292	 -0.999517	 0.714826
H	 -3.870624	 0.681564	 0.956652
H	 -2.671244	 -0.069924	 1.991429
C	 2.886820	 -0.232538	 0.000322
H	 3.059106	 0.369571	 -0.880203
H	 3.540187	 -1.091012	 0.000050
H	 3.059019	 0.368956	 0.881266

	symmetry c1
}
set optking {
	frozen_dihedral = ("
		1 2 3 6,
		14 4 2 1
	")
}

ee = energy('scf')
oeprop('DIPOLE', 'QUADRUPOLE', 'MULLIKEN_CHARGES')
f=open( 'psi4out.xyz', 'w' )
f.write( "17  " )
f.write( str(ee) + "\n" )
f.write( MOL.save_string_xyz() )
f.close()
--------------------------------------------------------------------------

    Molecular point group: c1

    Geometry (in Angstrom), charge = 0, multiplicity = 1:

       Center              X                  Y                   Z               Mass
    ------------   -----------------  -----------------  -----------------  -----------------
           O          0.713762597494     1.263875341813    -0.143050458796    15.994914619560
           C          0.540157597494     0.087892341813    -0.143118458796    12.000000000000
           C         -0.802870402506    -0.600593658187    -0.143471458796    12.000000000000
           O          1.532351597494    -0.793137658187    -0.143015458796    15.994914619560
           C         -1.981305402506     0.368573341813    -0.142849458796    12.000000000000
           H         -0.833002402506    -1.255041658187    -1.010477458796     1.007825032070
           H         -0.832945402506    -1.256182658187     0.722676541204     1.007825032070
           C         -3.078704402506    -0.063353658187     0.828603541204    12.000000000000
           H         -2.384249402506     0.442872341813    -1.147199458796     1.007825032070
           H         -1.628259402506     1.361191341813     0.115304541204     1.007825032070
           H         -3.471383402506    -1.043309658187     0.571815541204     1.007825032070
           H         -3.906715402506     0.637771341813     0.813641541204     1.007825032070
           H         -2.707335402506    -0.113716658187     1.848418541204     1.007825032070
           C          2.850728597494    -0.276330658187    -0.142688458796    12.000000000000
           H          3.023014597494     0.325778341813    -1.023213458796     1.007825032070
           H          3.504095597494    -1.134804658187    -0.142960458796     1.007825032070
           H          3.022927597494     0.325163341813     0.738255541204     1.007825032070

  Charge       = 0
  Multiplicity = 1
  Basis Set: 6-31G*
  Basis Set:

    Orbital Energies (a.u.)
    -----------------------

    Doubly Occupied:

       1A    -20.604596     2A    -20.546590     3A    -11.373296
       4A    -11.281416     5A    -11.234716     6A    -11.218143
       7A    -11.213134     8A     -1.470343     9A     -1.364121
      10A     -1.079728    11A     -1.000922    12A     -0.939111
      13A     -0.827501    14A     -0.766921    15A     -0.703213
      16A     -0.682585    17A     -0.673284    18A     -0.631572
      19A     -0.600204    20A     -0.571684    21A     -0.569013
      22A     -0.530567    23A     -0.524121    24A     -0.489032
      25A     -0.487372    26A     -0.474047    27A     -0.457688
      28A     -0.440312

  @DF-RHF Final Energy:  -344.90254900120260

   => Energetics <=

    Nuclear Repulsion Energy =            313.5119303319531809
    One-Electron Energy =               -1091.3186073629419752
    Two-Electron Energy =                 432.9041280297857952
    DFT Exchange-Correlation Energy =       0.0000000000000000
    Empirical Dispersion Energy =           0.0000000000000000
    PCM Polarization Energy =               0.0000000000000000
    EFP Energy =                            0.0000000000000000
    Total Energy =                       -344.9025490012029991

  Mulliken Charges: (a.u.)
   Center  Symbol    Alpha    Beta     Spin     Total
       1     O     4.28452  4.28452  0.00000 -0.56904
       2     C     2.61143  2.61143  0.00000  0.77714
       3     C     3.20887  3.20887  0.00000 -0.41774
       4     O     4.30546  4.30546  0.00000 -0.61091
       5     C     3.16033  3.16033  0.00000 -0.32066
       6     H     0.39798  0.39798  0.00000  0.20405
       7     H     0.39861  0.39861  0.00000  0.20278
       8     C     3.24360  3.24360  0.00000 -0.48720
       9     H     0.41734  0.41734  0.00000  0.16533
      10     H     0.39413  0.39413  0.00000  0.21174
      11     H     0.42220  0.42220  0.00000  0.15561
      12     H     0.41675  0.41675  0.00000  0.16650
      13     H     0.42020  0.42020  0.00000  0.15959
      14     C     3.09232  3.09232  0.00000 -0.18464
      15     H     0.40894  0.40894  0.00000  0.18213
      16     H     0.40833  0.40833  0.00000  0.18333
      17     H     0.40900  0.40900  0.00000  0.18200

   Total alpha = 28.00000, Total beta = 28.00000, Total charge = -0.00000
