  ==> Input File <==

--------------------------------------------------------------------------
set {
	reference rhf
	basis cc-pvtz
}

set_num_threads( 4 )
memory 2 gb

molecule MOL {
0 1

H	 -2.171709	 0.882708	 0.500286
C	 -2.016894	 0.001719	 -0.114152
O	 -0.775228	 0.000056	 -0.739966
H	 -2.760846	 0.003757	 -0.898169
H	 -2.174774	 -0.879864	 0.498643
C	 0.394526	 -0.248032	 0.014625
C	 1.518697	 -0.166065	 -1.012218
C	 0.593920	 0.821134	 1.090620
C	 0.362208	 -1.643782	 0.640271
H	 1.529854	 0.812079	 -1.476128
H	 1.369425	 -0.905420	 -1.788862
H	 2.482089	 -0.340559	 -0.548110
H	 0.550372	 1.810124	 0.650536
H	 1.562034	 0.700041	 1.561768
H	 -0.155722	 0.760015	 1.869634
H	 0.155403	 -2.390574	 -0.116844
H	 1.320286	 -1.872320	 1.091640
H	 -0.389250	 -1.725452	 1.415648

	symmetry c1
}
set optking {
	frozen_dihedral = ("
		6 3 2 5
	")
}

ee = optimize('scf')
oeprop('DIPOLE', 'QUADRUPOLE', 'MULLIKEN_CHARGES')
f=open( 'psi4out.xyz', 'w' )
f.write( "18  " )
f.write( str(ee) + "\n" )
f.write( MOL.save_string_xyz() )
f.close()
--------------------------------------------------------------------------

    Molecular point group: c1
  Charge       = 0
  Multiplicity = 1
  Basis Set: CC-PVTZ
  Basis Set:
  @DF-RHF Final Energy:  -271.27650124141940
    Total Energy =                       -271.2765012414195098
    Molecular point group: c1
  Basis Set: CC-PVTZ
  Basis Set:
  Basis Set: CC-PVTZ
  Basis Set:
  @DF-RHF Final Energy:  -271.27625187773759
    Total Energy =                       -271.2762518777375931
  Basis Set: CC-PVTZ
  Basis Set:
  Basis Set: CC-PVTZ
  Basis Set:
  @DF-RHF Final Energy:  -271.27664337248149
    Total Energy =                       -271.2766433724812600
  Basis Set: CC-PVTZ
  Basis Set:
  Basis Set: CC-PVTZ
  Basis Set:
  @DF-RHF Final Energy:  -271.27663807123605
    Total Energy =                       -271.2766380712362206
  Basis Set: CC-PVTZ
  Basis Set:
  Basis Set: CC-PVTZ
  Basis Set:
  @DF-RHF Final Energy:  -271.27665242744615
    Total Energy =                       -271.2766524274464359
  Basis Set: CC-PVTZ
  Basis Set:
  Basis Set: CC-PVTZ
  Basis Set:
  @DF-RHF Final Energy:  -271.27665395562684
    Total Energy =                       -271.2766539556268981
  Basis Set: CC-PVTZ
  Basis Set:
  Charge       = 0
  Multiplicity = 1
  Basis Set: CC-PVTZ
  Basis Set:

    Orbital Energies (a.u.)
    -----------------------

    Doubly Occupied:

       1A    -20.540403     2A    -11.280191     3A    -11.258240
       4A    -11.207862     5A    -11.206352     6A    -11.201849
       7A     -1.373472     8A     -1.074579     9A     -0.947031
      10A     -0.940594    11A     -0.913198    12A     -0.753574
      13A     -0.656730    14A     -0.646641    15A     -0.639681
      16A     -0.593092    17A     -0.575277    18A     -0.553463
      19A     -0.534691    20A     -0.525117    21A     -0.515184
      22A     -0.489328    23A     -0.487812    24A     -0.440882
      25A     -0.407009

  @DF-RHF Final Energy:  -271.27665421524307

   => Energetics <=

    Nuclear Repulsion Energy =            272.6915910195043580
    One-Electron Energy =                -908.4119845788316070
    Two-Electron Energy =                 364.4437393440843493
    DFT Exchange-Correlation Energy =       0.0000000000000000
    Empirical Dispersion Energy =           0.0000000000000000
    PCM Polarization Energy =               0.0000000000000000
    EFP Energy =                            0.0000000000000000
    Total Energy =                       -271.2766542152428997
    Molecular point group: c1
  Basis Set: CC-PVTZ
  Basis Set:

  -Total Gradient:
     Atom            X                  Y                   Z
    ------   -----------------  -----------------  -----------------
       1        0.000024961181    -0.000006662051    -0.000009900875
       2       -0.000434444477    -0.000741408165    -0.000673092835
       3        0.000159948372     0.000899070793     0.000257621237
       4       -0.000034282990     0.000008986701     0.000010490573
       5        0.000271114874     0.000355751182     0.000470814753
       6       -0.000051232904    -0.000528269140    -0.000087526237
       7        0.000039647100     0.000014544249     0.000011200198
       8        0.000012773216    -0.000007633521     0.000024897842
       9       -0.000009917272     0.000006340460     0.000011021093
      10        0.000010944160    -0.000001062450    -0.000026961301
      11       -0.000011153477    -0.000007148804     0.000024273725
      12        0.000011046864     0.000020728226    -0.000007961125
      13        0.000008808467    -0.000017736614    -0.000010002608
      14        0.000007891945     0.000001618160     0.000014461428
      15        0.000000591198     0.000006471880     0.000003443826
      16        0.000009560275    -0.000007965544    -0.000008575450
      17       -0.000015271152     0.000015494900    -0.000006653734
      18       -0.000000985382    -0.000011120262     0.000002449487

  **** Optimization is complete! (in 7 steps) ****
    Final optimized geometry and variables:
    Molecular point group: c1

    Geometry (in Angstrom), charge = 0, multiplicity = 1:

    H           -2.106166957658     1.199009158397     0.447546386806
    C           -2.000848595914     0.258822760973    -0.084957201142
    O           -0.771531981343     0.156938912768    -0.727557566935
    H           -2.761753569518     0.217255739535    -0.851415504054
    H           -2.178116238193    -0.551399627597     0.614296519898
    C            0.403303826192    -0.053924635651     0.030708877272
    C            1.528911446508     0.055913622669    -0.991943014572
    C            0.570900476127     1.018185623253     1.108586687610
    C            0.403268710637    -1.451709591436     0.653295507784
    H            1.523985926718     1.036882305675    -1.449986876652
    H            1.395321006079    -0.681287598948    -1.773427889979
    H            2.493944053835    -0.104419429638    -0.526037023144
    H            0.514038704293     2.007373792107     0.670157845731
    H            1.535890202987     0.914773033971     1.589966426958
    H           -0.187186769452     0.941421970204     1.878349260443
    H            0.232990180652    -2.200650636222    -0.110401229235
    H            1.359226569810    -1.652876094181     1.122199269593
    H           -0.359461072917    -1.560362229278     1.414010952193

  Mulliken Charges: (a.u.)
   Center  Symbol    Alpha    Beta     Spin     Total
       1     H     0.46741  0.46741  0.00000  0.06517
       2     C     3.04469  3.04469  0.00000 -0.08937
       3     O     4.19040  4.19040  0.00000 -0.38080
       4     H     0.44131  0.44131  0.00000  0.11739
       5     H     0.47021  0.47021  0.00000  0.05957
       6     C     2.87450  2.87450  0.00000  0.25100
       7     C     3.14155  3.14155  0.00000 -0.28311
       8     C     3.16688  3.16688  0.00000 -0.33376
       9     C     3.16041  3.16041  0.00000 -0.32083
      10     H     0.44931  0.44931  0.00000  0.10138
      11     H     0.44841  0.44841  0.00000  0.10319
      12     H     0.45932  0.45932  0.00000  0.08136
      13     H     0.44501  0.44501  0.00000  0.10998
      14     H     0.44709  0.44709  0.00000  0.10582
      15     H     0.44869  0.44869  0.00000  0.10262
      16     H     0.44598  0.44598  0.00000  0.10804
      17     H     0.44965  0.44965  0.00000  0.10070
      18     H     0.44917  0.44917  0.00000  0.10166

   Total alpha = 25.00000, Total beta = 25.00000, Total charge =  0.00000
