  ==> Input File <==

--------------------------------------------------------------------------
set {
	reference rhf
	basis cc-pvtz
}

set_num_threads( 4 )
memory 2 gb

molecule MOL {
0 1

O	 -0.694481	 1.313155	 -0.204815
C	 -0.862519	 0.151932	 -0.046791
C	 -2.171428	 -0.477048	 0.339095
O	 0.085519	 -0.757083	 -0.192238
H	 -2.467997	 -1.191667	 -0.417688
H	 -2.923379	 0.287970	 0.444097
H	 -2.053854	 -1.015120	 1.270901
C	 -0.240927	 -1.992822	 -0.817428
C	 -0.153536	 -1.897210	 -2.326441
H	 -1.226174	 -2.300511	 -0.503690
H	 0.485224	 -2.693733	 -0.433788
H	 -0.342698	 -2.871152	 -2.763600
H	 -0.887197	 -1.203108	 -2.712892
H	 0.833534	 -1.572454	 -2.632741

	symmetry c1
}
set optking {
	frozen_dihedral = ("
		8 4 2 1
	")
}

ee = optimize('scf')
oeprop('DIPOLE', 'QUADRUPOLE', 'MULLIKEN_CHARGES')
f=open( 'psi4out.xyz', 'w' )
f.write( "14  " )
f.write( str(ee) + "\n" )
f.write( MOL.save_string_xyz() )
f.close()
--------------------------------------------------------------------------

    Molecular point group: c1
  Charge       = 0
  Multiplicity = 1
  Basis Set: CC-PVTZ
  Basis Set:
  @DF-RHF Final Energy:  -305.96447972972874
    Total Energy =                       -305.9644797297286800
    Molecular point group: c1
  Basis Set: CC-PVTZ
  Basis Set:
  Basis Set: CC-PVTZ
  Basis Set:
  @DF-RHF Final Energy:  -305.97061609394120
    Total Energy =                       -305.9706160939410893
  Basis Set: CC-PVTZ
  Basis Set:
  Basis Set: CC-PVTZ
  Basis Set:
  @DF-RHF Final Energy:  -305.97375578682363
    Total Energy =                       -305.9737557868236877
  Basis Set: CC-PVTZ
  Basis Set:
  Basis Set: CC-PVTZ
  Basis Set:
  @DF-RHF Final Energy:  -305.97399891975124
    Total Energy =                       -305.9739989197514660
  Basis Set: CC-PVTZ
  Basis Set:
  @DF-RHF Final Energy:  -305.97444136143554
    Total Energy =                       -305.9744413614355381
  @DF-RHF Final Energy:  -305.97458463996111
    Total Energy =                       -305.9745846399611082
  @DF-RHF Final Energy:  -305.97459688987487
    Total Energy =                       -305.9745968898747606
  Basis Set: CC-PVTZ
  Basis Set:
  @DF-RHF Final Energy:  -305.97460033930599
    Total Energy =                       -305.9746003393058800
  Basis Set: CC-PVTZ
  Basis Set:
  Basis Set: CC-PVTZ
  Basis Set:
  @DF-RHF Final Energy:  -305.97459930348191
    Total Energy =                       -305.9745993034817957
  Basis Set: CC-PVTZ
  Basis Set:
  Basis Set: CC-PVTZ
  Basis Set:
  @DF-RHF Final Energy:  -305.97457804252662
    Total Energy =                       -305.9745780425264456
  Basis Set: CC-PVTZ
  Basis Set:
  Charge       = 0
  Multiplicity = 1
  Basis Set: CC-PVTZ
  Basis Set:

    Orbital Energies (a.u.)
    -----------------------

    Doubly Occupied:

       1A    -20.586643     2A    -20.533697     3A    -11.369253
       4A    -11.297172     5A    -11.239657     6A    -11.228675
       7A     -1.463262     8A     -1.368833     9A     -1.048311
      10A     -1.016681    11A     -0.897410    12A     -0.769945
      13A     -0.697072    14A     -0.688627    15A     -0.671303
      16A     -0.617245    17A     -0.596958    18A     -0.585669
      19A     -0.554291    20A     -0.545718    21A     -0.525903
      22A     -0.494976    23A     -0.452682    24A     -0.437776

  @DF-RHF Final Energy:  -305.97460152394115

   => Energetics <=

    Nuclear Repulsion Energy =            249.1119808010181202
    One-Electron Energy =                -910.7976484938581052
    Two-Electron Energy =                 355.7110661688988102
    DFT Exchange-Correlation Energy =       0.0000000000000000
    Empirical Dispersion Energy =           0.0000000000000000
    PCM Polarization Energy =               0.0000000000000000
    EFP Energy =                            0.0000000000000000
    Total Energy =                       -305.9746015239411463
    Molecular point group: c1
  Basis Set: CC-PVTZ
  Basis Set:

  -Total Gradient:
     Atom            X                  Y                   Z
    ------   -----------------  -----------------  -----------------
       1       -0.000635961502    -0.000298317014    -0.003255936058
       2        0.001328963128     0.001066962220     0.003290099060
       3        0.000012224001     0.000004702343    -0.000013893307
       4       -0.001480181258    -0.001886236691     0.002467122951
       5       -0.000008135039     0.000011349927     0.000008061451
       6       -0.000003998645    -0.000001135968     0.000002281888
       7       -0.000003234161     0.000000228008     0.000006779922
       8        0.000786748419     0.001096123155    -0.002535491956
       9        0.000000074435    -0.000002696878     0.000030587434
      10        0.000008815131    -0.000005170859     0.000003254700
      11        0.000000724877     0.000009313909     0.000006751728
      12       -0.000002694252     0.000004067523    -0.000000191788
      13       -0.000000391170     0.000000544326    -0.000010745099
      14       -0.000002953965     0.000000266006     0.000001319075

  **** Optimization is complete! (in 11 steps) ****
    Final optimized geometry and variables:
    Molecular point group: c1

    Geometry (in Angstrom), charge = 0, multiplicity = 1:

    O            0.036603256826     1.888200913117     0.341801686849
    C           -0.212413715910     0.746868123146     0.491153245531
    C           -1.593432496018     0.252650272131     0.848242674077
    O            0.754555198537    -0.168075570701     0.383041983832
    H           -2.054011757751    -0.239092626354     0.000316993062
    H           -2.195237987517     1.102407752805     1.125049511553
    H           -1.550723138268    -0.455237028741     1.665641865005
    C            0.543671030213    -1.412799984821    -0.253058472908
    C            0.487717132000    -1.272403383809    -1.761428015023
    H           -0.348336352170    -1.893164064131     0.128460727913
    H            1.388248175838    -2.018238978416     0.038186350881
    H            0.394953396151    -2.251104681659    -2.218255668547
    H           -0.359126154176    -0.672981699635    -2.075375131557
    H            1.389314322383    -0.801063929823    -2.129631965104

  Mulliken Charges: (a.u.)
   Center  Symbol    Alpha    Beta     Spin     Total
       1     O     4.17621  4.17621  0.00000 -0.35243
       2     C     2.81103  2.81103  0.00000  0.37794
       3     C     3.16236  3.16236  0.00000 -0.32472
       4     O     4.14700  4.14700  0.00000 -0.29401
       5     H     0.44918  0.44918  0.00000  0.10164
       6     H     0.42816  0.42816  0.00000  0.14369
       7     H     0.44367  0.44367  0.00000  0.11266
       8     C     2.99948  2.99948  0.00000  0.00104
       9     C     3.14001  3.14001  0.00000 -0.28003
      10     H     0.45972  0.45972  0.00000  0.08055
      11     H     0.43743  0.43743  0.00000  0.12515
      12     H     0.44993  0.44993  0.00000  0.10014
      13     H     0.45380  0.45380  0.00000  0.09240
      14     H     0.44202  0.44202  0.00000  0.11596

   Total alpha = 24.00000, Total beta = 24.00000, Total charge = -0.00000
