  ==> Input File <==

--------------------------------------------------------------------------
set {
	reference rhf
	basis 6-31G*
}

set_num_threads( 1 )
memory 2 gb

molecule MOL {
0 1

O	 1.938435	 0.107149	 0.863732
C	 1.122059	 0.121804	 -0.000188
C	 -0.170150	 -0.657997	 -0.000612
O	 1.246783	 0.845885	 -1.105234
C	 -1.412532	 0.227344	 -0.000452
H	 -0.153702	 -1.313099	 -0.867402
H	 -0.153924	 -1.313811	 0.865644
C	 -2.706999	 -0.587347	 -0.000541
H	 -1.388000	 0.879466	 -0.868000
H	 -1.387972	 0.879138	 0.867341
C	 -3.956778	 0.291888	 0.000910
H	 -2.726114	 -1.239230	 -0.871609
H	 -2.725217	 -1.240844	 0.869333
H	 -3.985213	 0.933254	 -0.875158
H	 -4.860123	 -0.309979	 0.000519
H	 -3.984618	 0.931166	 0.878514
C	 2.420067	 1.628541	 -1.231703
H	 2.485517	 2.347831	 -0.428070
H	 2.336257	 2.134753	 -2.180742
H	 3.299135	 1.000389	 -1.218632

	symmetry c1
}
set optking {
	frozen_dihedral = ("
		9 5 8 12,
		9 5 3 6,
		1 2 4 17
	")
}

ee = energy('scf')
oeprop('DIPOLE', 'QUADRUPOLE', 'MULLIKEN_CHARGES')
f=open( 'psi4out.xyz', 'w' )
f.write( "20  " )
f.write( str(ee) + "\n" )
f.write( MOL.save_string_xyz() )
f.close()
--------------------------------------------------------------------------

    Molecular point group: c1

    Geometry (in Angstrom), charge = 0, multiplicity = 1:

       Center              X                  Y                   Z               Mass
    ------------   -----------------  -----------------  -----------------  -----------------
           O          2.100837729716    -0.162073864997     1.057661452614    15.994914619560
           C          1.284461729716    -0.147418864997     0.193741452614    12.000000000000
           C         -0.007747270284    -0.927219864997     0.193317452614    12.000000000000
           O          1.409185729716     0.576662135003    -0.911304547386    15.994914619560
           C         -1.250129270284    -0.041878864997     0.193477452614    12.000000000000
           H          0.008700729716    -1.582321864997    -0.673472547386     1.007825032070
           H          0.008478729716    -1.583033864997     1.059573452614     1.007825032070
           C         -2.544596270284    -0.856569864997     0.193388452614    12.000000000000
           H         -1.225597270284     0.610243135003    -0.674070547386     1.007825032070
           H         -1.225569270284     0.609915135003     1.061270452614     1.007825032070
           C         -3.794375270284     0.022665135003     0.194839452614    12.000000000000
           H         -2.563711270284    -1.508452864997    -0.677679547386     1.007825032070
           H         -2.562814270284    -1.510066864997     1.063262452614     1.007825032070
           H         -3.822810270284     0.664031135003    -0.681228547386     1.007825032070
           H         -4.697720270284    -0.579201864997     0.194448452614     1.007825032070
           H         -3.822215270284     0.661943135003     1.072443452614     1.007825032070
           C          2.582469729716     1.359318135003    -1.037773547386    12.000000000000
           H          2.647919729716     2.078608135003    -0.234140547386     1.007825032070
           H          2.498659729716     1.865530135003    -1.986812547386     1.007825032070
           H          3.461537729716     0.731166135003    -1.024702547386     1.007825032070

  Charge       = 0
  Multiplicity = 1
  Basis Set: 6-31G*
  Basis Set:

    Orbital Energies (a.u.)
    -----------------------

    Doubly Occupied:

       1A    -20.604218     2A    -20.544262     3A    -11.371246
       4A    -11.280935     5A    -11.234096     6A    -11.228103
       7A    -11.224291     8A    -11.214302     9A     -1.469115
      10A     -1.361772    11A     -1.093557    12A     -1.025417
      13A     -0.966960    14A     -0.891072    15A     -0.808144
      16A     -0.774151    17A     -0.693669    18A     -0.680226
      19A     -0.673449    20A     -0.646583    21A     -0.597953
      22A     -0.591417    23A     -0.575647    24A     -0.551777
      25A     -0.533321    26A     -0.521173    27A     -0.507906
      28A     -0.486857    29A     -0.482673    30A     -0.474231
      31A     -0.454513    32A     -0.428984

  @DF-RHF Final Energy:  -383.94002075066817

   => Energetics <=

    Nuclear Repulsion Energy =            383.6211229621056873
    One-Electron Energy =               -1283.1383072070564140
    Two-Electron Energy =                 515.5771634942828996
    DFT Exchange-Correlation Energy =       0.0000000000000000
    Empirical Dispersion Energy =           0.0000000000000000
    PCM Polarization Energy =               0.0000000000000000
    EFP Energy =                            0.0000000000000000
    Total Energy =                       -383.9400207506678271

  Mulliken Charges: (a.u.)
   Center  Symbol    Alpha    Beta     Spin     Total
       1     O     4.28503  4.28503  0.00000 -0.57005
       2     C     2.61578  2.61578  0.00000  0.76844
       3     C     3.19704  3.19704  0.00000 -0.39407
       4     O     4.30194  4.30194  0.00000 -0.60388
       5     C     3.16248  3.16248  0.00000 -0.32496
       6     H     0.40457  0.40457  0.00000  0.19087
       7     H     0.39978  0.39978  0.00000  0.20044
       8     C     3.15355  3.15355  0.00000 -0.30710
       9     H     0.40805  0.40805  0.00000  0.18391
      10     H     0.41429  0.41429  0.00000  0.17141
      11     C     3.24017  3.24017  0.00000 -0.48035
      12     H     0.42067  0.42067  0.00000  0.15866
      13     H     0.41999  0.41999  0.00000  0.16002
      14     H     0.42028  0.42028  0.00000  0.15943
      15     H     0.41745  0.41745  0.00000  0.16511
      16     H     0.42001  0.42001  0.00000  0.15999
      17     C     3.09238  3.09238  0.00000 -0.18475
      18     H     0.40894  0.40894  0.00000  0.18212
      19     H     0.40885  0.40885  0.00000  0.18229
      20     H     0.40876  0.40876  0.00000  0.18249

   Total alpha = 32.00000, Total beta = 32.00000, Total charge =  0.00000
