  ==> Input File <==

--------------------------------------------------------------------------
set {
	reference rhf
	basis cc-pvtz
}

set_num_threads( 4 )
memory 2 gb

molecule MOL {
0 1

H	 -2.073370	 -1.185212	 -2.455486
N	 -1.154235	 -1.254942	 -2.074174
C	 -1.196052	 -1.341100	 -0.626082
H	 -0.649009	 -0.440867	 -2.353504
C	 0.202307	 -1.436018	 -0.060192
H	 -1.700274	 -0.497600	 -0.156175
H	 -1.736103	 -2.239221	 -0.347203
O	 0.881195	 -0.248324	 -0.336237
H	 0.155345	 -1.598623	 1.015692
H	 0.722153	 -2.278852	 -0.509991
C	 2.208068	 -0.234417	 0.074171
H	 2.725499	 -1.027054	 -0.446768
H	 2.688377	 0.712084	 -0.164856
H	 2.295137	 -0.403407	 1.144883

	symmetry c1
}
set optking {
	frozen_dihedral = ("
		5 8 11 13
	")
}

ee = optimize('scf')
oeprop('DIPOLE', 'QUADRUPOLE', 'MULLIKEN_CHARGES')
f=open( 'psi4out.xyz', 'w' )
f.write( "14  " )
f.write( str(ee) + "\n" )
f.write( MOL.save_string_xyz() )
f.close()
--------------------------------------------------------------------------

    Molecular point group: c1
  Charge       = 0
  Multiplicity = 1
  Basis Set: CC-PVTZ
  Basis Set:
  @DF-RHF Final Energy:  -248.22522584904794
    Total Energy =                       -248.2252258490478880
    Molecular point group: c1
  Basis Set: CC-PVTZ
  Basis Set:
  Basis Set: CC-PVTZ
  Basis Set:
  @DF-RHF Final Energy:  -248.22598944532029
    Total Energy =                       -248.2259894453202378
  Basis Set: CC-PVTZ
  Basis Set:
  Basis Set: CC-PVTZ
  Basis Set:
  @DF-RHF Final Energy:  -248.22619554245526
    Total Energy =                       -248.2261955424555140
  Basis Set: CC-PVTZ
  Basis Set:
  Charge       = 0
  Multiplicity = 1
  Basis Set: CC-PVTZ
  Basis Set:

    Orbital Energies (a.u.)
    -----------------------

    Doubly Occupied:

       1A    -20.550796     2A    -15.523568     3A    -11.263941
       4A    -11.263639     5A    -11.239911     6A     -1.384750
       7A     -1.176031     8A     -1.000638     9A     -0.907658
      10A     -0.815812    11A     -0.685541    12A     -0.676198
      13A     -0.647416    14A     -0.612259    15A     -0.607630
      16A     -0.542210    17A     -0.530348    18A     -0.497986
      19A     -0.474606    20A     -0.420274    21A     -0.383921

  @DF-RHF Final Energy:  -248.22619635470753

   => Energetics <=

    Nuclear Repulsion Energy =            194.7181166974592941
    One-Electron Energy =                -723.4783646755536211
    Two-Electron Energy =                 280.5340516233869721
    DFT Exchange-Correlation Energy =       0.0000000000000000
    Empirical Dispersion Energy =           0.0000000000000000
    PCM Polarization Energy =               0.0000000000000000
    EFP Energy =                            0.0000000000000000
    Total Energy =                       -248.2261963547073265
    Molecular point group: c1
  Basis Set: CC-PVTZ
  Basis Set:

  -Total Gradient:
     Atom            X                  Y                   Z
    ------   -----------------  -----------------  -----------------
       1        0.000000155217     0.000005748961    -0.000015772738
       2       -0.000013869891    -0.000002991510    -0.000028850224
       3        0.000071087915     0.000091629798    -0.000016218207
       4       -0.000000793251     0.000006074563    -0.000008501120
       5        0.000067120761    -0.000083776631     0.000100764337
       6       -0.000016733776     0.000007754011     0.000007991316
       7        0.000061749415     0.000006364652     0.000022258029
       8       -0.000046916096     0.000027473521    -0.000039578551
       9       -0.000003500991    -0.000009506034     0.000013834621
      10        0.000008434125     0.000023384632    -0.000018034599
      11        0.000007824280    -0.000062548289     0.000051033247
      12       -0.000037978798    -0.000006082255    -0.000016912416
      13       -0.000050935166    -0.000000478669    -0.000044779825
      14       -0.000045643740    -0.000003046748    -0.000007233869

  **** Optimization is complete! (in 4 steps) ****
    Final optimized geometry and variables:
    Molecular point group: c1

    Geometry (in Angstrom), charge = 0, multiplicity = 1:

    H           -2.275111411806    -0.282755557808    -1.840220043002
    N           -1.356019546790    -0.357180385768    -1.459721030874
    C           -1.396922584935    -0.447128441777    -0.011826730112
    H           -0.847904293735     0.455644093195    -1.737389675540
    C            0.001444378606    -0.549564684983     0.552689942603
    H           -1.897046655314     0.397270817057     0.460892769793
    H           -1.940433966956    -1.343644859190     0.265455285080
    O            0.684816229141     0.635720253760     0.277934110703
    H           -0.044930616648    -0.714306112209     1.628303751116
    H            0.517182212550    -1.393487928557     0.100292752251
    C            2.012224650875     0.642851306231     0.686474780740
    H            2.584178630059    -0.139658938747     0.193454978568
    H            2.435339023797     1.601711437470     0.423990176295
    H            2.097712860019     0.505808617805     1.762376051418

  Mulliken Charges: (a.u.)
   Center  Symbol    Alpha    Beta     Spin     Total
       1     H     0.43022  0.43022  0.00000  0.13956
       2     N     3.69418  3.69418  0.00000 -0.38837
       3     C     3.02193  3.02193  0.00000 -0.04385
       4     H     0.42248  0.42248  0.00000  0.15504
       5     C     2.96938  2.96938  0.00000  0.06123
       6     H     0.46454  0.46454  0.00000  0.07092
       7     H     0.45871  0.45871  0.00000  0.08258
       8     O     4.17991  4.17991  0.00000 -0.35983
       9     H     0.46968  0.46968  0.00000  0.06063
      10     H     0.46859  0.46859  0.00000  0.06281
      11     C     3.03189  3.03189  0.00000 -0.06378
      12     H     0.46978  0.46978  0.00000  0.06044
      13     H     0.44757  0.44757  0.00000  0.10486
      14     H     0.47113  0.47113  0.00000  0.05774

   Total alpha = 21.00000, Total beta = 21.00000, Total charge = -0.00000
