  ==> Input File <==

--------------------------------------------------------------------------
set {
	reference rhf
	basis 6-31G*
}

set_num_threads( 4 )
memory 2 gb

molecule MOL {
0 1

H	 3.249349	 -1.106884	 0.973616
O	 2.826016	 -1.159218	 0.122261
C	 2.077727	 -0.067559	 -0.035091
C	 0.624473	 -0.343591	 0.253101
O	 2.542965	 0.974826	 -0.363729
C	 -0.265902	 0.883932	 0.072916
H	 0.324016	 -1.163849	 -0.390541
H	 0.565024	 -0.726111	 1.268924
C	 -1.728698	 0.646073	 0.462102
H	 -0.209144	 1.219470	 -0.958188
H	 0.135059	 1.692851	 0.673903
C	 -2.482460	 -0.343073	 -0.431425
H	 -2.245265	 1.602650	 0.432430
H	 -1.779332	 0.308348	 1.496285
C	 -3.960546	 -0.461025	 -0.060175
H	 -2.395034	 -0.026811	 -1.468912
H	 -2.024850	 -1.327147	 -0.371646
H	 -4.472726	 -1.168004	 -0.705284
H	 -4.465146	 0.496508	 -0.151489
H	 -4.081218	 -0.800940	 0.964585

	symmetry c1
}
set optking {
	frozen_dihedral = ("
		1 2 3 5
	")
}

ee = optimize('scf')
oeprop('DIPOLE', 'QUADRUPOLE', 'MULLIKEN_CHARGES')
f=open( 'psi4out.xyz', 'w' )
f.write( "20  " )
f.write( str(ee) + "\n" )
f.write( MOL.save_string_xyz() )
f.close()
--------------------------------------------------------------------------

    Molecular point group: c1
  Charge       = 0
  Multiplicity = 1
  Basis Set: 6-31G*
  Basis Set:
  @DF-RHF Final Energy:  -383.92686451550310
    Total Energy =                       -383.9268645155032118
    Molecular point group: c1
  Basis Set: 6-31G*
  Basis Set:
  Basis Set: 6-31G*
  Basis Set:
  @DF-RHF Final Energy:  -383.92659306669111
    Total Energy =                       -383.9265930666911117
  Basis Set: 6-31G*
  Basis Set:
  Basis Set: 6-31G*
  Basis Set:
  @DF-RHF Final Energy:  -383.92771458357862
    Total Energy =                       -383.9277145835784495
  Basis Set: 6-31G*
  Basis Set:
  Basis Set: 6-31G*
  Basis Set:
  @DF-RHF Final Energy:  -383.92858820731209
    Total Energy =                       -383.9285882073120320
  Basis Set: 6-31G*
  Basis Set:
  Basis Set: 6-31G*
  Basis Set:
  @DF-RHF Final Energy:  -383.92859586073507
    Total Energy =                       -383.9285958607348448
  Basis Set: 6-31G*
  Basis Set:
  Charge       = 0
  Multiplicity = 1
  Basis Set: 6-31G*
  Basis Set:

    Orbital Energies (a.u.)
    -----------------------

    Doubly Occupied:

       1A    -20.594196     2A    -20.561946     3A    -11.381289
       4A    -11.241291     5A    -11.223760     6A    -11.221655
       7A    -11.220897     8A    -11.213074     9A     -1.460106
      10A     -1.366607    11A     -1.096479    12A     -1.040087
      13A     -0.958923    14A     -0.865590    15A     -0.815487
      16A     -0.781232    17A     -0.709462    18A     -0.677623
      19A     -0.657726    20A     -0.638932    21A     -0.612697
      22A     -0.587051    23A     -0.562491    24A     -0.554237
      25A     -0.525754    26A     -0.513070    27A     -0.498230
      28A     -0.493045    29A     -0.470386    30A     -0.465135
      31A     -0.458554    32A     -0.442928

  @DF-RHF Final Energy:  -383.92859530898733

   => Energetics <=

    Nuclear Repulsion Energy =            375.1512855274747267
    One-Electron Energy =               -1266.3398865373492299
    Two-Electron Energy =                 507.2600057008869499
    DFT Exchange-Correlation Energy =       0.0000000000000000
    Empirical Dispersion Energy =           0.0000000000000000
    PCM Polarization Energy =               0.0000000000000000
    EFP Energy =                            0.0000000000000000
    Total Energy =                       -383.9285953089874965
    Molecular point group: c1
  Basis Set: 6-31G*
  Basis Set:

  -Total Gradient:
     Atom            X                  Y                   Z
    ------   -----------------  -----------------  -----------------
       1       -0.004466969252    -0.002784338862     0.002783509214
       2        0.005043744493     0.002995949738    -0.005756100909
       3        0.000550571671     0.001111024946     0.007887406415
       4       -0.000001562774     0.000023625715    -0.000021490200
       5       -0.001141165340    -0.001332501258    -0.004931231439
       6        0.000000332330     0.000001880208     0.000041891764
       7       -0.000037432635    -0.000028672636    -0.000008758410
       8       -0.000009246985     0.000005359894     0.000002106671
       9       -0.000004930726     0.000022351376     0.000001155359
      10        0.000003330590     0.000014042224     0.000007298996
      11        0.000012213849    -0.000023967318     0.000014517898
      12        0.000022616254     0.000001900537    -0.000020021352
      13        0.000007393536    -0.000001110036    -0.000029543088
      14       -0.000021446747     0.000030669247     0.000014251094
      15        0.000004189039    -0.000018165773     0.000017872964
      16       -0.000018264795     0.000004686097     0.000005736527
      17        0.000055964172    -0.000018204153    -0.000013251482
      18        0.000002390493    -0.000004373411     0.000003772211
      19        0.000003776372    -0.000000736590    -0.000003350937
      20       -0.000005503557     0.000000580061     0.000004228707

  **** Optimization is complete! (in 6 steps) ****
    Final optimized geometry and variables:
    Molecular point group: c1

    Geometry (in Angstrom), charge = 0, multiplicity = 1:

    H            3.353030998141    -1.176319111119     0.901250001833
    O            2.849485511500    -1.180038035768     0.096149544908
    C            2.082513202738    -0.060114661878    -0.019148467232
    C            0.625202133375    -0.324408015429     0.264665796652
    O            2.533248269477     0.967715346664    -0.384091676527
    C           -0.268000378484     0.898711313517     0.073031446656
    H            0.331880601784    -1.150891517530    -0.375055098221
    H            0.555640663199    -0.706017066082     1.281693870369
    C           -1.733685878716     0.659247930322     0.450530448296
    H           -0.202680756281     1.229313874476    -0.959087877937
    H            0.124968314035     1.712498204766     0.673458941664
    C           -2.474892686790    -0.340756754116    -0.441392895727
    H           -2.253570908821     1.613495014519     0.407399707758
    H           -1.793352144340     0.330561732242     1.487297975539
    C           -3.954548910101    -0.466254133088    -0.078997509692
    H           -2.382679015244    -0.030649698543    -1.480225143778
    H           -2.010969224326    -1.321269016950    -0.372393907036
    H           -4.457553988687    -1.181069115158    -0.722634353395
    H           -4.465067715571     0.487135253355    -0.180215353629
    H           -4.079845743963    -0.800041188193     0.947266657237

  Mulliken Charges: (a.u.)
   Center  Symbol    Alpha    Beta     Spin     Total
       1     H     0.26595  0.26595  0.00000  0.46809
       2     O     4.37008  4.37008  0.00000 -0.74016
       3     C     2.62980  2.62980  0.00000  0.74039
       4     C     3.21185  3.21185  0.00000 -0.42371
       5     O     4.24731  4.24731  0.00000 -0.49461
       6     C     3.15461  3.15461  0.00000 -0.30921
       7     H     0.39501  0.39501  0.00000  0.20997
       8     H     0.40867  0.40867  0.00000  0.18267
       9     C     3.15531  3.15531  0.00000 -0.31062
      10     H     0.41087  0.41087  0.00000  0.17826
      11     H     0.41016  0.41016  0.00000  0.17969
      12     C     3.15488  3.15488  0.00000 -0.30977
      13     H     0.41773  0.41773  0.00000  0.16454
      14     H     0.42465  0.42465  0.00000  0.15070
      15     C     3.23925  3.23925  0.00000 -0.47849
      16     H     0.42081  0.42081  0.00000  0.15837
      17     H     0.42276  0.42276  0.00000  0.15449
      18     H     0.41807  0.41807  0.00000  0.16386
      19     H     0.42055  0.42055  0.00000  0.15890
      20     H     0.42168  0.42168  0.00000  0.15664

   Total alpha = 32.00000, Total beta = 32.00000, Total charge =  0.00000
