  ==> Input File <==

--------------------------------------------------------------------------
set {
	reference rhf
	basis 6-31G*
}

set_num_threads( 4 )
memory 2 gb

molecule MOL {
0 1

H	 -1.623187	 -2.215189	 -2.478463
C	 -2.323384	 -1.580576	 -1.921137
C	 -2.180180	 -1.637858	 -0.421529
O	 -3.118527	 -0.915496	 -2.501798
C	 -0.738921	 -1.384912	 0.042202
H	 -2.870319	 -0.925512	 0.015484
H	 -2.487166	 -2.635156	 -0.108785
C	 -0.252658	 0.041456	 -0.226725
H	 -0.678798	 -1.591885	 1.106548
H	 -0.073154	 -2.097292	 -0.442593
C	 1.180775	 0.282413	 0.250794
H	 -0.922212	 0.744313	 0.264740
H	 -0.317190	 0.258844	 -1.291205
C	 2.148627	 -0.814315	 -0.201312
H	 1.516199	 1.249228	 -0.115937
H	 1.192670	 0.346017	 1.338083
C	 3.580890	 -0.659131	 0.322722
H	 2.166869	 -0.852443	 -1.289387
H	 1.762857	 -1.776509	 0.128956
C	 4.324889	 0.564933	 -0.213704
H	 4.142010	 -1.551473	 0.056605
H	 3.564836	 -0.624694	 1.410140
H	 4.342616	 0.565491	 -1.300421
H	 3.866655	 1.493402	 0.110242
H	 5.353900	 0.572371	 0.132816

	symmetry c1
}
set optking {
	frozen_dihedral = ("
		12 8 11 14
	")
}

ee = optimize('scf')
oeprop('DIPOLE', 'QUADRUPOLE', 'MULLIKEN_CHARGES')
f=open( 'psi4out.xyz', 'w' )
f.write( "25  " )
f.write( str(ee) + "\n" )
f.write( MOL.save_string_xyz() )
f.close()
--------------------------------------------------------------------------

    Molecular point group: c1
  Charge       = 0
  Multiplicity = 1
  Basis Set: 6-31G*
  Basis Set:
  @DF-RHF Final Energy:  -387.11678655274466
    Total Energy =                       -387.1167865527446565
    Molecular point group: c1
  Basis Set: 6-31G*
  Basis Set:
  Basis Set: 6-31G*
  Basis Set:
  @DF-RHF Final Energy:  -387.11737644621172
    Total Energy =                       -387.1173764462110967
  Basis Set: 6-31G*
  Basis Set:
  Basis Set: 6-31G*
  Basis Set:
  @DF-RHF Final Energy:  -387.11859877802090
    Total Energy =                       -387.1185987780220330
  Basis Set: 6-31G*
  Basis Set:
  Basis Set: 6-31G*
  Basis Set:
  @DF-RHF Final Energy:  -387.11747752218446
    Total Energy =                       -387.1174775221842310
  Basis Set: 6-31G*
  Basis Set:
  @DF-RHF Final Energy:  -387.11896878633695
    Total Energy =                       -387.1189687863364952
  @DF-RHF Final Energy:  -387.11907672043350
    Total Energy =                       -387.1190767204334406
  @DF-RHF Final Energy:  -387.11905930426144
    Total Energy =                       -387.1190593042618957
  @DF-RHF Final Energy:  -387.11899439522995
    Total Energy =                       -387.1189943952302883
  @DF-RHF Final Energy:  -387.11911094425670
    Total Energy =                       -387.1191109442562492
  Basis Set: 6-31G*
  Basis Set:
  @DF-RHF Final Energy:  -387.11910804610142
    Total Energy =                       -387.1191080461006777
  Basis Set: 6-31G*
  Basis Set:
  Basis Set: 6-31G*
  Basis Set:
  @DF-RHF Final Energy:  -387.11911041802267
    Total Energy =                       -387.1191104180231832
  Basis Set: 6-31G*
  Basis Set:
  Basis Set: 6-31G*
  Basis Set:
  @DF-RHF Final Energy:  -387.11911202792913
    Total Energy =                       -387.1191120279291908
  Basis Set: 6-31G*
  Basis Set:
  Charge       = 0
  Multiplicity = 1
  Basis Set: 6-31G*
  Basis Set:

    Orbital Energies (a.u.)
    -----------------------

    Doubly Occupied:

       1A    -20.561767     2A    -11.326001     3A    -11.234837
       4A    -11.234229     5A    -11.224638     6A    -11.220358
       7A    -11.219580     8A    -11.218800     9A    -11.211162
      10A     -1.401717    11A     -1.104280    12A     -1.068880
      13A     -1.012546    14A     -0.940457    15A     -0.883601
      16A     -0.822237    17A     -0.793155    18A     -0.770665
      19A     -0.665446    20A     -0.652248    21A     -0.635241
      22A     -0.627947    23A     -0.610895    24A     -0.588651
      25A     -0.573182    26A     -0.560248    27A     -0.534561
      28A     -0.522381    29A     -0.517736    30A     -0.498380
      31A     -0.485422    32A     -0.478663    33A     -0.462238
      34A     -0.451104    35A     -0.447873    36A     -0.409050

  @DF-RHF Final Energy:  -387.11911202324262

   => Energetics <=

    Nuclear Repulsion Energy =            443.8766356889063331
    One-Electron Energy =               -1404.0511451925897290
    Two-Electron Energy =                 573.0553974804408881
    DFT Exchange-Correlation Energy =       0.0000000000000000
    Empirical Dispersion Energy =           0.0000000000000000
    PCM Polarization Energy =               0.0000000000000000
    EFP Energy =                            0.0000000000000000
    Total Energy =                       -387.1191120232424510
    Molecular point group: c1
  Basis Set: 6-31G*
  Basis Set:

  -Total Gradient:
     Atom            X                  Y                   Z
    ------   -----------------  -----------------  -----------------
       1       -0.000007084464    -0.000005145574    -0.000003482252
       2        0.000014687743     0.000009325935     0.000001876693
       3       -0.000022606642    -0.000011368996     0.000005218803
       4       -0.000001842719    -0.000004957745    -0.000000073646
       5        0.000003871212    -0.000007476004    -0.000020000193
       6       -0.000001031155    -0.000000975141     0.000000833321
       7       -0.000001926386     0.000001104730    -0.000000714944
       8        0.000508274150     0.002372195467    -0.002272943498
       9       -0.000007350559     0.000005829603    -0.000005483807
      10        0.000006153460    -0.000004548938     0.000006088915
      11        0.000772177295     0.001531303629    -0.002608179730
      12       -0.000639327054    -0.002435936071     0.002657910259
      13       -0.000002016261    -0.000002494735     0.000006585093
      14       -0.000630937685    -0.001445983653     0.002224812718
      15        0.000006491376     0.000000083805     0.000002592942
      16       -0.000001541460    -0.000001022384    -0.000002067200
      17        0.000002107428     0.000001545740     0.000006022197
      18       -0.000001454954    -0.000003999582     0.000000520963
      19       -0.000001501191     0.000006268506    -0.000000563725
      20       -0.000001255435    -0.000005121994    -0.000000843933
      21        0.000008825918     0.000005655193     0.000000176075
      22       -0.000001013193    -0.000002124430     0.000000256878
      23       -0.000004118382     0.000000302122     0.000001342575
      24        0.000000881365    -0.000000233820     0.000001931487
      25        0.000001537599    -0.000002225662    -0.000001815989

  **** Optimization is complete! (in 13 steps) ****
    Final optimized geometry and variables:
    Molecular point group: c1

    Geometry (in Angstrom), charge = 0, multiplicity = 1:

    H           -2.109915750767    -1.460480302377    -1.998280340277
    C           -2.738366925253    -0.808599905908    -1.378654611254
    C           -2.530895246583    -0.948928347432     0.108027520823
    O           -3.516178654981    -0.069138399941    -1.888635274976
    C           -1.055311795211    -0.815689970944     0.511606197344
    H           -3.150923961178    -0.215375020726     0.610214879241
    H           -2.890333343576    -1.938220906093     0.388663881906
    C           -0.495808448039     0.592088424709     0.272815351237
    H           -0.963449212677    -1.068240511580     1.564598237216
    H           -0.472639219857    -1.555398000145    -0.030688127192
    C            0.915465203490     0.829062313544     0.830022090663
    H           -1.171523077346     1.294501344466     0.754714214004
    H           -0.512032582355     0.817921646482    -0.791292761745
    C            1.957742231776    -0.225851857820     0.444444862931
    H            1.242036965463     1.812118768387     0.505595129622
    H            0.859415191706     0.872425499997     1.916924895977
    C            3.375692726911     0.083109046198     0.941760854779
    H            1.977986447830    -0.343578120149    -0.638806600502
    H            1.659844252590    -1.188093547816     0.850183502411
    C            4.042462274600     1.282932994640     0.266337013029
    H            3.995472268451    -0.794909910788     0.777754618799
    H            3.352439774249     0.239736692561     2.018406369333
    H            4.074939148290     1.154297012306    -0.812183630104
    H            3.520711563015     2.211175455238     0.473233567006
    H            5.063913935884     1.400817492011     0.614666594288

  Mulliken Charges: (a.u.)
   Center  Symbol    Alpha    Beta     Spin     Total
       1     H     0.43271  0.43271  0.00000  0.13457
       2     C     2.83082  2.83082  0.00000  0.33837
       3     C     3.20805  3.20805  0.00000 -0.41610
       4     O     4.23779  4.23779  0.00000 -0.47558
       5     C     3.16977  3.16977  0.00000 -0.33954
       6     H     0.39999  0.39999  0.00000  0.20002
       7     H     0.40661  0.40661  0.00000  0.18678
       8     C     3.15490  3.15490  0.00000 -0.30979
       9     H     0.41360  0.41360  0.00000  0.17280
      10     H     0.41691  0.41691  0.00000  0.16618
      11     C     3.15516  3.15516  0.00000 -0.31033
      12     H     0.41644  0.41644  0.00000  0.16712
      13     H     0.41848  0.41848  0.00000  0.16304
      14     C     3.15654  3.15654  0.00000 -0.31309
      15     H     0.41645  0.41645  0.00000  0.16710
      16     H     0.42340  0.42340  0.00000  0.15319
      17     C     3.15263  3.15263  0.00000 -0.30526
      18     H     0.42479  0.42479  0.00000  0.15042
      19     H     0.42030  0.42030  0.00000  0.15939
      20     C     3.24126  3.24126  0.00000 -0.48252
      21     H     0.42043  0.42043  0.00000  0.15913
      22     H     0.42293  0.42293  0.00000  0.15414
      23     H     0.42167  0.42167  0.00000  0.15666
      24     H     0.41985  0.41985  0.00000  0.16030
      25     H     0.41850  0.41850  0.00000  0.16299

   Total alpha = 36.00000, Total beta = 36.00000, Total charge =  0.00000
