  ==> Input File <==

--------------------------------------------------------------------------
set {
	reference rhf
	basis 6-31G*
}

set_num_threads( 1 )
memory 2 gb

molecule MOL {
0 1

H	 -2.698709	 -0.000305	 0.034435
C	 -1.693833	 0.000034	 0.434417
O	 -0.828952	 -0.000968	 -0.659236
H	 -1.574200	 0.882896	 1.055746
H	 -1.574147	 -0.881698	 1.057355
C	 0.500948	 0.422226	 -0.467465
C	 0.594627	 1.891197	 -0.059709
C	 1.276101	 -0.493275	 0.478027
H	 0.935586	 0.323715	 -1.455096
H	 -0.007152	 2.504477	 -0.721751
H	 1.624070	 2.229294	 -0.124308
H	 0.260438	 2.056911	 0.959615
H	 1.145423	 -1.530405	 0.188647
H	 2.335248	 -0.258947	 0.436043
H	 0.958411	 -0.382374	 1.509828

	symmetry c1
}
set optking {
	frozen_dihedral = ("
		9 6 3 2
	")
}

ee = energy('scf')
oeprop('DIPOLE', 'QUADRUPOLE', 'MULLIKEN_CHARGES')
f=open( 'psi4out.xyz', 'w' )
f.write( "15  " )
f.write( str(ee) + "\n" )
f.write( MOL.save_string_xyz() )
f.close()
--------------------------------------------------------------------------

    Molecular point group: c1

    Geometry (in Angstrom), charge = 0, multiplicity = 1:

       Center              X                  Y                   Z               Mass
    ------------   -----------------  -----------------  -----------------  -----------------
           H         -2.648637715115    -0.362230246358     0.074363898950     1.007825032070
           C         -1.643761715115    -0.361891246358     0.474345898950    12.000000000000
           O         -0.778880715115    -0.362893246358    -0.619307101050    15.994914619560
           H         -1.524128715115     0.520970753642     1.095674898950     1.007825032070
           H         -1.524075715115    -1.243623246358     1.097283898950     1.007825032070
           C          0.551019284885     0.060300753642    -0.427536101050    12.000000000000
           C          0.644698284885     1.529271753642    -0.019780101050    12.000000000000
           C          1.326172284885    -0.855200246358     0.517955898950    12.000000000000
           H          0.985657284885    -0.038210246358    -1.415167101050     1.007825032070
           H          0.042919284885     2.142551753642    -0.681822101050     1.007825032070
           H          1.674141284885     1.867368753642    -0.084379101050     1.007825032070
           H          0.310509284885     1.694985753642     0.999543898950     1.007825032070
           H          1.195494284885    -1.892330246358     0.228575898950     1.007825032070
           H          2.385319284885    -0.620872246358     0.475971898950     1.007825032070
           H          1.008482284885    -0.744299246358     1.549756898950     1.007825032070

  Charge       = 0
  Multiplicity = 1
  Basis Set: 6-31G*
  Basis Set:

    Orbital Energies (a.u.)
    -----------------------

    Doubly Occupied:

       1A    -20.547937     2A    -11.274474     3A    -11.260832
       4A    -11.210765     5A    -11.210451     6A     -1.370282
       7A     -1.050573     8A     -0.939683     9A     -0.931241
      10A     -0.781323    11A     -0.674981    12A     -0.639898
      13A     -0.633150    14A     -0.572206    15A     -0.565104
      16A     -0.552833    17A     -0.534852    18A     -0.498016
      19A     -0.496916    20A     -0.442985    21A     -0.405867

  @DF-RHF Final Energy:  -232.13703768995791

   => Energetics <=

    Nuclear Repulsion Energy =            198.7770677103798391
    One-Electron Energy =                -708.6393834253179875
    Two-Electron Energy =                 277.7252780249810371
    DFT Exchange-Correlation Energy =       0.0000000000000000
    Empirical Dispersion Energy =           0.0000000000000000
    PCM Polarization Energy =               0.0000000000000000
    EFP Energy =                            0.0000000000000000
    Total Energy =                       -232.1370376899571397

  Mulliken Charges: (a.u.)
   Center  Symbol    Alpha    Beta     Spin     Total
       1     H     0.41369  0.41369  0.00000  0.17261
       2     C     3.08094  3.08094  0.00000 -0.16188
       3     O     4.31224  4.31224  0.00000 -0.62447
       4     H     0.43037  0.43037  0.00000  0.13926
       5     H     0.42767  0.42767  0.00000  0.14466
       6     C     2.90938  2.90938  0.00000  0.18125
       7     C     3.25333  3.25333  0.00000 -0.50666
       8     C     3.25262  3.25262  0.00000 -0.50524
       9     H     0.41523  0.41523  0.00000  0.16954
      10     H     0.41132  0.41132  0.00000  0.17736
      11     H     0.41911  0.41911  0.00000  0.16179
      12     H     0.42137  0.42137  0.00000  0.15727
      13     H     0.41142  0.41142  0.00000  0.17716
      14     H     0.41965  0.41965  0.00000  0.16070
      15     H     0.42167  0.42167  0.00000  0.15666

   Total alpha = 21.00000, Total beta = 21.00000, Total charge = -0.00000
