  ==> Input File <==

--------------------------------------------------------------------------
set {
	reference rhf
	basis 6-31G*
}

set_num_threads( 1 )
memory 2 gb

molecule MOL {
0 1

O	 1.912047	 0.151830	 -0.887916
C	 1.122059	 0.121804	 -0.000188
C	 -0.170150	 -0.657997	 -0.000612
O	 1.280322	 0.789089	 1.135884
C	 -1.412532	 0.227344	 -0.000452
H	 -0.153702	 -1.313099	 -0.867402
H	 -0.153924	 -1.313811	 0.865644
C	 -2.706999	 -0.587347	 -0.000541
H	 -1.388000	 0.879466	 -0.868000
H	 -1.387972	 0.879138	 0.867341
C	 -3.956778	 0.291888	 0.000910
H	 -2.726114	 -1.239230	 -0.871609
H	 -2.725217	 -1.240844	 0.869333
H	 -3.985213	 0.933254	 -0.875158
H	 -4.860123	 -0.309979	 0.000519
H	 -3.984618	 0.931166	 0.878514
C	 2.457560	 1.565052	 1.266770
H	 3.335263	 0.938831	 1.196260
H	 2.402268	 2.022962	 2.242070
H	 2.499942	 2.323798	 0.498645

	symmetry c1
}
set optking {
	frozen_dihedral = ("
		9 5 8 12,
		9 5 3 6,
		1 2 4 17
	")
}

ee = energy('scf')
oeprop('DIPOLE', 'QUADRUPOLE', 'MULLIKEN_CHARGES')
f=open( 'psi4out.xyz', 'w' )
f.write( "20  " )
f.write( str(ee) + "\n" )
f.write( MOL.save_string_xyz() )
f.close()
--------------------------------------------------------------------------

    Molecular point group: c1

    Geometry (in Angstrom), charge = 0, multiplicity = 1:

       Center              X                  Y                   Z               Mass
    ------------   -----------------  -----------------  -----------------  -----------------
           O          2.068576626279    -0.107446829365    -1.087115565848    15.994914619560
           C          1.278588626279    -0.137472829365    -0.199387565848    12.000000000000
           C         -0.013620373721    -0.917273829365    -0.199811565848    12.000000000000
           O          1.436851626279     0.529812170635     0.936684434152    15.994914619560
           C         -1.256002373721    -0.031932829365    -0.199651565848    12.000000000000
           H          0.002827626279    -1.572375829365    -1.066601565848     1.007825032070
           H          0.002605626279    -1.573087829365     0.666444434152     1.007825032070
           C         -2.550469373721    -0.846623829365    -0.199740565848    12.000000000000
           H         -1.231470373721     0.620189170635    -1.067199565848     1.007825032070
           H         -1.231442373721     0.619861170635     0.668141434152     1.007825032070
           C         -3.800248373721     0.032611170635    -0.198289565848    12.000000000000
           H         -2.569584373721    -1.498506829365    -1.070808565848     1.007825032070
           H         -2.568687373721    -1.500120829365     0.670133434152     1.007825032070
           H         -3.828683373721     0.673977170635    -1.074357565848     1.007825032070
           H         -4.703593373721    -0.569255829365    -0.198680565848     1.007825032070
           H         -3.828088373721     0.671889170635     0.679314434152     1.007825032070
           C          2.614089626279     1.305775170635     1.067570434152    12.000000000000
           H          3.491792626279     0.679554170635     0.997060434152     1.007825032070
           H          2.558797626279     1.763685170635     2.042870434152     1.007825032070
           H          2.656471626279     2.064521170635     0.299445434152     1.007825032070

  Charge       = 0
  Multiplicity = 1
  Basis Set: 6-31G*
  Basis Set:

    Orbital Energies (a.u.)
    -----------------------

    Doubly Occupied:

       1A    -20.604154     2A    -20.544203     3A    -11.371164
       4A    -11.280852     5A    -11.233993     6A    -11.228539
       7A    -11.224466     8A    -11.214395     9A     -1.469023
      10A     -1.361702    11A     -1.093623    12A     -1.025443
      13A     -0.967124    14A     -0.891007    15A     -0.808308
      16A     -0.774032    17A     -0.693615    18A     -0.680020
      19A     -0.673475    20A     -0.646566    21A     -0.598253
      22A     -0.591403    23A     -0.575292    24A     -0.552387
      25A     -0.533449    26A     -0.520723    27A     -0.508340
      28A     -0.486487    29A     -0.482718    30A     -0.474591
      31A     -0.454349    32A     -0.429067

  @DF-RHF Final Energy:  -383.94000903712407

   => Energetics <=

    Nuclear Repulsion Energy =            383.4420184845333210
    One-Electron Energy =               -1282.7785760274823588
    Two-Electron Energy =                 515.3965485058250806
    DFT Exchange-Correlation Energy =       0.0000000000000000
    Empirical Dispersion Energy =           0.0000000000000000
    PCM Polarization Energy =               0.0000000000000000
    EFP Energy =                            0.0000000000000000
    Total Energy =                       -383.9400090371240140

  Mulliken Charges: (a.u.)
   Center  Symbol    Alpha    Beta     Spin     Total
       1     O     4.28480  4.28480  0.00000 -0.56959
       2     C     2.61657  2.61657  0.00000  0.76686
       3     C     3.19616  3.19616  0.00000 -0.39232
       4     O     4.30197  4.30197  0.00000 -0.60394
       5     C     3.16270  3.16270  0.00000 -0.32540
       6     H     0.39998  0.39998  0.00000  0.20003
       7     H     0.40478  0.40478  0.00000  0.19044
       8     C     3.15353  3.15353  0.00000 -0.30706
       9     H     0.41367  0.41367  0.00000  0.17265
      10     H     0.40858  0.40858  0.00000  0.18284
      11     C     3.24023  3.24023  0.00000 -0.48046
      12     H     0.41986  0.41986  0.00000  0.16028
      13     H     0.42057  0.42057  0.00000  0.15885
      14     H     0.41994  0.41994  0.00000  0.16013
      15     H     0.41740  0.41740  0.00000  0.16519
      16     H     0.42027  0.42027  0.00000  0.15946
      17     C     3.09239  3.09239  0.00000 -0.18478
      18     H     0.40876  0.40876  0.00000  0.18247
      19     H     0.40885  0.40885  0.00000  0.18230
      20     H     0.40897  0.40897  0.00000  0.18206

   Total alpha = 32.00000, Total beta = 32.00000, Total charge = -0.00000
