  ==> Input File <==

--------------------------------------------------------------------------
set {
	reference rhf
	basis 6-31G*
}

set_num_threads( 1 )
memory 2 gb

molecule MOL {
0 1

H	 -1.768848	 1.138977	 0.147432
N	 -1.852125	 0.165761	 -0.074816
C	 -0.563778	 -0.502042	 0.037919
H	 -2.194750	 0.111711	 -1.015264
C	 0.575259	 0.508231	 -0.048326
H	 -0.482092	 -1.204004	 -0.786564
H	 -0.460411	 -1.085169	 0.956626
C	 1.954651	 -0.143624	 0.035137
H	 0.475158	 1.060484	 -0.977307
H	 0.469181	 1.234488	 0.755973
H	 2.103292	 -0.853109	 -0.774172
H	 2.742821	 0.599562	 -0.030094
H	 2.083613	 -0.679371	 0.971560

	symmetry c1
}
set optking {
	frozen_dihedral = ("
		6 3 5 9
	")
}

ee = energy('scf')
oeprop('DIPOLE', 'QUADRUPOLE', 'MULLIKEN_CHARGES')
f=open( 'psi4out.xyz', 'w' )
f.write( "13  " )
f.write( str(ee) + "\n" )
f.write( MOL.save_string_xyz() )
f.close()
--------------------------------------------------------------------------

    Molecular point group: c1

    Geometry (in Angstrom), charge = 0, multiplicity = 1:

       Center              X                  Y                   Z               Mass
    ------------   -----------------  -----------------  -----------------  -----------------
           H         -1.779839882657     1.122082038641     0.172969456561     1.007825032070
           N         -1.863116882657     0.148866038641    -0.049278543439    14.003074004780
           C         -0.574769882657    -0.518936961359     0.063456456561    12.000000000000
           H         -2.205741882657     0.094816038641    -0.989726543439     1.007825032070
           C          0.564267117343     0.491336038641    -0.022788543439    12.000000000000
           H         -0.493083882657    -1.220898961359    -0.761026543439     1.007825032070
           H         -0.471402882657    -1.102063961359     0.982163456561     1.007825032070
           C          1.943659117343    -0.160518961359     0.060674456561    12.000000000000
           H          0.464166117343     1.043589038641    -0.951769543439     1.007825032070
           H          0.458189117343     1.217593038641     0.781510456561     1.007825032070
           H          2.092300117343    -0.870003961359    -0.748634543439     1.007825032070
           H          2.731829117343     0.582667038641    -0.004556543439     1.007825032070
           H          2.072621117343    -0.696265961359     0.997097456561     1.007825032070

  Charge       = 0
  Multiplicity = 1
  Basis Set: 6-31G*
  Basis Set:

    Orbital Energies (a.u.)
    -----------------------

    Doubly Occupied:

       1A    -15.530479     2A    -11.240787     3A    -11.217157
       4A    -11.212129     5A     -1.178440     6A     -1.036966
       7A     -0.899122     8A     -0.809137     9A     -0.670857
      10A     -0.615654    11A     -0.605752    12A     -0.560119
      13A     -0.537095    14A     -0.504058    15A     -0.487376
      16A     -0.472822    17A     -0.374436

  @DF-RHF Final Energy:  -173.27779653033710

   => Energetics <=

    Nuclear Repulsion Energy =            132.2068309797740824
    One-Electron Energy =                -495.0644677099573414
    Two-Electron Energy =                 189.5798401998457905
    DFT Exchange-Correlation Energy =       0.0000000000000000
    Empirical Dispersion Energy =           0.0000000000000000
    PCM Polarization Energy =               0.0000000000000000
    EFP Energy =                            0.0000000000000000
    Total Energy =                       -173.2777965303374401

  Mulliken Charges: (a.u.)
   Center  Symbol    Alpha    Beta     Spin     Total
       1     H     0.33265  0.33265  0.00000  0.33469
       2     N     3.92450  3.92450  0.00000 -0.84900
       3     C     3.05080  3.05080  0.00000 -0.10160
       4     H     0.33251  0.33251  0.00000  0.33497
       5     C     3.16463  3.16463  0.00000 -0.32927
       6     H     0.42474  0.42474  0.00000  0.15053
       7     H     0.42058  0.42058  0.00000  0.15885
       8     C     3.24354  3.24354  0.00000 -0.48709
       9     H     0.42426  0.42426  0.00000  0.15148
      10     H     0.42288  0.42288  0.00000  0.15424
      11     H     0.42121  0.42121  0.00000  0.15758
      12     H     0.41812  0.41812  0.00000  0.16377
      13     H     0.41958  0.41958  0.00000  0.16084

   Total alpha = 17.00000, Total beta = 17.00000, Total charge =  0.00000
