                              Psi4 1.0.54 Driver

  ==> Input File <==

--------------------------------------------------------------------------
set {
	reference rhf
	basis cc-pvtz
}

set_num_threads( 4 )
memory 2 gb

molecule MOL {
0 1

H	 2.448820	 -2.171582	 0.542045
O	 2.767125	 -1.296321	 0.410432
C	 1.757923	 -0.429693	 0.212827
C	 2.088836	 0.901609	 0.004853
C	 0.435853	 -0.820191	 0.211588
H	 3.123015	 1.183753	 0.009760
C	 1.098031	 1.833552	 -0.202846
H	 0.152041	 -1.839926	 0.369347
C	 -0.532034	 0.141680	 0.000000
H	 1.363200	 2.860137	 -0.362709
C	 -0.237083	 1.465610	 -0.208556
N	 -1.937041	 -0.281114	 0.000000
H	 -1.016748	 2.177850	 -0.368431
O	 -2.159542	 -1.446261	 0.000000
O	 -2.764978	 0.565773	 0.000000

	symmetry c1
}
set optking {
	frozen_dihedral = ("
		11 9 12 14
	")
}

ee,wfn = optimize('scf', return_wfn=True)
oeprop( wfn, 'DIPOLE', 'QUADRUPOLE', 'MULLIKEN_CHARGES')
f=open( 'psi4out.xyz', 'w' )
f.write( "15  " )
f.write( str(ee) + "\n" )
f.write( MOL.save_string_xyz() )
f.close()
--------------------------------------------------------------------------

    Molecular point group: c1
  Charge       = 0
  Multiplicity = 1
  Basis Set: CC-PVTZ
  Basis Set:
  @DF-RHF Final Energy:  -509.21895552138119
    Total Energy =                       -509.2189555213810763
    Molecular point group: c1
  Basis Set: CC-PVTZ
  Basis Set:
  Basis Set: CC-PVTZ
  Basis Set:
  @DF-RHF Final Energy:  -509.21713581459494
    Total Energy =                       -509.2171358145950535
  Basis Set: CC-PVTZ
  Basis Set:
  Basis Set: CC-PVTZ
  Basis Set:
  @DF-RHF Final Energy:  -509.21886317494864
    Total Energy =                       -509.2188631749484102
  Basis Set: CC-PVTZ
  Basis Set:
  Basis Set: CC-PVTZ
  Basis Set:
  @DF-RHF Final Energy:  -509.21896871936929
    Total Energy =                       -509.2189687193689451
  Basis Set: CC-PVTZ
  Basis Set:
  Basis Set: CC-PVTZ
  Basis Set:
  @DF-RHF Final Energy:  -509.21896982837859
    Total Energy =                       -509.2189698283782491
  Basis Set: CC-PVTZ
  Basis Set:
  Charge       = 0
  Multiplicity = 1
  Basis Set: CC-PVTZ
  Basis Set:

    Orbital Energies (a.u.)
    -----------------------

    Doubly Occupied:

       1A    -20.608485     2A    -20.595177     3A    -20.594651
       4A    -15.850572     5A    -11.327785     6A    -11.309084
       7A    -11.263224     8A    -11.262854     9A    -11.258545
      10A    -11.256447    11A     -1.644338    12A     -1.441109
      13A     -1.426790    14A     -1.202600    15A     -1.095588
      16A     -1.048008    17A     -0.966874    18A     -0.881572
      19A     -0.832012    20A     -0.795367    21A     -0.756722
      22A     -0.743221    23A     -0.729181    24A     -0.709621
      25A     -0.677062    26A     -0.636070    27A     -0.621721
      28A     -0.598483    29A     -0.560762    30A     -0.546760
      31A     -0.520726    32A     -0.494907    33A     -0.493562
      34A     -0.460157    35A     -0.380087    36A     -0.346177

  @DF-RHF Final Energy:  -509.21897034240686

   => Energetics <=

    Nuclear Repulsion Energy =            504.7330149902350627
    One-Electron Energy =               -1696.0313730374516581
    Two-Electron Energy =                 682.0793877048099603
    DFT Exchange-Correlation Energy =       0.0000000000000000
    Empirical Dispersion Energy =           0.0000000000000000
    PCM Polarization Energy =               0.0000000000000000
    EFP Energy =                            0.0000000000000000
    Total Energy =                       -509.2189703424066920
    Molecular point group: c1
  Basis Set: CC-PVTZ
  Basis Set:

  -Total Gradient:
     Atom            X                  Y                   Z
    ------   -----------------  -----------------  -----------------
       1       -0.000001206700     0.000001032497     0.000007015562
       2        0.000002055864    -0.000002644994    -0.000017766988
       3       -0.000008129409     0.000001489090     0.000022786669
       4       -0.000001878639     0.000006116009     0.000003320201
       5        0.000017604873    -0.000004426649    -0.000001455751
       6       -0.000000433501     0.000001219853     0.000000168478
       7        0.000006542198    -0.000002065613    -0.000015337977
       8        0.000003054191     0.000004974138    -0.000000329315
       9       -0.000069338088     0.000187028288     0.000717322467
      10        0.000000510377     0.000001087263     0.000002107458
      11        0.000052037252    -0.000127702712    -0.000708280840
      12        0.000019053867    -0.000065741333     0.000830165790
      13       -0.000000638317     0.000001350946     0.000001037592
      14       -0.000021394934     0.000020731765    -0.000840143631
      15        0.000002160965    -0.000022448552    -0.000000609714

  **** Optimization is complete! (in 6 steps) ****
    Final optimized geometry and variables:
    Molecular point group: c1

    Geometry (in Angstrom), charge = 0, multiplicity = 1:

    H            2.448467885417    -2.171369388172     0.519986497332
    O            2.766074543402    -1.294755238116     0.396097379407
    C            1.757617976896    -0.430390315081     0.185529699827
    C            2.088261142243     0.901348611089    -0.020115246569
    C            0.436447718276    -0.823833514240     0.166974201681
    H            3.121836630367     1.185272842470    -0.004943824468
    C            1.098159626477     1.831305983884    -0.239857663692
    H            0.153026728709    -1.845295354337     0.314499724973
    C           -0.530753937678     0.137286276045    -0.049824510409
    H            1.363532749655     2.857671490007    -0.400799502224
    C           -0.236405613718     1.461616318292    -0.255825782337
    N           -1.933964038628    -0.289231290742    -0.073904544677
    H           -1.016070843362     2.172731648430    -0.421189025203
    O           -2.152939053329    -1.455064285123    -0.075501509909
    O           -2.763617659842     0.555741432941    -0.096480297019

  Mulliken Charges: (a.u.)
   Center  Symbol    Alpha    Beta     Spin     Total
       1     H     0.38410  0.38410  0.00000  0.23180
       2     O     4.16864  4.16864  0.00000 -0.33729
       3     C     2.84379  2.84379  0.00000  0.31242
       4     C     3.09753  3.09753  0.00000 -0.19506
       5     C     3.13407  3.13407  0.00000 -0.26813
       6     H     0.41316  0.41316  0.00000  0.17369
       7     C     3.05664  3.05664  0.00000 -0.11328
       8     H     0.40791  0.40791  0.00000  0.18418
       9     C     2.97913  2.97913  0.00000  0.04174
      10     H     0.41597  0.41597  0.00000  0.16806
      11     C     3.09617  3.09617  0.00000 -0.19234
      12     N     3.25092  3.25092  0.00000  0.49816
      13     H     0.40001  0.40001  0.00000  0.19998
      14     O     4.17783  4.17783  0.00000 -0.35567
      15     O     4.17413  4.17413  0.00000 -0.34825

   Total alpha = 36.00000, Total beta = 36.00000, Total charge = -0.00000

*** Psi4 exiting successfully. Buy a developer a beer!
