                              Psi4 1.0.54 Driver

  ==> Input File <==

--------------------------------------------------------------------------
set {
	reference rhf
	basis cc-pvtz
}

set_num_threads( 4 )
memory 2 gb

molecule MOL {
0 1

O	 1.031631	 -2.561665	 -4.619094
C	 0.804349	 -1.462589	 -4.229470
C	 0.543605	 -1.191971	 -2.760856
C	 0.781751	 -0.278916	 -5.167114
C	 1.859142	 -1.031294	 -1.988595
H	 -0.009103	 -2.034756	 -2.365459
H	 -0.063659	 -0.300592	 -2.644505
C	 1.630207	 -0.772146	 -0.501001
H	 2.448320	 -1.928389	 -2.131138
H	 2.433194	 -0.209340	 -2.409492
C	 2.907848	 -0.545876	 0.309149
H	 1.078061	 -1.605999	 -0.074619
H	 0.993181	 0.101419	 -0.392901
C	 3.373802	 0.906639	 0.372125
H	 3.699140	 -1.146831	 -0.127906
H	 2.764321	 -0.923458	 1.318191
H	 3.519798	 1.311927	 -0.623875
H	 4.316899	 0.983758	 0.900700
H	 2.661122	 1.540651	 0.885346
H	 -0.232801	 0.099917	 -5.239005
H	 1.126470	 -0.573415	 -6.146404
H	 1.397593	 0.526228	 -4.782315

	symmetry c1
}
set optking {
	frozen_dihedral = ("
		12 8 11 15
	")
}

ee,wfn = optimize('scf', return_wfn=True)
oeprop( wfn, 'DIPOLE', 'QUADRUPOLE', 'MULLIKEN_CHARGES')
f=open( 'psi4out.xyz', 'w' )
f.write( "22  " )
f.write( str(ee) + "\n" )
f.write( MOL.save_string_xyz() )
f.close()
--------------------------------------------------------------------------

    Molecular point group: c1
  Charge       = 0
  Multiplicity = 1
  Basis Set: CC-PVTZ
  Basis Set:
  @DF-RHF Final Energy:  -348.22166124992816
    Total Energy =                       -348.2216612499283315
    Molecular point group: c1
  Basis Set: CC-PVTZ
  Basis Set:
  Basis Set: CC-PVTZ
  Basis Set:
  @DF-RHF Final Energy:  -348.22193950389658
    Total Energy =                       -348.2219395038967491
  Basis Set: CC-PVTZ
  Basis Set:
  Basis Set: CC-PVTZ
  Basis Set:
  @DF-RHF Final Energy:  -348.22181740941488
    Total Energy =                       -348.2218174094147116
  Basis Set: CC-PVTZ
  Basis Set:
  Basis Set: CC-PVTZ
  Basis Set:
  @DF-RHF Final Energy:  -348.22195122911569
    Total Energy =                       -348.2219512291163142
  Basis Set: CC-PVTZ
  Basis Set:
  Basis Set: CC-PVTZ
  Basis Set:
  @DF-RHF Final Energy:  -348.22191202837377
    Total Energy =                       -348.2219120283734810
  Basis Set: CC-PVTZ
  Basis Set:
  Basis Set: CC-PVTZ
  Basis Set:
  @DF-RHF Final Energy:  -348.22196556093360
    Total Energy =                       -348.2219655609337678
  Basis Set: CC-PVTZ
  Basis Set:
  Basis Set: CC-PVTZ
  Basis Set:
  @DF-RHF Final Energy:  -348.22196686514752
    Total Energy =                       -348.2219668651478059
  Basis Set: CC-PVTZ
  Basis Set:
  Charge       = 0
  Multiplicity = 1
  Basis Set: CC-PVTZ
  Basis Set:

    Orbital Energies (a.u.)
    -----------------------

    Doubly Occupied:

       1A    -20.536830     2A    -11.319369     3A    -11.228744
       4A    -11.227672     5A    -11.226982     6A    -11.220394
       7A    -11.219015     8A    -11.211879     9A     -1.396954
      10A     -1.097397    11A     -1.046256    12A     -1.000977
      13A     -0.939382    14A     -0.854399    15A     -0.793612
      16A     -0.734283    17A     -0.662236    18A     -0.649341
      19A     -0.628573    20A     -0.620013    21A     -0.600383
      22A     -0.586788    23A     -0.555990    24A     -0.547640
      25A     -0.539430    26A     -0.516183    27A     -0.500540
      28A     -0.492061    29A     -0.472808    30A     -0.465218
      31A     -0.461956    32A     -0.398615

  @DF-RHF Final Energy:  -348.22196702283821

   => Energetics <=

    Nuclear Repulsion Energy =            372.6385444523088495
    One-Electron Energy =               -1210.2171861316844570
    Two-Electron Energy =                 489.3566746565375638
    DFT Exchange-Correlation Energy =       0.0000000000000000
    Empirical Dispersion Energy =           0.0000000000000000
    PCM Polarization Energy =               0.0000000000000000
    EFP Energy =                            0.0000000000000000
    Total Energy =                       -348.2219670228379869
    Molecular point group: c1
  Basis Set: CC-PVTZ
  Basis Set:

  -Total Gradient:
     Atom            X                  Y                   Z
    ------   -----------------  -----------------  -----------------
       1        0.000008695205    -0.000013179502     0.000002406783
       2        0.000013761092     0.000015119123    -0.000006675181
       3       -0.000003566719     0.000001982660     0.000001893719
       4       -0.000028388055    -0.000014537828    -0.000014159678
       5        0.000002827855    -0.000006965015     0.000003111960
       6       -0.000003984895     0.000001369524     0.000000772281
       7        0.000005717100    -0.000004960068     0.000008639089
       8        0.002012438862    -0.001835114210    -0.002758241159
       9       -0.000001377505     0.000001191083    -0.000003829764
      10       -0.000001096120     0.000003576596    -0.000007888744
      11       -0.001274452812    -0.002461545978     0.002701902377
      12       -0.001481365303     0.001941745771     0.001889653521
      13        0.000002142337    -0.000000503673     0.000007851642
      14       -0.000008762025     0.000014632964    -0.000001792012
      15        0.000741280783     0.002349047216    -0.001832065287
      16       -0.000000023839     0.000000060827    -0.000002342494
      17        0.000000222243    -0.000001141713     0.000015682676
      18       -0.000012789091     0.000000465908    -0.000005143488
      19        0.000012134810    -0.000003321659    -0.000009577312
      20        0.000007668950     0.000007191370     0.000001630277
      21        0.000000572302     0.000001181294     0.000001641779
      22        0.000008344826     0.000003705312     0.000006529017

  **** Optimization is complete! (in 8 steps) ****
    Final optimized geometry and variables:
    Molecular point group: c1

    Geometry (in Angstrom), charge = 0, multiplicity = 1:

    O           -0.609534614345    -1.687390886463    -2.298583038574
    C           -0.820710403843    -0.587525909408    -1.902443300248
    C           -1.087482556115    -0.322817701977    -0.433959989722
    C           -0.818143644991     0.602717777716    -2.832017341581
    C            0.223860062385    -0.170975806973     0.346382912253
    H           -1.646128178651    -1.164701982252    -0.045255564017
    H           -1.690976571107     0.571056466303    -0.316861552045
    C           -0.004346848101     0.064328232902     1.836926539644
    H            0.815714785251    -1.068777804371     0.207295834133
    H            0.802313697823     0.650307301086    -0.067686479388
    C            1.289018154327     0.276029572487     2.635802590169
    H           -0.561417953991    -0.768735325267     2.253984682870
    H           -0.646310835847     0.932412119798     1.968035391403
    C            1.744287523033     1.733843975389     2.677613644989
    H            2.084392330210    -0.318016874270     2.195412108387
    H            1.154469551629    -0.080041508097     3.650775798141
    H            1.896690064993     2.132711268935     1.680405901319
    H            2.679536238151     1.835418172074     3.216046133166
    H            1.007776636309     2.357568569772     3.172819844067
    H           -1.827159323309     0.994545651055    -2.911565311422
    H           -0.467610277502     0.310074926018    -3.809779107837
    H           -0.196267898616     1.397759380494    -2.436176235281

  Mulliken Charges: (a.u.)
   Center  Symbol    Alpha    Beta     Spin     Total
       1     O     4.17769  4.17769  0.00000 -0.35538
       2     C     2.85806  2.85806  0.00000  0.28388
       3     C     3.09855  3.09855  0.00000 -0.19710
       4     C     3.15523  3.15523  0.00000 -0.31047
       5     C     3.10148  3.10148  0.00000 -0.20296
       6     H     0.43897  0.43897  0.00000  0.12207
       7     H     0.44871  0.44871  0.00000  0.10258
       8     C     3.09635  3.09635  0.00000 -0.19269
       9     H     0.44017  0.44017  0.00000  0.11965
      10     H     0.45131  0.45131  0.00000  0.09739
      11     C     3.09120  3.09120  0.00000 -0.18240
      12     H     0.44467  0.44467  0.00000  0.11067
      13     H     0.45590  0.45590  0.00000  0.08821
      14     C     3.14799  3.14799  0.00000 -0.29597
      15     H     0.45382  0.45382  0.00000  0.09237
      16     H     0.44621  0.44621  0.00000  0.10759
      17     H     0.45649  0.45649  0.00000  0.08702
      18     H     0.44698  0.44698  0.00000  0.10603
      19     H     0.45492  0.45492  0.00000  0.09015
      20     H     0.44827  0.44827  0.00000  0.10346
      21     H     0.43599  0.43599  0.00000  0.12802
      22     H     0.45106  0.45106  0.00000  0.09788

   Total alpha = 32.00000, Total beta = 32.00000, Total charge =  0.00000

*** Psi4 exiting successfully. Buy a developer a beer!
