                              Psi4 1.0.54 Driver

  ==> Input File <==

--------------------------------------------------------------------------
set {
	reference rhf
	basis cc-pvtz
}

set_num_threads( 4 )
memory 2 gb

molecule MOL {
0 1

H	 -3.401682	 -1.036167	 0.000000
O	 -3.113760	 -0.140926	 0.000000
C	 -1.775087	 -0.058754	 0.000000
C	 -0.967418	 -1.170653	 0.204415
C	 -1.210331	 1.187740	 -0.213276
H	 -1.412966	 -2.134374	 0.369212
C	 0.400035	 -1.030413	 0.194506
H	 -1.851155	 2.032233	 -0.368826
C	 0.160702	 1.311215	 -0.220196
H	 1.034102	 -1.880465	 0.350962
C	 0.981216	 0.212001	 -0.017875
H	 0.599923	 2.277784	 -0.385563
C	 2.447560	 0.368717	 -0.029615
O	 3.226711	 -0.510190	 0.133486
H	 2.797641	 1.391550	 -0.205847

	symmetry c1
}
set optking {
	frozen_dihedral = ("
		5 3 2 1
	")
}

ee,wfn = optimize('scf', return_wfn=True)
oeprop( wfn, 'DIPOLE', 'QUADRUPOLE', 'MULLIKEN_CHARGES')
f=open( 'psi4out.xyz', 'w' )
f.write( "15  " )
f.write( str(ee) + "\n" )
f.write( MOL.save_string_xyz() )
f.close()
--------------------------------------------------------------------------

    Molecular point group: c1
  Charge       = 0
  Multiplicity = 1
  Basis Set: CC-PVTZ
  Basis Set:
  @DF-RHF Final Energy:  -418.44246155039031
    Total Energy =                       -418.4424615503902487
    Molecular point group: c1
  Basis Set: CC-PVTZ
  Basis Set:
  Basis Set: CC-PVTZ
  Basis Set:
  @DF-RHF Final Energy:  -418.44246513171976
    Total Energy =                       -418.4424651317198141
  Basis Set: CC-PVTZ
  Basis Set:
  Charge       = 0
  Multiplicity = 1
  Basis Set: CC-PVTZ
  Basis Set:

    Orbital Energies (a.u.)
    -----------------------

    Doubly Occupied:

       1A    -20.604437     2A    -20.545619     3A    -11.322779
       4A    -11.322388     5A    -11.258275     6A    -11.254651
       7A    -11.242382     8A    -11.236947     9A    -11.236676
      10A     -1.437556    11A     -1.401865    12A     -1.175293
      13A     -1.044911    14A     -1.042484    15A     -0.892049
      16A     -0.870874    17A     -0.797514    18A     -0.762501
      19A     -0.717773    20A     -0.670863    21A     -0.646682
      22A     -0.631441    23A     -0.616601    24A     -0.610722
      25A     -0.585487    26A     -0.562453    27A     -0.555431
      28A     -0.509009    29A     -0.490283    30A     -0.421657
      31A     -0.362531    32A     -0.331880

  @DF-RHF Final Energy:  -418.44246600270657

   => Energetics <=

    Nuclear Repulsion Energy =            402.2955709228688761
    One-Electron Energy =               -1367.1520407357961631
    Two-Electron Energy =                 546.4140038102204926
    DFT Exchange-Correlation Energy =       0.0000000000000000
    Empirical Dispersion Energy =           0.0000000000000000
    PCM Polarization Energy =               0.0000000000000000
    EFP Energy =                            0.0000000000000000
    Total Energy =                       -418.4424660027068512
    Molecular point group: c1
  Basis Set: CC-PVTZ
  Basis Set:

  -Total Gradient:
     Atom            X                  Y                   Z
    ------   -----------------  -----------------  -----------------
       1       -0.000009876856    -0.000019825408    -0.001324721074
       2        0.000032893349    -0.000046835321     0.001225478549
       3       -0.000042657254     0.000090253850     0.001080721201
       4       -0.000120855581     0.000039715340    -0.000077204694
       5        0.000152157859    -0.000080239285    -0.000934482488
       6        0.000006188900     0.000002147359     0.000019261098
       7        0.000099690806     0.000089335316     0.000021174103
       8       -0.000014170896    -0.000006502478    -0.000010984489
       9       -0.000132775312     0.000062202088    -0.000019885775
      10       -0.000002906949    -0.000011659916    -0.000008816286
      11        0.000029805023    -0.000128138936     0.000021478609
      12        0.000009570465     0.000001997009    -0.000000045235
      13       -0.000026839030     0.000034058703     0.000028302171
      14        0.000018648272    -0.000028065481    -0.000007303605
      15        0.000001127217     0.000001557160    -0.000012972086

  **** Optimization is complete! (in 3 steps) ****
    Final optimized geometry and variables:
    Molecular point group: c1

    Geometry (in Angstrom), charge = 0, multiplicity = 1:

    H           -3.401393353551    -1.036409417090     0.002574094670
    O           -3.114212547070    -0.140761805321     0.000486806051
    C           -1.775137673999    -0.058281311987    -0.004354898961
    C           -0.967441260839    -1.171051913033     0.197458204774
    C           -1.210232712403     1.187099627410    -0.220936629043
    H           -1.413821045311    -2.133636234710     0.366631130542
    C            0.399809629033    -1.031795066576     0.184666845710
    H           -1.850512492705     2.031602543635    -0.379079098142
    C            0.161263984001     1.310595388946    -0.226745093847
    H            1.033673136168    -1.882400312782     0.339394715311
    C            0.981230094684     0.211086279707    -0.026417620560
    H            0.600544987960     2.276917889795    -0.393653098389
    C            2.447847962009     0.367650934034    -0.040196544588
    O            3.226981738179    -0.511692386558     0.119524558251
    H            2.797178619160     1.391162709725    -0.214946629957

  Mulliken Charges: (a.u.)
   Center  Symbol    Alpha    Beta     Spin     Total
       1     H     0.38507  0.38507  0.00000  0.22986
       2     O     4.16696  4.16696  0.00000 -0.33391
       3     C     2.84511  2.84511  0.00000  0.30978
       4     C     3.13190  3.13190  0.00000 -0.26380
       5     C     3.10864  3.10864  0.00000 -0.21728
       6     H     0.43041  0.43041  0.00000  0.13918
       7     C     3.06663  3.06663  0.00000 -0.13327
       8     H     0.41652  0.41652  0.00000  0.16696
       9     C     3.06607  3.06607  0.00000 -0.13214
      10     H     0.40709  0.40709  0.00000  0.18582
      11     C     3.00378  3.00378  0.00000 -0.00757
      12     H     0.42138  0.42138  0.00000  0.15723
      13     C     2.91084  2.91084  0.00000  0.17832
      14     O     4.17904  4.17904  0.00000 -0.35807
      15     H     0.46055  0.46055  0.00000  0.07889

   Total alpha = 32.00000, Total beta = 32.00000, Total charge = -0.00000

*** Psi4 exiting successfully. Buy a developer a beer!
