                              Psi4 1.0.54 Driver

  ==> Input File <==

--------------------------------------------------------------------------
set {
	reference rhf
	basis cc-pvtz
}

set_num_threads( 4 )
memory 2 gb

molecule MOL {
0 1

H	 -3.562218	 0.456093	 0.264644
O	 -3.096013	 -0.305898	 -0.029257
C	 -1.770097	 -0.105146	 -0.008227
C	 -1.212328	 1.098235	 0.405540
C	 -0.958019	 -1.149629	 -0.417822
H	 -1.848891	 1.903926	 0.721888
C	 0.153835	 1.250841	 0.407580
H	 -1.408431	 -2.069278	 -0.733092
C	 0.408147	 -0.980659	 -0.409861
H	 0.596482	 2.174271	 0.724520
C	 0.981121	 0.213562	 0.000000
H	 1.039121	 -1.790315	 -0.727426
C	 2.447402	 0.371303	 0.000000
O	 3.227427	 -0.521847	 0.000000
H	 2.796538	 1.409525	 0.000000

	symmetry c1
}
set optking {
	frozen_dihedral = ("
		7 11 13 14
	")
}

ee,wfn = optimize('scf', return_wfn=True)
oeprop( wfn, 'DIPOLE', 'QUADRUPOLE', 'MULLIKEN_CHARGES')
f=open( 'psi4out.xyz', 'w' )
f.write( "15  " )
f.write( str(ee) + "\n" )
f.write( MOL.save_string_xyz() )
f.close()
--------------------------------------------------------------------------

    Molecular point group: c1
  Charge       = 0
  Multiplicity = 1
  Basis Set: CC-PVTZ
  Basis Set:
  @DF-RHF Final Energy:  -418.44059400844509
    Total Energy =                       -418.4405940084450322
    Molecular point group: c1
  Basis Set: CC-PVTZ
  Basis Set:
  Basis Set: CC-PVTZ
  Basis Set:
  @DF-RHF Final Energy:  -418.43999658369324
    Total Energy =                       -418.4399965836935280
  Basis Set: CC-PVTZ
  Basis Set:
  Basis Set: CC-PVTZ
  Basis Set:
  @DF-RHF Final Energy:  -418.44084351270533
    Total Energy =                       -418.4408435127051007
  Basis Set: CC-PVTZ
  Basis Set:
  Basis Set: CC-PVTZ
  Basis Set:
  @DF-RHF Final Energy:  -418.44114476231744
    Total Energy =                       -418.4411447623174354
  Basis Set: CC-PVTZ
  Basis Set:
  Basis Set: CC-PVTZ
  Basis Set:
  @DF-RHF Final Energy:  -418.44115410001837
    Total Energy =                       -418.4411541000184798
  Basis Set: CC-PVTZ
  Basis Set:
  Charge       = 0
  Multiplicity = 1
  Basis Set: CC-PVTZ
  Basis Set:

    Orbital Energies (a.u.)
    -----------------------

    Doubly Occupied:

       1A    -20.604474     2A    -20.546756     3A    -11.323263
       4A    -11.321950     5A    -11.260244     6A    -11.251846
       7A    -11.242284     8A    -11.237378     9A    -11.236076
      10A     -1.437583    11A     -1.402805    12A     -1.175053
      13A     -1.046410    14A     -1.040176    15A     -0.897042
      16A     -0.861657    17A     -0.806112    18A     -0.761361
      19A     -0.699444    20A     -0.691019    21A     -0.643271
      22A     -0.629702    23A     -0.614901    24A     -0.611466
      25A     -0.588818    26A     -0.562060    27A     -0.552776
      28A     -0.509149    29A     -0.490772    30A     -0.421907
      31A     -0.361628    32A     -0.331706

  @DF-RHF Final Energy:  -418.44115630427609

   => Energetics <=

    Nuclear Repulsion Energy =            402.3061235107834364
    One-Electron Energy =               -1367.1723752914126635
    Two-Electron Energy =                 546.4250954763533628
    DFT Exchange-Correlation Energy =       0.0000000000000000
    Empirical Dispersion Energy =           0.0000000000000000
    PCM Polarization Energy =               0.0000000000000000
    EFP Energy =                            0.0000000000000000
    Total Energy =                       -418.4411563042758644
    Molecular point group: c1
  Basis Set: CC-PVTZ
  Basis Set:

  -Total Gradient:
     Atom            X                  Y                   Z
    ------   -----------------  -----------------  -----------------
       1        0.000003746199    -0.000002614308    -0.000004203057
       2       -0.000009020780     0.000007533195     0.000004804028
       3        0.000023745883    -0.000047723959     0.000002464460
       4        0.000015476950     0.000060070610    -0.000035516700
       5       -0.000026431944     0.000033839049     0.000050041332
       6       -0.000006344953    -0.000008209440    -0.000007924198
       7        0.000009692067    -0.001327437680     0.003349575187
       8        0.000009517815    -0.000006697134    -0.000003684530
       9       -0.000026069668     0.000075556490    -0.000064288468
      10       -0.000013768720     0.000015625548    -0.000011913112
      11       -0.000055917952     0.001680843196    -0.002839213924
      12        0.000005079404    -0.000004765505     0.000022462884
      13        0.000128299856    -0.000291700802    -0.004840607205
      14       -0.000078964948    -0.000247573053     0.004346877275
      15        0.000020960785     0.000063253788     0.000031126029

  **** Optimization is complete! (in 6 steps) ****
    Final optimized geometry and variables:
    Molecular point group: c1

    Geometry (in Angstrom), charge = 0, multiplicity = 1:

    H           -3.565193148404     0.471560007402     0.302731623731
    O           -3.097612528696    -0.287580877934     0.003341723838
    C           -1.772860174543    -0.077651084099     0.007604703457
    C           -1.213876779954     1.121547858402     0.409113881333
    C           -0.960825537935    -1.126748787830    -0.412081852446
    H           -1.842317498890     1.927628660530     0.739707934031
    C            0.159296909424     1.271629711931     0.380301137700
    H           -1.418374193176    -2.047213147021    -0.715368148047
    C            0.400268587813    -0.966905753803    -0.420847566993
    H            0.591574447228     2.205751582347     0.688790206877
    C            0.978295275932     0.241155857634    -0.037537028539
    H            1.038133908642    -1.773403047313    -0.724364800377
    C            2.445256262383     0.397371771804     0.017890227908
    O            3.222288415549    -0.497585682102     0.013168576124
    H            2.794137831328     1.432208705542     0.107974441123

  Mulliken Charges: (a.u.)
   Center  Symbol    Alpha    Beta     Spin     Total
       1     H     0.38577  0.38577  0.00000  0.22846
       2     O     4.16609  4.16609  0.00000 -0.33217
       3     C     2.84468  2.84468  0.00000  0.31063
       4     C     3.13485  3.13485  0.00000 -0.26970
       5     C     3.10551  3.10551  0.00000 -0.21102
       6     H     0.43222  0.43222  0.00000  0.13556
       7     C     3.07493  3.07493  0.00000 -0.14986
       8     H     0.41564  0.41564  0.00000  0.16873
       9     C     3.06140  3.06140  0.00000 -0.12279
      10     H     0.42141  0.42141  0.00000  0.15719
      11     C     2.99735  2.99735  0.00000  0.00531
      12     H     0.40860  0.40860  0.00000  0.18280
      13     C     2.91490  2.91490  0.00000  0.17019
      14     O     4.17570  4.17570  0.00000 -0.35139
      15     H     0.46097  0.46097  0.00000  0.07807

   Total alpha = 32.00000, Total beta = 32.00000, Total charge = -0.00000

*** Psi4 exiting successfully. Buy a developer a beer!
