  ==> Input File <==

--------------------------------------------------------------------------
set {
	reference rhf
	basis 6-31G*
}

set_num_threads( 1 )
memory 2 gb

molecule MOL {
0 1

H	 2.079545	 -0.102109	 2.293588
O	 1.384626	 0.444881	 1.956573
C	 1.135793	 0.118896	 0.612333
C	 0.031547	 1.023609	 0.088541
H	 0.820455	 -0.919238	 0.524412
H	 2.039708	 0.233528	 0.018280
C	 -1.134819	 0.293262	 -0.585751
H	 0.474374	 1.714721	 -0.623187
H	 -0.338529	 1.620940	 0.920081
C	 -1.917817	 -0.639439	 0.339494
H	 -0.758119	 -0.268455	 -1.433105
H	 -1.813832	 1.041889	 -0.986690
H	 -2.777680	 -1.057197	 -0.174994
H	 -1.310268	 -1.471279	 0.680599
H	 -2.283753	 -0.111424	 1.216626

	symmetry c1
}
set optking {
	frozen_dihedral = ("
		8 4 7 11,
		1 2 3 4
	")
}

ee = energy('scf')
oeprop('DIPOLE', 'QUADRUPOLE', 'MULLIKEN_CHARGES')
f=open( 'psi4out.xyz', 'w' )
f.write( "15  " )
f.write( str(ee) + "\n" )
f.write( MOL.save_string_xyz() )
f.close()
--------------------------------------------------------------------------

    Molecular point group: c1

    Geometry (in Angstrom), charge = 0, multiplicity = 1:

       Center              X                  Y                   Z               Mass
    ------------   -----------------  -----------------  -----------------  -----------------
           H          2.138607473599    -0.336451321054     1.764310078098     1.007825032070
           O          1.443688473599     0.210538678946     1.427295078098    15.994914619560
           C          1.194855473599    -0.115446321054     0.083055078098    12.000000000000
           C          0.090609473599     0.789266678946    -0.440736921902    12.000000000000
           H          0.879517473599    -1.153580321054    -0.004865921902     1.007825032070
           H          2.098770473599    -0.000814321054    -0.510997921902     1.007825032070
           C         -1.075756526401     0.058919678946    -1.115028921902    12.000000000000
           H          0.533436473599     1.480378678946    -1.152464921902     1.007825032070
           H         -0.279466526401     1.386597678946     0.390803078098     1.007825032070
           C         -1.858754526401    -0.873781321054    -0.189783921902    12.000000000000
           H         -0.699056526401    -0.502797321054    -1.962382921902     1.007825032070
           H         -1.754769526401     0.807546678946    -1.515967921902     1.007825032070
           H         -2.718617526401    -1.291539321054    -0.704271921902     1.007825032070
           H         -1.251205526401    -1.705621321054     0.151321078098     1.007825032070
           H         -2.224690526401    -0.345766321054     0.687348078098     1.007825032070

  Charge       = 0
  Multiplicity = 1
  Basis Set: 6-31G*
  Basis Set:

    Orbital Energies (a.u.)
    -----------------------

    Doubly Occupied:

       1A    -20.551588     2A    -11.265678     3A    -11.216524
       4A    -11.209643     5A    -11.207368     6A     -1.358141
       7A     -1.068239     8A     -0.969642     9A     -0.868299
      10A     -0.782442    11A     -0.697860    12A     -0.649930
      13A     -0.617584    14A     -0.571836    15A     -0.555056
      16A     -0.540625    17A     -0.505156    18A     -0.476806
      19A     -0.469582    20A     -0.456013    21A     -0.427551

  @DF-RHF Final Energy:  -232.13727491062093

   => Energetics <=

    Nuclear Repulsion Energy =            189.7886348599517419
    One-Electron Energy =                -690.9205632652940494
    Two-Electron Energy =                 268.9946534947205805
    DFT Exchange-Correlation Energy =       0.0000000000000000
    Empirical Dispersion Energy =           0.0000000000000000
    PCM Polarization Energy =               0.0000000000000000
    EFP Energy =                            0.0000000000000000
    Total Energy =                       -232.1372749106217270

  Mulliken Charges: (a.u.)
   Center  Symbol    Alpha    Beta     Spin     Total
       1     H     0.28217  0.28217  0.00000  0.43565
       2     O     4.37092  4.37092  0.00000 -0.74184
       3     C     2.99529  2.99529  0.00000  0.00942
       4     C     3.16609  3.16609  0.00000 -0.33218
       5     H     0.43045  0.43045  0.00000  0.13911
       6     H     0.42991  0.42991  0.00000  0.14018
       7     C     3.15957  3.15957  0.00000 -0.31915
       8     H     0.41932  0.41932  0.00000  0.16137
       9     H     0.40430  0.40430  0.00000  0.19141
      10     C     3.24003  3.24003  0.00000 -0.48007
      11     H     0.42420  0.42420  0.00000  0.15160
      12     H     0.41954  0.41954  0.00000  0.16091
      13     H     0.41962  0.41962  0.00000  0.16077
      14     H     0.42073  0.42073  0.00000  0.15854
      15     H     0.41786  0.41786  0.00000  0.16428

   Total alpha = 21.00000, Total beta = 21.00000, Total charge =  0.00000
