  ==> Input File <==

--------------------------------------------------------------------------
set {
	reference rhf
	basis cc-pvtz
}

set_num_threads( 4 )
memory 2 gb

molecule MOL {
0 1

H	 -0.915085	 -1.058959	 -0.860605
N	 -0.625934	 -0.663929	 -0.000707
C	 -1.392054	 -0.966067	 1.185407
C	 0.468494	 0.129045	 -0.002160
H	 -2.417069	 -0.630707	 1.081167
H	 -0.941733	 -0.455324	 2.019341
H	 -1.393662	 -2.030826	 1.386214
C	 1.785715	 -0.615093	 0.000603
O	 0.413285	 1.323206	 0.000532
H	 1.866994	 -1.243310	 -0.878792
H	 2.591506	 0.100263	 0.006422
H	 1.860358	 -1.250360	 0.875522

	symmetry c1
}
set optking {
	frozen_dihedral = ("
		3 2 4 9
	")
}

ee = optimize('scf')
oeprop('DIPOLE', 'QUADRUPOLE', 'MULLIKEN_CHARGES')
f=open( 'psi4out.xyz', 'w' )
f.write( "12  " )
f.write( str(ee) + "\n" )
f.write( MOL.save_string_xyz() )
f.close()
--------------------------------------------------------------------------

    Molecular point group: c1
  Charge       = 0
  Multiplicity = 1
  Basis Set: CC-PVTZ
  Basis Set:
  @DF-RHF Final Energy:  -247.06057807962725
    Total Energy =                       -247.0605780796272484
    Molecular point group: c1
  Basis Set: CC-PVTZ
  Basis Set:
  Basis Set: CC-PVTZ
  Basis Set:
  @DF-RHF Final Energy:  -247.06418710957442
    Total Energy =                       -247.0641871095744477
  Basis Set: CC-PVTZ
  Basis Set:
  Basis Set: CC-PVTZ
  Basis Set:
  @DF-RHF Final Energy:  -247.06590612580845
    Total Energy =                       -247.0659061258087377
  Basis Set: CC-PVTZ
  Basis Set:
  Basis Set: CC-PVTZ
  Basis Set:
  @DF-RHF Final Energy:  -247.06912524195857
    Total Energy =                       -247.0691252419584316
  Basis Set: CC-PVTZ
  Basis Set:
  @DF-RHF Final Energy:  -247.07205428796809
    Total Energy =                       -247.0720542879680579
  @DF-RHF Final Energy:  -247.07173192559065
    Total Energy =                       -247.0717319255906546
  @DF-RHF Final Energy:  -247.07670465757161
    Total Energy =                       -247.0767046575716677
  @DF-RHF Final Energy:  -247.07760185450752
    Total Energy =                       -247.0776018545076909
  @DF-RHF Final Energy:  -247.07855763356343
    Total Energy =                       -247.0785576335633777
  Basis Set: CC-PVTZ
  Basis Set:
  @DF-RHF Final Energy:  -247.07906275152715
    Total Energy =                       -247.0790627515272035
  Basis Set: CC-PVTZ
  Basis Set:
  Basis Set: CC-PVTZ
  Basis Set:
  @DF-RHF Final Energy:  -247.07928863963559
    Total Energy =                       -247.0792886396355925
  Basis Set: CC-PVTZ
  Basis Set:
  Basis Set: CC-PVTZ
  Basis Set:
  @DF-RHF Final Energy:  -247.07929972499986
    Total Energy =                       -247.0792997249998280
  Basis Set: CC-PVTZ
  Basis Set:
  Charge       = 0
  Multiplicity = 1
  Basis Set: CC-PVTZ
  Basis Set:

    Orbital Energies (a.u.)
    -----------------------

    Doubly Occupied:

       1A    -20.533913     2A    -15.563486     3A    -11.344506
       4A    -11.259559     5A    -11.235588     6A     -1.407896
       7A     -1.224502     8A     -1.015174     9A     -0.930874
      10A     -0.770630    11A     -0.692442    12A     -0.653986
      13A     -0.636107    14A     -0.602034    15A     -0.582884
      16A     -0.564962    17A     -0.547946    18A     -0.507134
      19A     -0.431904    20A     -0.398183

  @DF-RHF Final Energy:  -247.07930049911076

   => Energetics <=

    Nuclear Repulsion Energy =            180.9803171766554044
    One-Electron Energy =                -694.3118145819282745
    Two-Electron Energy =                 266.2521969061621121
    DFT Exchange-Correlation Energy =       0.0000000000000000
    Empirical Dispersion Energy =           0.0000000000000000
    PCM Polarization Energy =               0.0000000000000000
    EFP Energy =                            0.0000000000000000
    Total Energy =                       -247.0793004991107864
    Molecular point group: c1
  Basis Set: CC-PVTZ
  Basis Set:

  -Total Gradient:
     Atom            X                  Y                   Z
    ------   -----------------  -----------------  -----------------
       1       -0.000022383985     0.000007228467     0.000034507758
       2       -0.005518608442     0.013148537676    -0.004735956153
       3        0.004008126715    -0.008223339996    -0.000270692720
       4        0.000987369883    -0.008056300824     0.016621584009
       5        0.000003068818    -0.000002869508    -0.000002948397
       6        0.000007474197    -0.000003368804    -0.000021154608
       7       -0.000008809303     0.000003854843     0.000006349424
       8       -0.000017151888     0.000024670074    -0.000037270319
       9        0.000566409276     0.003109465797    -0.011608428780
      10       -0.000000321047     0.000004091562     0.000009547400
      11       -0.000003252074    -0.000001369961    -0.000003430095
      12       -0.000001922149    -0.000010599325     0.000007892482

  **** Optimization is complete! (in 13 steps) ****
    Final optimized geometry and variables:
    Molecular point group: c1

    Geometry (in Angstrom), charge = 0, multiplicity = 1:

    H           -0.740572618563    -1.135315727094    -0.955811753709
    N           -0.864711060319    -0.324254920959    -0.387995145868
    C           -1.578148089413    -0.727554052012     0.823488584196
    C            0.386476036271     0.281828398012    -0.165836946654
    H           -2.527650985087    -1.159640022023     0.541631406739
    H           -1.770574379774     0.142362248402     1.433638170589
    H           -1.029413008190    -1.455016513084     1.417385227551
    C            1.599330752532    -0.568671154962    -0.463552863032
    O            0.476309801209     1.420473475866     0.143000165214
    H            1.558656539014    -0.919430066608    -1.489439239918
    H            2.498284325545     0.008182729627    -0.317121302880
    H            1.612563990278    -1.441527053797     0.180040700322

  Mulliken Charges: (a.u.)
   Center  Symbol    Alpha    Beta     Spin     Total
       1     H     0.43986  0.43986  0.00000  0.12028
       2     N     3.61725  3.61725  0.00000 -0.23449
       3     C     3.08680  3.08680  0.00000 -0.17360
       4     C     2.83576  2.83576  0.00000  0.32848
       5     H     0.44821  0.44821  0.00000  0.10359
       6     H     0.44056  0.44056  0.00000  0.11888
       7     H     0.46889  0.46889  0.00000  0.06221
       8     C     3.15246  3.15246  0.00000 -0.30492
       9     O     4.17463  4.17463  0.00000 -0.34926
      10     H     0.45136  0.45136  0.00000  0.09727
      11     H     0.43566  0.43566  0.00000  0.12869
      12     H     0.44856  0.44856  0.00000  0.10288

   Total alpha = 20.00000, Total beta = 20.00000, Total charge = -0.00000
