                              Psi4 1.0.54 Driver

  ==> Input File <==

--------------------------------------------------------------------------
set {
	reference rhf
	basis cc-pvtz
}

set_num_threads( 4 )
memory 2 gb

molecule MOL {
0 1

O	 -2.331100	 0.638639	 1.721408
C	 -2.406382	 -0.223412	 0.912937
C	 -3.571784	 -1.169366	 0.806674
O	 -1.481217	 -0.452708	 0.001092
H	 -4.472304	 -0.590070	 0.653181
H	 -3.445769	 -1.875301	 0.001431
H	 -3.674811	 -1.694919	 1.746490
C	 -0.332055	 0.384012	 -0.000250
C	 0.892252	 -0.506059	 -0.000295
H	 -0.360822	 1.020205	 -0.874146
H	 -0.359817	 1.021310	 0.872861
C	 2.188199	 0.299473	 -0.001416
H	 0.857046	 -1.152781	 -0.871031
H	 0.857910	 -1.151798	 0.871202
C	 3.437151	 -0.577593	 -0.000991
H	 2.209565	 0.950707	 -0.871712
H	 2.210062	 0.952234	 0.867721
C	 4.732399	 0.226982	 -0.000914
H	 3.417321	 -1.229122	 -0.869998
H	 3.416993	 -1.228707	 0.868337
H	 4.797903	 0.863451	 -0.876963
H	 5.598517	 -0.424436	 -0.000420
H	 4.797415	 0.864118	 0.874691

	symmetry c1
}
set optking {
	frozen_dihedral = ("
		2 4 8 10
	")
}

ee,wfn = optimize('scf', return_wfn=True)
oeprop( wfn, 'DIPOLE', 'QUADRUPOLE', 'MULLIKEN_CHARGES')
f=open( 'psi4out.xyz', 'w' )
f.write( "23  " )
f.write( str(ee) + "\n" )
f.write( MOL.save_string_xyz() )
f.close()
--------------------------------------------------------------------------

    Molecular point group: c1
  Charge       = 0
  Multiplicity = 1
  Basis Set: CC-PVTZ
  Basis Set:
  @DF-RHF Final Energy:  -423.13212870708230
    Total Energy =                       -423.1321287070820745
    Molecular point group: c1
  Basis Set: CC-PVTZ
  Basis Set:
  Basis Set: CC-PVTZ
  Basis Set:
  @DF-RHF Final Energy:  -423.13122908194242
    Total Energy =                       -423.1312290819431610
  Basis Set: CC-PVTZ
  Basis Set:
  Basis Set: CC-PVTZ
  Basis Set:
  @DF-RHF Final Energy:  -423.13261281991311
    Total Energy =                       -423.1326128199132199
  Basis Set: CC-PVTZ
  Basis Set:
  Basis Set: CC-PVTZ
  Basis Set:
  @DF-RHF Final Energy:  -423.13182770706288
    Total Energy =                       -423.1318277070632803
  Basis Set: CC-PVTZ
  Basis Set:
  Basis Set: CC-PVTZ
  Basis Set:
  @DF-RHF Final Energy:  -423.13290068807754
    Total Energy =                       -423.1329006880780526
  Basis Set: CC-PVTZ
  Basis Set:
  Basis Set: CC-PVTZ
  Basis Set:
  @DF-RHF Final Energy:  -423.13290305428109
    Total Energy =                       -423.1329030542813143
  Basis Set: CC-PVTZ
  Basis Set:
  Charge       = 0
  Multiplicity = 1
  Basis Set: CC-PVTZ
  Basis Set:

    Orbital Energies (a.u.)
    -----------------------

    Doubly Occupied:

       1A    -20.594934     2A    -20.528860     3A    -11.367799
       4A    -11.278018     5A    -11.230097     6A    -11.222040
       7A    -11.221100     8A    -11.219230     9A    -11.210688
      10A     -1.468610    11A     -1.364529    12A     -1.094760
      13A     -1.042963    14A     -1.003700    15A     -0.932359
      16A     -0.846101    17A     -0.801287    18A     -0.774268
      19A     -0.699502    20A     -0.683373    21A     -0.664561
      22A     -0.649553    23A     -0.606906    24A     -0.588625
      25A     -0.586175    26A     -0.572228    27A     -0.553649
      28A     -0.539485    29A     -0.523919    30A     -0.507924
      31A     -0.490416    32A     -0.479052    33A     -0.473827
      34A     -0.470856    35A     -0.445942    36A     -0.437374

  @DF-RHF Final Energy:  -423.13290325044619

   => Energetics <=

    Nuclear Repulsion Energy =            451.6121999571025185
    One-Electron Energy =               -1471.1407738858229095
    Two-Electron Energy =                 596.3956706782739730
    DFT Exchange-Correlation Energy =       0.0000000000000000
    Empirical Dispersion Energy =           0.0000000000000000
    PCM Polarization Energy =               0.0000000000000000
    EFP Energy =                            0.0000000000000000
    Total Energy =                       -423.1329032504463612
    Molecular point group: c1
  Basis Set: CC-PVTZ
  Basis Set:

  -Total Gradient:
     Atom            X                  Y                   Z
    ------   -----------------  -----------------  -----------------
       1        0.000001123855    -0.000007187899    -0.000020781384
       2        0.000226368085    -0.000254415381     0.000280592499
       3       -0.000004976246     0.000010704726    -0.000007215636
       4       -0.000249596997     0.000268613591    -0.000454892594
       5       -0.000000648851    -0.000002392504     0.000002952786
       6       -0.000000000108     0.000008416920     0.000006048537
       7       -0.000000309239    -0.000004287130     0.000001882803
       8       -0.000207623970     0.000320543178     0.000366119096
       9        0.000006514957     0.000005326411    -0.000000054376
      10        0.000230397967    -0.000347917367    -0.000186408827
      11        0.000003579460     0.000000555402    -0.000000168908
      12       -0.000002709531    -0.000002392497     0.000009034170
      13       -0.000001261097     0.000002038488     0.000003025679
      14       -0.000000270413     0.000004550995    -0.000000443867
      15        0.000001751676    -0.000001909603    -0.000000820258
      16        0.000000459136    -0.000000402782     0.000006658569
      17       -0.000000490304    -0.000001111180     0.000005867720
      18       -0.000001811084     0.000000435220    -0.000009358104
      19        0.000000614220    -0.000003440904     0.000001262112
      20       -0.000001282255     0.000008241174    -0.000002004635
      21        0.000002077852     0.000000265755     0.000000866726
      22        0.000000636208    -0.000000567536    -0.000001762287
      23       -0.000002543322    -0.000003667076    -0.000000399818

  **** Optimization is complete! (in 7 steps) ****
    Final optimized geometry and variables:
    Molecular point group: c1

    Geometry (in Angstrom), charge = 0, multiplicity = 1:

    O           -2.541495205120     0.944592692223     1.220257903430
    C           -2.554696753353     0.001790912644     0.504118947803
    C           -3.698182430191    -0.975295087954     0.443485324294
    O           -1.581124601056    -0.317217436914    -0.328602859372
    H           -4.597318504756    -0.435035846436     0.179091050062
    H           -3.518171726223    -1.763848889616    -0.269407385807
    H           -3.844301773691    -1.394027026630     1.430185667023
    C           -0.411301355138     0.490116513857    -0.397990199403
    C            0.811882581496    -0.398481499405    -0.288383246812
    H           -0.433060162363     0.996812843039    -1.354381790872
    H           -0.436820808135     1.228708470316     0.385480598065
    C            2.109771918133     0.391975275981    -0.426262429727
    H            0.761428340785    -1.165904324782    -1.054042240003
    H            0.789246407180    -0.908340349637     0.669795687629
    C            3.356797741923    -0.480880766202    -0.316454612746
    H            2.119222433825     0.908613735647    -1.383096175038
    H            2.145969566420     1.164743353740     0.337586039634
    C            4.653346567203     0.309195892740    -0.456987209402
    H            3.321062022313    -1.254051036028    -1.078809870549
    H            3.350141243796    -0.995600837754     0.640143617389
    H            4.705454496245     0.808431217087    -1.418808838000
    H            5.518039249459    -0.338892622111    -0.374010892927
    H            4.734277621478     1.068795672728     0.313304233577

  Mulliken Charges: (a.u.)
   Center  Symbol    Alpha    Beta     Spin     Total
       1     O     4.20326  4.20326  0.00000 -0.40652
       2     C     2.80749  2.80749  0.00000  0.38501
       3     C     3.14292  3.14292  0.00000 -0.28584
       4     O     4.15209  4.15209  0.00000 -0.30417
       5     H     0.44214  0.44214  0.00000  0.11571
       6     H     0.44212  0.44212  0.00000  0.11576
       7     H     0.44250  0.44250  0.00000  0.11501
       8     C     2.98640  2.98640  0.00000  0.02719
       9     C     3.08434  3.08434  0.00000 -0.16868
      10     H     0.45192  0.45192  0.00000  0.09616
      11     H     0.44097  0.44097  0.00000  0.11806
      12     C     3.09869  3.09869  0.00000 -0.19738
      13     H     0.45022  0.45022  0.00000  0.09956
      14     H     0.45163  0.45163  0.00000  0.09674
      15     C     3.08468  3.08468  0.00000 -0.16936
      16     H     0.45403  0.45403  0.00000  0.09193
      17     H     0.45124  0.45124  0.00000  0.09752
      18     C     3.14978  3.14978  0.00000 -0.29956
      19     H     0.45367  0.45367  0.00000  0.09266
      20     H     0.45306  0.45306  0.00000  0.09389
      21     H     0.45494  0.45494  0.00000  0.09012
      22     H     0.44766  0.44766  0.00000  0.10467
      23     H     0.45424  0.45424  0.00000  0.09152

   Total alpha = 36.00000, Total beta = 36.00000, Total charge =  0.00000

*** Psi4 exiting successfully. Buy a developer a beer!
