  ==> Input File <==

--------------------------------------------------------------------------
set {
	reference rhf
	basis 6-31G*
}

set_num_threads( 4 )
memory 2 gb

molecule MOL {
0 1

H	 -2.853265	 -0.542794	 1.059176
C	 -2.734409	 -0.390949	 -0.011785
O	 -1.392607	 -0.295399	 -0.366433
H	 -3.150003	 -1.241562	 -0.534165
H	 -3.288917	 0.502057	 -0.297247
C	 -0.719715	 0.768384	 0.229244
C	 0.719720	 0.768376	 -0.229267
H	 -1.185038	 1.714362	 -0.050570
H	 -0.750528	 0.687237	 1.313896
O	 1.392611	 -0.295398	 0.366430
H	 0.750534	 0.687200	 -1.313918
H	 1.185043	 1.714359	 0.050526
C	 2.706965	 -0.449871	 -0.062409
H	 2.756559	 -0.644779	 -1.131878
H	 3.305899	 0.433456	 0.155466
H	 3.125548	 -1.294566	 0.467107

	symmetry c1
}
set optking {
	frozen_dihedral = ("
		2 3 6 7
	")
}

ee = optimize('scf')
oeprop('DIPOLE', 'QUADRUPOLE', 'MULLIKEN_CHARGES')
f=open( 'psi4out.xyz', 'w' )
f.write( "16  " )
f.write( str(ee) + "\n" )
f.write( MOL.save_string_xyz() )
f.close()
--------------------------------------------------------------------------

    Molecular point group: c1
  Charge       = 0
  Multiplicity = 1
  Basis Set: 6-31G*
  Basis Set:
  @DF-RHF Final Energy:  -306.97768404043217
    Total Energy =                       -306.9776840404319955
    Molecular point group: c1
  Basis Set: 6-31G*
  Basis Set:
  Basis Set: 6-31G*
  Basis Set:
  @DF-RHF Final Energy:  -306.97768631028549
    Total Energy =                       -306.9776863102854918
  Basis Set: 6-31G*
  Basis Set:
  Charge       = 0
  Multiplicity = 1
  Basis Set: 6-31G*
  Basis Set:

    Orbital Energies (a.u.)
    -----------------------

    Doubly Occupied:

       1A    -20.553714     2A    -20.553505     3A    -11.269153
       4A    -11.268493     5A    -11.263745     6A    -11.263478
       7A     -1.388292     8A     -1.370746     9A     -1.030880
      10A     -0.936006    11A     -0.892262    12A     -0.823942
      13A     -0.684485    14A     -0.680233    15A     -0.656991
      16A     -0.636186    17A     -0.629604    18A     -0.596971
      19A     -0.551600    20A     -0.534821    21A     -0.508745
      22A     -0.477367    23A     -0.463086    24A     -0.419922
      25A     -0.410439

  @DF-RHF Final Energy:  -306.97768650593599

   => Energetics <=

    Nuclear Repulsion Energy =            258.7163275662281308
    One-Electron Energy =                -931.6586981686240279
    Two-Electron Energy =                 365.9646840964598482
    DFT Exchange-Correlation Energy =       0.0000000000000000
    Empirical Dispersion Energy =           0.0000000000000000
    PCM Polarization Energy =               0.0000000000000000
    EFP Energy =                            0.0000000000000000
    Total Energy =                       -306.9776865059359920
    Molecular point group: c1
  Basis Set: 6-31G*
  Basis Set:

  -Total Gradient:
     Atom            X                  Y                   Z
    ------   -----------------  -----------------  -----------------
       1        0.000000495956    -0.000002256981    -0.000000685741
       2       -0.000110063112     0.000306287447    -0.000387242705
       3        0.000137378309    -0.000340920238     0.000406465843
       4        0.000006465982    -0.000002462120     0.000004875429
       5       -0.000006285536     0.000003230612     0.000005305972
       6        0.000075384077    -0.000215007338     0.000313781467
       7       -0.000124411605     0.000283886893    -0.000365457422
       8        0.000007104818     0.000002196142    -0.000000341937
       9       -0.000001733697    -0.000003628745    -0.000004157157
      10        0.000025445982    -0.000033878109     0.000017750939
      11       -0.000008548862     0.000006103633     0.000007979541
      12       -0.000001528061    -0.000004167649    -0.000001021900
      13        0.000001075172     0.000002450689     0.000003109597
      14       -0.000000426459    -0.000001103312     0.000001324267
      15        0.000003076424    -0.000001390167    -0.000001195499
      16       -0.000003429385     0.000000659242    -0.000000490693

  **** Optimization is complete! (in 3 steps) ****
    Final optimized geometry and variables:
    Molecular point group: c1

    Geometry (in Angstrom), charge = 0, multiplicity = 1:

    H           -2.850010729287    -0.549927997380     1.073360045878
    C           -2.729871357525    -0.400689164114     0.002040849185
    O           -1.387960339550    -0.306470891883    -0.352606858596
    H           -3.145912273719    -1.252284426662    -0.518330180289
    H           -3.282853365653     0.492406974101    -0.285684319401
    C           -0.715294762876     0.758029641142     0.242079911852
    C            0.724568652663     0.758196514402    -0.215096065219
    H           -1.178368823482     1.703829199149    -0.042280646063
    H           -0.750340924041     0.680241833261     1.326839494705
    O            1.397662885183    -0.306953700553     0.378046592596
    H            0.755419099556     0.679443317855    -1.299851740856
    H            1.189919246563     1.703512026238     0.066917450418
    C            2.712484734391    -0.459507629249    -0.050213454044
    H            2.763079571058    -0.651304934882    -1.120177554411
    H            3.310373442837     0.423734489672     0.170544127234
    H            3.131305242122    -1.305386275090     0.477207197265

  Mulliken Charges: (a.u.)
   Center  Symbol    Alpha    Beta     Spin     Total
       1     H     0.42845  0.42845  0.00000  0.14309
       2     C     3.07954  3.07954  0.00000 -0.15909
       3     O     4.30067  4.30067  0.00000 -0.60135
       4     H     0.41116  0.41116  0.00000  0.17768
       5     H     0.43175  0.43175  0.00000  0.13650
       6     C     2.99330  2.99330  0.00000  0.01339
       7     C     2.99317  2.99317  0.00000  0.01367
       8     H     0.43271  0.43271  0.00000  0.13458
       9     H     0.42245  0.42245  0.00000  0.15510
      10     O     4.30081  4.30081  0.00000 -0.60162
      11     H     0.42292  0.42292  0.00000  0.15416
      12     H     0.43230  0.43230  0.00000  0.13540
      13     C     3.07951  3.07951  0.00000 -0.15901
      14     H     0.42812  0.42812  0.00000  0.14375
      15     H     0.43191  0.43191  0.00000  0.13617
      16     H     0.41122  0.41122  0.00000  0.17756

   Total alpha = 25.00000, Total beta = 25.00000, Total charge = -0.00000
