  ==> Input File <==

--------------------------------------------------------------------------
set {
	reference rhf
	basis 6-31G*
}

set_num_threads( 4 )
memory 2 gb

molecule MOL {
0 1

O	 -3.040892	 0.865255	 0.856979
C	 -2.668563	 0.129746	 -0.000350
C	 -3.493305	 -0.239893	 -1.206350
O	 -1.481751	 -0.454642	 0.000584
H	 -3.749349	 0.665500	 -1.743533
H	 -2.967746	 -0.919252	 -1.861101
H	 -4.417749	 -0.693778	 -0.869792
C	 -0.334255	 0.388708	 0.000906
C	 0.891947	 -0.504646	 0.000751
H	 -0.365390	 1.025305	 -0.873475
H	 -0.365484	 1.024911	 0.875569
C	 2.191998	 0.301789	 0.000897
H	 0.855148	 -1.151283	 -0.871571
H	 0.855132	 -1.151660	 0.872805
C	 3.441114	 -0.581407	 0.000108
H	 2.215074	 0.954890	 -0.869742
H	 2.215465	 0.953923	 0.872248
C	 4.739576	 0.224112	 -0.001102
H	 3.419457	 -1.233487	 -0.870178
H	 3.420834	 -1.233096	 0.870717
H	 4.804918	 0.861552	 -0.878265
H	 5.606527	 -0.429058	 -0.001824
H	 4.806469	 0.861674	 0.875853

	symmetry c1
}
set optking {
	frozen_dihedral = ("
		1 2 4 8
	")
}

ee = optimize('scf')
oeprop('DIPOLE', 'QUADRUPOLE', 'MULLIKEN_CHARGES')
f=open( 'psi4out.xyz', 'w' )
f.write( "23  " )
f.write( str(ee) + "\n" )
f.write( MOL.save_string_xyz() )
f.close()
--------------------------------------------------------------------------

    Molecular point group: c1
  Charge       = 0
  Multiplicity = 1
  Basis Set: 6-31G*
  Basis Set:
  @DF-RHF Final Energy:  -422.96341299685866
    Total Energy =                       -422.9634129968587786
    Molecular point group: c1
  Basis Set: 6-31G*
  Basis Set:
  Basis Set: 6-31G*
  Basis Set:
  @DF-RHF Final Energy:  -422.96128467743188
    Total Energy =                       -422.9612846774316495
  Basis Set: 6-31G*
  Basis Set:
  Basis Set: 6-31G*
  Basis Set:
  @DF-RHF Final Energy:  -422.96442481546370
    Total Energy =                       -422.9644248154635306
  Basis Set: 6-31G*
  Basis Set:
  Basis Set: 6-31G*
  Basis Set:
  @DF-RHF Final Energy:  -422.96454758256419
    Total Energy =                       -422.9645475825648191
  Basis Set: 6-31G*
  Basis Set:
  @DF-RHF Final Energy:  -422.96456581092485
    Total Energy =                       -422.9645658109254782
  @DF-RHF Final Energy:  -422.96460076261258
    Total Energy =                       -422.9646007626128039
  @DF-RHF Final Energy:  -422.96463453992175
    Total Energy =                       -422.9646345399214624
  @DF-RHF Final Energy:  -422.96466076383672
    Total Energy =                       -422.9646607638362639
  @DF-RHF Final Energy:  -422.90158479592930
    Total Energy =                       -422.9015847959294661
  @DF-RHF Final Energy:  -422.95653809157864
    Total Energy =                       -422.9565380915777268
  @DF-RHF Final Energy:  -422.96458765423085
    Total Energy =                       -422.9645876542307406
  @DF-RHF Final Energy:  -422.96482017958766
    Total Energy =                       -422.9648201795873774
  @DF-RHF Final Energy:  -422.96490825788533
    Total Energy =                       -422.9649082578847583
  @DF-RHF Final Energy:  -422.96513321077629
    Total Energy =                       -422.9651332107762300
  @DF-RHF Final Energy:  -422.96567547491793
    Total Energy =                       -422.9656754749187257
  @DF-RHF Final Energy:  -422.96595128519931
    Total Energy =                       -422.9659512851990257
  @DF-RHF Final Energy:  -422.96630239336935
    Total Energy =                       -422.9663023933693466
  @DF-RHF Final Energy:  -422.96640870562203
    Total Energy =                       -422.9664087056219159
  @DF-RHF Final Energy:  -422.96645769313528
    Total Energy =                       -422.9664576931354532
  @DF-RHF Final Energy:  -422.96651044519359
    Total Energy =                       -422.9665104451937623
  Basis Set: 6-31G*
  Basis Set:
  @DF-RHF Final Energy:  -422.96652701287996
    Total Energy =                       -422.9665270128798511
  Basis Set: 6-31G*
  Basis Set:
  Basis Set: 6-31G*
  Basis Set:
  @DF-RHF Final Energy:  -422.96652996891021
    Total Energy =                       -422.9665299689106632
  Basis Set: 6-31G*
  Basis Set:
  Basis Set: 6-31G*
  Basis Set:
  @DF-RHF Final Energy:  -422.96652983661784
    Total Energy =                       -422.9665298366179513
  Basis Set: 6-31G*
  Basis Set:
  Charge       = 0
  Multiplicity = 1
  Basis Set: 6-31G*
  Basis Set:

    Orbital Energies (a.u.)
    -----------------------

    Doubly Occupied:

       1A    -20.586559     2A    -20.551895     3A    -11.375853
       4A    -11.287818     5A    -11.234369     6A    -11.225492
       7A    -11.224841     8A    -11.222432     9A    -11.213683
      10A     -1.458936    11A     -1.363993    12A     -1.094333
      13A     -1.039630    14A     -1.005780    15A     -0.931883
      16A     -0.841546    17A     -0.803626    18A     -0.773304
      19A     -0.697007    20A     -0.683480    21A     -0.657025
      22A     -0.647885    23A     -0.614422    24A     -0.589451
      25A     -0.583820    26A     -0.571135    27A     -0.557017
      28A     -0.547713    29A     -0.514449    30A     -0.503892
      31A     -0.494003    32A     -0.478705    33A     -0.472441
      34A     -0.469491    35A     -0.449112    36A     -0.433407

  @DF-RHF Final Energy:  -422.96653040602280

   => Energetics <=

    Nuclear Repulsion Energy =            448.6956911509031443
    One-Electron Energy =               -1464.9235879026002749
    Two-Electron Energy =                 593.2613663456733093
    DFT Exchange-Correlation Energy =       0.0000000000000000
    Empirical Dispersion Energy =           0.0000000000000000
    PCM Polarization Energy =               0.0000000000000000
    EFP Energy =                            0.0000000000000000
    Total Energy =                       -422.9665304060238213
    Molecular point group: c1
  Basis Set: 6-31G*
  Basis Set:

  -Total Gradient:
     Atom            X                  Y                   Z
    ------   -----------------  -----------------  -----------------
       1       -0.003002597866    -0.006932502050     0.003193236436
       2        0.004411190630     0.010710154624    -0.007464217994
       3        0.000168942134     0.000152840390    -0.000323092316
       4       -0.001005846948    -0.004841228586     0.011111263283
       5       -0.000037004604    -0.000002478374     0.000066078182
       6       -0.000024937866    -0.000029367668     0.000019907604
       7       -0.000044877498    -0.000037264187    -0.000011825456
       8       -0.000181345049     0.001107461621    -0.006530982950
       9       -0.000067748019    -0.000119096337     0.000011564617
      10       -0.000093096377     0.000009429440    -0.000047931499
      11       -0.000082335662     0.000010099340     0.000005818996
      12       -0.000009981803     0.000040087626     0.000028902117
      13        0.000044184759    -0.000005002842    -0.000006024889
      14        0.000029890321    -0.000036585515    -0.000005765262
      15       -0.000014022235    -0.000048134059    -0.000059352058
      16        0.000008856967     0.000002283567    -0.000012862289
      17       -0.000027573331     0.000002951350     0.000004074195
      18       -0.000046687510     0.000031507310     0.000017854267
      19        0.000005180966    -0.000025632257    -0.000007638377
      20       -0.000008368430     0.000014706996     0.000004631866
      21       -0.000002396216    -0.000003094219    -0.000001846916
      22       -0.000031557938    -0.000014109122     0.000000295034
      23        0.000012131586     0.000012972953     0.000007913404

  **** Optimization is complete! (in 24 steps) ****
    Final optimized geometry and variables:
    Molecular point group: c1

    Geometry (in Angstrom), charge = 0, multiplicity = 1:

    O           -3.026315128541     0.657005305425     1.028289100716
    C           -2.690415563414     0.074877874889     0.053692856588
    C           -3.582651889611    -0.215458874712    -1.121985999765
    O           -1.477661343573    -0.490118173217    -0.078192445351
    H           -3.160030618628     0.227574930441    -2.017619274573
    H           -3.629799959193    -1.286621792983    -1.282268996378
    H           -4.572559400249     0.178884160692    -0.945876647239
    C           -0.343392140617     0.363605668087     0.014073246671
    C            0.900314103872    -0.503423606424    -0.028663410356
    H           -0.360294105911     1.057901221869    -0.821218327358
    H           -0.396841721608     0.931956646333     0.933410335731
    C            2.185660702195     0.322480615300     0.046472580523
    H            0.885876275604    -1.090106369678    -0.942791855854
    H            0.857708604186    -1.206642389189     0.797848576401
    C            3.449211274676    -0.539121634399     0.009633456918
    H            2.212775705752     1.031522496063    -0.779501424895
    H            2.183811894083     0.915985158752     0.958972781935
    C            4.733527764392     0.285284347061     0.084168191797
    H            3.452868500218    -1.133114681578    -0.901561805669
    H            3.425084716253    -1.246389508010     0.835436217548
    H            4.803304989545     0.979364315286    -0.748616672913
    H            5.611063170272    -0.352912270393     0.056856891103
    H            4.774812651801     0.865315960691     1.001691616323

  Mulliken Charges: (a.u.)
   Center  Symbol    Alpha    Beta     Spin     Total
       1     O     4.26216  4.26216  0.00000 -0.52432
       2     C     2.62098  2.62098  0.00000  0.75804
       3     C     3.28443  3.28443  0.00000 -0.56886
       4     O     4.32059  4.32059  0.00000 -0.64117
       5     H     0.40553  0.40553  0.00000  0.18893
       6     H     0.39816  0.39816  0.00000  0.20367
       7     H     0.39798  0.39798  0.00000  0.20404
       8     C     2.99553  2.99553  0.00000  0.00894
       9     C     3.16428  3.16428  0.00000 -0.32856
      10     H     0.42351  0.42351  0.00000  0.15298
      11     H     0.40616  0.40616  0.00000  0.18768
      12     C     3.16072  3.16072  0.00000 -0.32145
      13     H     0.41419  0.41419  0.00000  0.17161
      14     H     0.41043  0.41043  0.00000  0.17915
      15     C     3.15153  3.15153  0.00000 -0.30305
      16     H     0.42244  0.42244  0.00000  0.15512
      17     H     0.42003  0.42003  0.00000  0.15995
      18     C     3.23992  3.23992  0.00000 -0.47985
      19     H     0.42144  0.42144  0.00000  0.15712
      20     H     0.42037  0.42037  0.00000  0.15927
      21     H     0.42136  0.42136  0.00000  0.15727
      22     H     0.41770  0.41770  0.00000  0.16460
      23     H     0.42056  0.42056  0.00000  0.15888

   Total alpha = 36.00000, Total beta = 36.00000, Total charge = -0.00000
