                              Psi4 1.0.54 Driver

  ==> Input File <==

--------------------------------------------------------------------------
set {
	reference rhf
	basis cc-pvtz
}

set_num_threads( 4 )
memory 2 gb

molecule MOL {
0 1

O	 1.116925	 -0.333420	 0.223001
C	 0.029490	 0.077183	 0.000078
C	 -1.232113	 -0.748027	 0.000015
O	 -0.223529	 1.343740	 -0.284608
C	 -2.501422	 0.088592	 -0.000052
H	 -1.188777	 -1.400384	 -0.865133
H	 -1.188857	 -1.400312	 0.865225
H	 -2.548170	 0.725504	 -0.873205
H	 -3.371613	 -0.556398	 -0.000040
H	 -2.548215	 0.725571	 0.873047
C	 0.874457	 2.233080	 -0.318426
H	 1.365844	 2.268778	 0.642563
H	 0.466910	 3.200197	 -0.564224
H	 1.589024	 1.928001	 -1.068470

	symmetry c1
}
set optking {
	frozen_dihedral = ("
		4 2 3 6
	")
}

ee,wfn = optimize('scf', return_wfn=True)
oeprop( wfn, 'DIPOLE', 'QUADRUPOLE', 'MULLIKEN_CHARGES')
f=open( 'psi4out.xyz', 'w' )
f.write( "14  " )
f.write( str(ee) + "\n" )
f.write( MOL.save_string_xyz() )
f.close()
--------------------------------------------------------------------------

    Molecular point group: c1
  Charge       = 0
  Multiplicity = 1
  Basis Set: CC-PVTZ
  Basis Set:
  @DF-RHF Final Energy:  -305.98393509832209
    Total Energy =                       -305.9839350983219219
    Molecular point group: c1
  Basis Set: CC-PVTZ
  Basis Set:
  Basis Set: CC-PVTZ
  Basis Set:
  @DF-RHF Final Energy:  -305.85402166443669
    Total Energy =                       -305.8540216644368570
  Basis Set: CC-PVTZ
  Basis Set:
  Basis Set: CC-PVTZ
  Basis Set:
  @DF-RHF Final Energy:  -305.95775562590347
    Total Energy =                       -305.9577556259035873
  Basis Set: CC-PVTZ
  Basis Set:
  Basis Set: CC-PVTZ
  Basis Set:
  @DF-RHF Final Energy:  -305.98443380762291
    Total Energy =                       -305.9844338076228496
  Basis Set: CC-PVTZ
  Basis Set:
  @DF-RHF Final Energy:  -305.98499134681305
    Total Energy =                       -305.9849913468131604
  Basis Set: CC-PVTZ
  Basis Set:
  @DF-RHF Final Energy:  -305.98396475038442
    Total Energy =                       -305.9839647503843025
  Basis Set: CC-PVTZ
  Basis Set:
  Basis Set: CC-PVTZ
  Basis Set:
  @DF-RHF Final Energy:  -305.98514845144530
    Total Energy =                       -305.9851484514451840
  Basis Set: CC-PVTZ
  Basis Set:
  Basis Set: CC-PVTZ
  Basis Set:
  @DF-RHF Final Energy:  -305.98517194876592
    Total Energy =                       -305.9851719487658102
  Basis Set: CC-PVTZ
  Basis Set:
  Charge       = 0
  Multiplicity = 1
  Basis Set: CC-PVTZ
  Basis Set:

    Orbital Energies (a.u.)
    -----------------------

    Doubly Occupied:

       1A    -20.600086     2A    -20.530347     3A    -11.365555
       4A    -11.280057     5A    -11.237498     6A    -11.219583
       7A     -1.474165     8A     -1.364961     9A     -1.067067
      10A     -0.976261    11A     -0.888387    12A     -0.777401
      13A     -0.697109    14A     -0.686140    15A     -0.675247
      16A     -0.622242    17A     -0.587281    18A     -0.560250
      19A     -0.549093    20A     -0.524015    21A     -0.517718
      22A     -0.499990    23A     -0.457896    24A     -0.437084

  @DF-RHF Final Energy:  -305.98518969370207

   => Energetics <=

    Nuclear Repulsion Energy =            248.8481112208365573
    One-Electron Energy =                -910.4757355194894899
    Two-Electron Energy =                 355.6424346049510632
    DFT Exchange-Correlation Energy =       0.0000000000000000
    Empirical Dispersion Energy =           0.0000000000000000
    PCM Polarization Energy =               0.0000000000000000
    EFP Energy =                            0.0000000000000000
    Total Energy =                       -305.9851896937018410
    Molecular point group: c1
  Basis Set: CC-PVTZ
  Basis Set:

  -Total Gradient:
     Atom            X                  Y                   Z
    ------   -----------------  -----------------  -----------------
       1        0.000021998998     0.000044752756     0.000010547171
       2        0.000081716673    -0.000505515943    -0.000310965600
       3       -0.000062865740     0.000324097214    -0.000258001041
       4       -0.000089127032     0.000307988103     0.000258976497
       5       -0.000014727896     0.000055612259    -0.000008744648
       6        0.000032679212    -0.000243034567     0.000338778543
       7        0.000041787775     0.000003109537     0.000004357118
       8       -0.000010398449     0.000025788087    -0.000020515393
       9        0.000013160965     0.000002152677     0.000001377438
      10       -0.000014755797     0.000009844303    -0.000015968675
      11       -0.000003860176    -0.000046230639     0.000000523585
      12       -0.000008021785     0.000005956582     0.000005898351
      13       -0.000006069891     0.000011310008    -0.000004480359
      14        0.000018483141     0.000004169624    -0.000001782984

  **** Optimization is complete! (in 9 steps) ****
    Final optimized geometry and variables:
    Molecular point group: c1

    Geometry (in Angstrom), charge = 0, multiplicity = 1:

    O            0.848142212684    -1.100236480259     0.878677314678
    C            0.128522093675    -0.413166166181     0.235789693606
    C           -1.315917636465    -0.760959887664    -0.041168465980
    O            0.517875267383     0.719272845916    -0.319084440298
    C           -2.189798495928     0.344854144557    -0.617895275926
    H           -1.289317867453    -1.616050674502    -0.708628855050
    H           -1.716573078329    -1.129411153569     0.894243207984
    H           -1.822850005488     0.681736258125    -1.577578088921
    H           -3.200414554417    -0.021406452883    -0.751106215365
    H           -2.228497042110     1.202327935368     0.041888556780
    C            1.864232442301     1.105613429019    -0.125026756658
    H            2.074796584021     1.233611602574     0.926136273476
    H            1.982673398783     2.041552665527    -0.646391916113
    H            2.535068395411     0.363458021250    -0.531184213972

  Mulliken Charges: (a.u.)
   Center  Symbol    Alpha    Beta     Spin     Total
       1     O     4.20416  4.20416  0.00000 -0.40833
       2     C     2.80485  2.80485  0.00000  0.39030
       3     C     3.09116  3.09116  0.00000 -0.18232
       4     O     4.14231  4.14231  0.00000 -0.28461
       5     C     3.14038  3.14038  0.00000 -0.28075
       6     H     0.44218  0.44218  0.00000  0.11565
       7     H     0.43670  0.43670  0.00000  0.12660
       8     H     0.44881  0.44881  0.00000  0.10238
       9     H     0.44940  0.44940  0.00000  0.10120
      10     H     0.45088  0.45088  0.00000  0.09825
      11     C     3.03588  3.03588  0.00000 -0.07176
      12     H     0.45323  0.45323  0.00000  0.09354
      13     H     0.44668  0.44668  0.00000  0.10664
      14     H     0.45339  0.45339  0.00000  0.09323

   Total alpha = 24.00000, Total beta = 24.00000, Total charge =  0.00000

*** Psi4 exiting successfully. Buy a developer a beer!
