                              Psi4 1.0.54 Driver

  ==> Input File <==

--------------------------------------------------------------------------
set {
	reference rhf
	basis cc-pvtz
}

set_num_threads( 4 )
memory 2 gb

molecule MOL {
0 1

H	 -3.436473	 1.252944	 -1.023892
O	 -3.458596	 0.315260	 -0.960865
C	 -3.176635	 -0.080824	 0.355601
C	 -1.763371	 0.265266	 0.799691
H	 -3.321825	 -1.153438	 0.379502
H	 -3.895468	 0.357385	 1.043382
C	 -0.673390	 -0.426948	 -0.013392
H	 -1.631049	 1.344913	 0.747560
H	 -1.664587	 -0.001624	 1.849167
C	 -1.122294	 -1.758545	 -0.609467
H	 0.196037	 -0.584278	 0.615303
H	 -0.354273	 0.236556	 -0.813662
C	 -0.028406	 -2.443717	 -1.426166
H	 -1.449275	 -2.411602	 0.193957
H	 -1.991606	 -1.595777	 -1.243233
C	 -0.454875	 -3.743220	 -2.111194
H	 0.826971	 -2.641966	 -0.784389
H	 0.320109	 -1.751843	 -2.188051
C	 -0.790469	 -4.887266	 -1.157422
H	 0.347627	 -4.063587	 -2.768561
H	 -1.310165	 -3.546430	 -2.752422
H	 0.045107	 -5.102696	 -0.499031
H	 -1.017433	 -5.792943	 -1.708312
H	 -1.649581	 -4.660374	 -0.537704

	symmetry c1
}
set optking {
	frozen_dihedral = ("
		11 7 4 3
	")
}

ee,wfn = optimize('scf', return_wfn=True)
oeprop( wfn, 'DIPOLE', 'QUADRUPOLE', 'MULLIKEN_CHARGES')
f=open( 'psi4out.xyz', 'w' )
f.write( "24  " )
f.write( str(ee) + "\n" )
f.write( MOL.save_string_xyz() )
f.close()
--------------------------------------------------------------------------

    Molecular point group: c1
  Charge       = 0
  Multiplicity = 1
  Basis Set: CC-PVTZ
  Basis Set:
  @DF-RHF Final Energy:  -349.37235616248989
    Total Energy =                       -349.3723561624900640
    Molecular point group: c1
  Basis Set: CC-PVTZ
  Basis Set:
  Basis Set: CC-PVTZ
  Basis Set:
  @DF-RHF Final Energy:  -349.37310685653466
    Total Energy =                       -349.3731068565343776
  Basis Set: CC-PVTZ
  Basis Set:
  Basis Set: CC-PVTZ
  Basis Set:
  @DF-RHF Final Energy:  -349.37471029987881
    Total Energy =                       -349.3747102998789842
  Basis Set: CC-PVTZ
  Basis Set:
  Basis Set: CC-PVTZ
  Basis Set:
  @DF-RHF Final Energy:  -349.37487461830324
    Total Energy =                       -349.3748746183034655
  Basis Set: CC-PVTZ
  Basis Set:
  Basis Set: CC-PVTZ
  Basis Set:
  @DF-RHF Final Energy:  -349.37490780351305
    Total Energy =                       -349.3749078035139064
  Basis Set: CC-PVTZ
  Basis Set:
  Basis Set: CC-PVTZ
  Basis Set:
  @DF-RHF Final Energy:  -349.37490907102489
    Total Energy =                       -349.3749090710246037
  Basis Set: CC-PVTZ
  Basis Set:
  Basis Set: CC-PVTZ
  Basis Set:
  @DF-RHF Final Energy:  -349.37491035878497
    Total Energy =                       -349.3749103587847458
  Basis Set: CC-PVTZ
  Basis Set:
  Charge       = 0
  Multiplicity = 1
  Basis Set: CC-PVTZ
  Basis Set:

    Orbital Energies (a.u.)
    -----------------------

    Doubly Occupied:

       1A    -20.546339     2A    -11.264991     3A    -11.216231
       4A    -11.211372     5A    -11.209076     6A    -11.206917
       7A    -11.204425     8A    -11.202842     9A     -1.363736
      10A     -1.086806    11A     -1.046194    12A     -0.983123
      13A     -0.914999    14A     -0.861300    15A     -0.792883
      16A     -0.769865    17A     -0.682269    18A     -0.652527
      19A     -0.625253    20A     -0.619543    21A     -0.597554
      22A     -0.585395    23A     -0.555439    24A     -0.537730
      25A     -0.519005    26A     -0.514401    27A     -0.489894
      28A     -0.480291    29A     -0.471208    30A     -0.458793
      31A     -0.448867    32A     -0.434495    33A     -0.426078

  @DF-RHF Final Energy:  -349.37491089733476

   => Energetics <=

    Nuclear Repulsion Energy =            394.9938117316679609
    One-Electron Energy =               -1256.7777668940452713
    Two-Electron Energy =                 512.4090442650423256
    DFT Exchange-Correlation Energy =       0.0000000000000000
    Empirical Dispersion Energy =           0.0000000000000000
    PCM Polarization Energy =               0.0000000000000000
    EFP Energy =                            0.0000000000000000
    Total Energy =                       -349.3749108973349848
    Molecular point group: c1
  Basis Set: CC-PVTZ
  Basis Set:

  -Total Gradient:
     Atom            X                  Y                   Z
    ------   -----------------  -----------------  -----------------
       1        0.000000212383    -0.000004911559     0.000001956690
       2        0.000001568378     0.000026991589    -0.000013798505
       3       -0.000130899938    -0.003660505773     0.002963272221
       4       -0.000332362841     0.004085164489    -0.003900288522
       5       -0.000009192115     0.000020764258     0.000013782493
       6        0.000012447157    -0.000002790045    -0.000013447208
       7        0.002818771742     0.004943708350    -0.000721395913
       8       -0.000012572201     0.000017672172     0.000001960108
       9       -0.000003334041     0.000003330707    -0.000009275588
      10        0.000057466958    -0.000040524847     0.000034185435
      11       -0.002389938654    -0.005411771948     0.001656325837
      12        0.000012093037     0.000006158202     0.000000106395
      13       -0.000005075770     0.000005195164    -0.000005335120
      14        0.000009524180    -0.000001290819    -0.000010890425
      15       -0.000019254248     0.000009685933     0.000003712427
      16       -0.000003396364     0.000002478211    -0.000001629119
      17       -0.000005279355    -0.000000862104     0.000000496230
      18        0.000001640083     0.000005673778     0.000004308815
      19       -0.000001584960    -0.000002319685    -0.000000603467
      20       -0.000003527479     0.000002559079     0.000001609300
      21        0.000000679729    -0.000004561568    -0.000001916548
      22       -0.000001721200    -0.000000249301    -0.000002783611
      23       -0.000000434209     0.000002740114     0.000002247331
      24        0.000004169725    -0.000002334387    -0.000002599255

  **** Optimization is complete! (in 8 steps) ****
    Final optimized geometry and variables:
    Molecular point group: c1

    Geometry (in Angstrom), charge = 0, multiplicity = 1:

    H           -1.948096764216     2.925082337695    -0.361507139521
    O           -2.072807059491     1.998247230160    -0.266813739188
    C           -1.744162333110     1.603113861674     1.040655104877
    C           -0.286256921951     1.844318558068     1.401421353521
    H           -1.985601250972     0.552451701939     1.102716237341
    H           -2.376783963919     2.118308188504     1.759264876757
    C            0.771721999583     1.117434632528     0.548885268327
    H           -0.087027816931     2.912982899507     1.388591267804
    H           -0.175767397642     1.537340485846     2.438830381791
    C            0.348526931837    -0.239678803659    -0.018066814279
    H            1.635388663840     0.933048809854     1.180495017528
    H            1.093757779394     1.753720627331    -0.267618468695
    C            1.488371304664    -0.927634661188    -0.767863963942
    H            0.009170947946    -0.875898448427     0.794183373425
    H           -0.492684089657    -0.112854445923    -0.689770769162
    C            1.108009952745    -2.247111143486    -1.441942686211
    H            2.318333932732    -1.101511791680    -0.086242857949
    H            1.860780320374    -0.248479407295    -1.530083385215
    C            0.739150086971    -3.372834129306    -0.478694923989
    H            1.943895261152    -2.573589282285    -2.053312769900
    H            0.281945147368    -2.073837375176    -2.126293880706
    H            1.543551892707    -3.562598135931     0.225071244872
    H            0.549887499184    -4.293916376527    -1.018204229789
    H           -0.152156098258    -3.142246356600     0.092186006339

  Mulliken Charges: (a.u.)
   Center  Symbol    Alpha    Beta     Spin     Total
       1     H     0.39545  0.39545  0.00000  0.20910
       2     O     4.20626  4.20626  0.00000 -0.41252
       3     C     2.98192  2.98192  0.00000  0.03617
       4     C     3.11292  3.11292  0.00000 -0.22584
       5     H     0.45493  0.45493  0.00000  0.09014
       6     H     0.45472  0.45472  0.00000  0.09056
       7     C     3.08412  3.08412  0.00000 -0.16825
       8     H     0.45078  0.45078  0.00000  0.09843
       9     H     0.45309  0.45309  0.00000  0.09382
      10     C     3.10102  3.10102  0.00000 -0.20203
      11     H     0.45117  0.45117  0.00000  0.09766
      12     H     0.45301  0.45301  0.00000  0.09398
      13     C     3.09619  3.09619  0.00000 -0.19239
      14     H     0.45475  0.45475  0.00000  0.09050
      15     H     0.44217  0.44217  0.00000  0.11567
      16     C     3.08963  3.08963  0.00000 -0.17927
      17     H     0.45528  0.45528  0.00000  0.08944
      18     H     0.45032  0.45032  0.00000  0.09936
      19     C     3.15279  3.15279  0.00000 -0.30558
      20     H     0.44953  0.44953  0.00000  0.10094
      21     H     0.45370  0.45370  0.00000  0.09260
      22     H     0.45580  0.45580  0.00000  0.08839
      23     H     0.44665  0.44665  0.00000  0.10669
      24     H     0.45379  0.45379  0.00000  0.09242

   Total alpha = 33.00000, Total beta = 33.00000, Total charge = -0.00000

*** Psi4 exiting successfully. Buy a developer a beer!
