  ==> Input File <==

--------------------------------------------------------------------------
set {
	reference rhf
	basis 6-31G*
}

set_num_threads( 1 )
memory 2 gb

molecule MOL {
0 1

O	 -0.988096	 -1.408613	 0.050699
C	 -0.676749	 -0.249230	 -0.009274
C	 -1.746085	 0.827156	 -0.009539
N	 0.623947	 0.147590	 -0.102813
H	 -1.701500	 1.431508	 -0.908902
H	 -2.703425	 0.330732	 0.036390
H	 -1.647323	 1.487769	 0.845106
C	 0.906131	 1.534658	 -0.416329
C	 1.739030	 -0.761003	 -0.255436
H	 1.768255	 1.865309	 0.152380
H	 0.054847	 2.140629	 -0.159318
H	 1.123455	 1.664248	 -1.474345
H	 2.612750	 -0.332855	 0.221366
H	 1.543866	 -1.711614	 0.214867
H	 1.980218	 -0.935965	 -1.302351

	symmetry c1
}
set optking {
	frozen_dihedral = ("
		2 4 8 10
	")
}

ee = energy('scf')
oeprop('DIPOLE', 'QUADRUPOLE', 'MULLIKEN_CHARGES')
f=open( 'psi4out.xyz', 'w' )
f.write( "15  " )
f.write( str(ee) + "\n" )
f.write( MOL.save_string_xyz() )
f.close()
--------------------------------------------------------------------------

    Molecular point group: c1

    Geometry (in Angstrom), charge = 0, multiplicity = 1:

       Center              X                  Y                   Z               Mass
    ------------   -----------------  -----------------  -----------------  -----------------
           O         -0.972653553213    -1.428611995817     0.180586490814    15.994914619560
           C         -0.661306553213    -0.269228995817     0.120613490814    12.000000000000
           C         -1.730642553213     0.807157004183     0.120348490814    12.000000000000
           N          0.639389446787     0.127591004183     0.027074490814    14.003074004780
           H         -1.686057553213     1.411509004183    -0.779014509186     1.007825032070
           H         -2.687982553213     0.310733004183     0.166277490814     1.007825032070
           H         -1.631880553213     1.467770004183     0.974993490814     1.007825032070
           C          0.921573446787     1.514659004183    -0.286441509186    12.000000000000
           C          1.754472446787    -0.781001995817    -0.125548509186    12.000000000000
           H          1.783697446787     1.845310004183     0.282267490814     1.007825032070
           H          0.070289446787     2.120630004183    -0.029430509186     1.007825032070
           H          1.138897446787     1.644249004183    -1.344457509186     1.007825032070
           H          2.628192446787    -0.352853995817     0.351253490814     1.007825032070
           H          1.559308446787    -1.731612995817     0.344754490814     1.007825032070
           H          1.995660446787    -0.955963995817    -1.172463509186     1.007825032070

  Charge       = 0
  Multiplicity = 1
  Basis Set: 6-31G*
  Basis Set:

    Orbital Energies (a.u.)
    -----------------------

    Doubly Occupied:

       1A    -20.512843     2A    -15.583981     3A    -11.341092
       4A    -11.262683     5A    -11.253966     6A    -11.229925
       7A     -1.381833     8A     -1.245128     9A     -1.018901
      10A     -0.968182    11A     -0.923689    12A     -0.738686
      13A     -0.681395    14A     -0.660099    15A     -0.652223
      16A     -0.590761    17A     -0.578442    18A     -0.566398
      19A     -0.562642    20A     -0.552959    21A     -0.525232
      22A     -0.503877    23A     -0.409556    24A     -0.365681

  @DF-RHF Final Energy:  -286.02508840355245

   => Energetics <=

    Nuclear Repulsion Energy =            252.5341728899090583
    One-Electron Energy =                -888.8980209558600336
    Two-Electron Energy =                 350.3387596623994114
    DFT Exchange-Correlation Energy =       0.0000000000000000
    Empirical Dispersion Energy =           0.0000000000000000
    PCM Polarization Energy =               0.0000000000000000
    EFP Energy =                            0.0000000000000000
    Total Energy =                       -286.0250884035515355

  Mulliken Charges: (a.u.)
   Center  Symbol    Alpha    Beta     Spin     Total
       1     O     4.30346  4.30346  0.00000 -0.60692
       2     C     2.62306  2.62306  0.00000  0.75387
       3     C     3.30803  3.30803  0.00000 -0.61606
       4     N     3.82099  3.82099  0.00000 -0.64197
       5     H     0.40621  0.40621  0.00000  0.18758
       6     H     0.38866  0.38866  0.00000  0.22267
       7     H     0.40459  0.40459  0.00000  0.19081
       8     C     3.14476  3.14476  0.00000 -0.28953
       9     C     3.13978  3.13978  0.00000 -0.27957
      10     H     0.41252  0.41252  0.00000  0.17495
      11     H     0.40432  0.40432  0.00000  0.19136
      12     H     0.41743  0.41743  0.00000  0.16515
      13     H     0.41738  0.41738  0.00000  0.16524
      14     H     0.39111  0.39111  0.00000  0.21779
      15     H     0.41770  0.41770  0.00000  0.16461

   Total alpha = 24.00000, Total beta = 24.00000, Total charge = -0.00000
