  ==> Input File <==

--------------------------------------------------------------------------
set {
	reference rhf
	basis cc-pvtz
}

set_num_threads( 4 )
memory 2 gb

molecule MOL {
0 1

H	 -3.436473	 1.252944	 -1.023892
O	 -3.458596	 0.315260	 -0.960865
C	 -3.176635	 -0.080824	 0.355601
C	 -1.763371	 0.265266	 0.799691
H	 -3.321825	 -1.153438	 0.379502
H	 -3.895468	 0.357385	 1.043382
C	 -0.673390	 -0.426948	 -0.013392
H	 -1.631049	 1.344913	 0.747560
H	 -1.664587	 -0.001624	 1.849167
C	 0.737842	 -0.043159	 0.423759
H	 -0.806103	 -0.190518	 -1.063345
H	 -0.797221	 -1.503753	 0.074146
C	 1.824000	 -0.743224	 -0.390623
H	 0.850588	 1.033777	 0.343840
H	 0.868587	 -0.286314	 1.476203
C	 3.255957	 -0.453067	 0.062319
H	 1.718250	 -0.470599	 -1.438164
H	 1.658105	 -1.815850	 -0.339904
C	 3.467755	 0.936557	 0.658330
H	 3.915802	 -0.568403	 -0.792127
H	 3.562797	 -1.205167	 0.784548
H	 3.163617	 1.709857	 -0.039943
H	 4.513492	 1.098508	 0.893803
H	 2.903714	 1.076417	 1.572607

	symmetry c1
}
set optking {
	frozen_dihedral = ("
		20 16 13 17
	")
}

ee = optimize('scf')
oeprop('DIPOLE', 'QUADRUPOLE', 'MULLIKEN_CHARGES')
f=open( 'psi4out.xyz', 'w' )
f.write( "24  " )
f.write( str(ee) + "\n" )
f.write( MOL.save_string_xyz() )
f.close()
--------------------------------------------------------------------------

    Molecular point group: c1
  Charge       = 0
  Multiplicity = 1
  Basis Set: CC-PVTZ
  Basis Set:
  @DF-RHF Final Energy:  -349.37562719238122
    Total Energy =                       -349.3756271923807049
    Molecular point group: c1
  Basis Set: CC-PVTZ
  Basis Set:
  Basis Set: CC-PVTZ
  Basis Set:
  @DF-RHF Final Energy:  -349.37612816218854
    Total Energy =                       -349.3761281621882517
  Basis Set: CC-PVTZ
  Basis Set:
  Basis Set: CC-PVTZ
  Basis Set:
  @DF-RHF Final Energy:  -349.37652545873209
    Total Energy =                       -349.3765254587317486
  Basis Set: CC-PVTZ
  Basis Set:
  Basis Set: CC-PVTZ
  Basis Set:
  @DF-RHF Final Energy:  -349.37653180289715
    Total Energy =                       -349.3765318028968636
  Basis Set: CC-PVTZ
  Basis Set:
  Basis Set: CC-PVTZ
  Basis Set:
  @DF-RHF Final Energy:  -349.37654021448674
    Total Energy =                       -349.3765402144867949
  Basis Set: CC-PVTZ
  Basis Set:
  Charge       = 0
  Multiplicity = 1
  Basis Set: CC-PVTZ
  Basis Set:

    Orbital Energies (a.u.)
    -----------------------

    Doubly Occupied:

       1A    -20.546271     2A    -11.265519     3A    -11.215164
       4A    -11.212387     5A    -11.210478     6A    -11.209399
       7A    -11.208966     8A    -11.204828     9A     -1.364128
      10A     -1.089181    11A     -1.048193    12A     -0.986173
      13A     -0.916099    14A     -0.854217    15A     -0.802620
      16A     -0.770837    17A     -0.681916    18A     -0.655949
      19A     -0.629744    20A     -0.619758    21A     -0.594334
      22A     -0.587384    23A     -0.556092    24A     -0.544733
      25A     -0.514831    26A     -0.507563    27A     -0.503871
      28A     -0.472960    29A     -0.468452    30A     -0.459881
      31A     -0.451944    32A     -0.450583    33A     -0.421636

  @DF-RHF Final Energy:  -349.37654085623825

   => Energetics <=

    Nuclear Repulsion Energy =            385.6105493232025196
    One-Electron Energy =               -1237.9219960124132740
    Two-Electron Energy =                 502.9349058329725040
    DFT Exchange-Correlation Energy =       0.0000000000000000
    Empirical Dispersion Energy =           0.0000000000000000
    PCM Polarization Energy =               0.0000000000000000
    EFP Energy =                            0.0000000000000000
    Total Energy =                       -349.3765408562381936
    Molecular point group: c1
  Basis Set: CC-PVTZ
  Basis Set:

  -Total Gradient:
     Atom            X                  Y                   Z
    ------   -----------------  -----------------  -----------------
       1       -0.000000445577     0.000001061922    -0.000001218431
       2       -0.000001579893     0.000005826070     0.000000160587
       3        0.000009193517    -0.000016682686    -0.000004727542
       4       -0.000001633757    -0.000001374569     0.000008648729
       5       -0.000002177299    -0.000002402424     0.000002113032
       6        0.000006318471     0.000001863877    -0.000000119047
       7       -0.000008130288    -0.000000455045     0.000003231121
       8        0.000004302448    -0.000001411397    -0.000003317389
       9       -0.000000972361     0.000001868829     0.000003421784
      10        0.000011054438     0.000024117357    -0.000008812654
      11        0.000004660136     0.000006771515     0.000004909581
      12        0.000000206908    -0.000002530412    -0.000001616453
      13       -0.001859290974     0.008261933461     0.001650862688
      14       -0.000005636400    -0.000002137409    -0.000001406488
      15       -0.000001536721     0.000009048115     0.000004841499
      16        0.000945676587    -0.008450080885     0.001333446135
      17        0.001431096819    -0.005656433929    -0.001582499413
      18        0.000001801311    -0.000009278258     0.000001628930
      19       -0.000009286194     0.000002990228    -0.000014472528
      20       -0.000516733697     0.005819587478    -0.001401352459
      21        0.000006053243    -0.000009031345    -0.000009274669
      22        0.000013451396     0.000010447073     0.000001238499
      23       -0.000009566765     0.000001255952     0.000009863270
      24       -0.000016825349     0.000005046484     0.000004451217

  **** Optimization is complete! (in 6 steps) ****
    Final optimized geometry and variables:
    Molecular point group: c1

    Geometry (in Angstrom), charge = 0, multiplicity = 1:

    H           -3.425748201372     1.254239064094    -1.122414057802
    O           -3.437728558389     0.315376733525    -1.076859443530
    C           -3.165463670593    -0.101545953367     0.235113425029
    C           -1.761111852629     0.252330397036     0.700877033650
    H           -3.298584123914    -1.175994271882     0.237526946685
    H           -3.896722673253     0.315631905847     0.922878420123
    C           -0.654641840965    -0.410744043929    -0.114220187970
    H           -1.641217567502     1.334268475974     0.671534113726
    H           -1.670081058235    -0.034224439326     1.745877436018
    C            0.747141435623    -0.021957566497     0.348346262234
    H           -0.777158306153    -0.152204381868    -1.160234185159
    H           -0.768624700716    -1.490305962099    -0.052110389004
    C            1.843284348241    -0.691574599135    -0.474645764927
    H            0.848803957461     1.057421810730     0.297370902409
    H            0.867241361383    -0.290134093871     1.395933207799
    C            3.292845833939    -0.455888159114    -0.014585196879
    H            1.749083825521    -0.423699121329    -1.523581485871
    H            1.667068496000    -1.764693595288    -0.459928895442
    C            3.591855440895     0.945676367406     0.520358047792
    H            3.944972977441    -0.605773829439    -0.868663832757
    H            3.565408563728    -1.186979287679     0.738956860537
    H            3.338983768370     1.708535895947    -0.209102708467
    H            4.647916221087     1.045204344629     0.744542841421
    H            3.043788737600     1.162825255295     1.428953674277

  Mulliken Charges: (a.u.)
   Center  Symbol    Alpha    Beta     Spin     Total
       1     H     0.39531  0.39531  0.00000  0.20937
       2     O     4.20376  4.20376  0.00000 -0.40752
       3     C     2.97784  2.97784  0.00000  0.04432
       4     C     3.10172  3.10172  0.00000 -0.20344
       5     H     0.45889  0.45889  0.00000  0.08223
       6     H     0.46030  0.46030  0.00000  0.07939
       7     C     3.08838  3.08838  0.00000 -0.17676
       8     H     0.45918  0.45918  0.00000  0.08164
       9     H     0.45354  0.45354  0.00000  0.09292
      10     C     3.09111  3.09111  0.00000 -0.18222
      11     H     0.44650  0.44650  0.00000  0.10700
      12     H     0.45480  0.45480  0.00000  0.09039
      13     C     3.09669  3.09669  0.00000 -0.19338
      14     H     0.45149  0.45149  0.00000  0.09701
      15     H     0.45489  0.45489  0.00000  0.09023
      16     C     3.08833  3.08833  0.00000 -0.17667
      17     H     0.45159  0.45159  0.00000  0.09683
      18     H     0.45261  0.45261  0.00000  0.09478
      19     C     3.15779  3.15779  0.00000 -0.31558
      20     H     0.45081  0.45081  0.00000  0.09838
      21     H     0.45215  0.45215  0.00000  0.09570
      22     H     0.45411  0.45411  0.00000  0.09177
      23     H     0.44549  0.44549  0.00000  0.10902
      24     H     0.45271  0.45271  0.00000  0.09457

   Total alpha = 33.00000, Total beta = 33.00000, Total charge =  0.00000
