  ==> Input File <==

--------------------------------------------------------------------------
set {
	reference rhf
	basis cc-pvtz
}

set_num_threads( 4 )
memory 2 gb

molecule MOL {
0 1

H	 1.118078	 -1.584147	 0.694345
C	 0.490307	 -0.707127	 0.862238
N	 -0.537714	 -0.645117	 0.000000
O	 0.728458	 0.078550	 1.724046
C	 -1.522613	 0.412524	 0.000000
H	 -0.614845	 -1.370708	 -0.668994
H	 -2.150256	 0.356137	 -0.880771
H	 -1.005621	 1.357208	 0.000000
H	 -2.150256	 0.356137	 0.880771

	symmetry c1
}
set optking {
	frozen_dihedral = ("
		6 3 5 7
	")
}

ee = optimize('scf')
oeprop('DIPOLE', 'QUADRUPOLE', 'MULLIKEN_CHARGES')
f=open( 'psi4out.xyz', 'w' )
f.write( "9  " )
f.write( str(ee) + "\n" )
f.write( MOL.save_string_xyz() )
f.close()
--------------------------------------------------------------------------

    Molecular point group: c1
  Charge       = 0
  Multiplicity = 1
  Basis Set: CC-PVTZ
  Basis Set:
  @DF-RHF Final Energy:  -208.04315299393306
    Total Energy =                       -208.0431529939330346
    Molecular point group: c1
  Basis Set: CC-PVTZ
  Basis Set:
  Basis Set: CC-PVTZ
  Basis Set:
  @DF-RHF Final Energy:  -208.04358494522376
    Total Energy =                       -208.0435849452237562
  Basis Set: CC-PVTZ
  Basis Set:
  Basis Set: CC-PVTZ
  Basis Set:
  @DF-RHF Final Energy:  -208.04363296456671
    Total Energy =                       -208.0436329645666831
  Basis Set: CC-PVTZ
  Basis Set:
  Basis Set: CC-PVTZ
  Basis Set:
  @DF-RHF Final Energy:  -208.04365549931418
    Total Energy =                       -208.0436554993142693
  Basis Set: CC-PVTZ
  Basis Set:
  @DF-RHF Final Energy:  -208.04366139925452
    Total Energy =                       -208.0436613992544324
  Basis Set: CC-PVTZ
  Basis Set:
  @DF-RHF Final Energy:  -208.04366301326331
    Total Energy =                       -208.0436630132631990
  Basis Set: CC-PVTZ
  Basis Set:
  Basis Set: CC-PVTZ
  Basis Set:
  @DF-RHF Final Energy:  -208.04366626115734
    Total Energy =                       -208.0436662611571705
  Basis Set: CC-PVTZ
  Basis Set:
  Basis Set: CC-PVTZ
  Basis Set:
  @DF-RHF Final Energy:  -208.04366840189365
    Total Energy =                       -208.0436684018936262
  Basis Set: CC-PVTZ
  Basis Set:
  Charge       = 0
  Multiplicity = 1
  Basis Set: CC-PVTZ
  Basis Set:

    Orbital Energies (a.u.)
    -----------------------

    Doubly Occupied:

       1A    -20.516619     2A    -15.584378     3A    -11.335972
       4A    -11.260530     5A     -1.393957     6A     -1.239343
       7A     -0.969793     8A     -0.809272     9A     -0.749159
      10A     -0.645817    11A     -0.629953    12A     -0.596165
      13A     -0.559569    14A     -0.536946    15A     -0.428239
      16A     -0.396745

  @DF-RHF Final Energy:  -208.04366938732562

   => Energetics <=

    Nuclear Repulsion Energy =            122.9384117850726028
    One-Electron Energy =                -526.6592524554498596
    Two-Electron Energy =                 195.6771712830515924
    DFT Exchange-Correlation Energy =       0.0000000000000000
    Empirical Dispersion Energy =           0.0000000000000000
    PCM Polarization Energy =               0.0000000000000000
    EFP Energy =                            0.0000000000000000
    Total Energy =                       -208.0436693873256502
    Molecular point group: c1
  Basis Set: CC-PVTZ
  Basis Set:

  -Total Gradient:
     Atom            X                  Y                   Z
    ------   -----------------  -----------------  -----------------
       1       -0.000003563769     0.000001320765     0.000001066253
       2       -0.000010709965     0.000003012435    -0.000036989357
       3       -0.000042201951    -0.000063909401     0.000070901708
       4        0.000004651502     0.000011608899     0.000014080315
       5        0.000045780098     0.000054666053    -0.000036999203
       6        0.000030030521     0.000028807424    -0.000035776880
       7       -0.000019940883    -0.000026822796     0.000020346187
       8        0.000002771269    -0.000006162186     0.000004713794
       9       -0.000006816820    -0.000002521195    -0.000001342816

  **** Optimization is complete! (in 9 steps) ****
    Final optimized geometry and variables:
    Molecular point group: c1

    Geometry (in Angstrom), charge = 0, multiplicity = 1:

    H            1.349482499535    -1.378565063294     0.066725784056
    C            0.710454653014    -0.506929825368     0.220103266502
    N           -0.296567103070    -0.436230939205    -0.663328775578
    O            0.914435016434     0.283325862727     1.086719420139
    C           -1.277691609970     0.625584304268    -0.630626743038
    H           -0.392536628184    -1.167552427606    -1.322226125400
    H           -1.915627975992     0.535665439805    -1.497884478450
    H           -0.791428301224     1.590220403617    -0.650705818271
    H           -1.888036416426     0.571991515873     0.261619884300

  Mulliken Charges: (a.u.)
   Center  Symbol    Alpha    Beta     Spin     Total
       1     H     0.46443  0.46443  0.00000  0.07114
       2     C     2.87950  2.87950  0.00000  0.24101
       3     N     3.60564  3.60564  0.00000 -0.21128
       4     O     4.21438  4.21438  0.00000 -0.42875
       5     C     3.07506  3.07506  0.00000 -0.15013
       6     H     0.41001  0.41001  0.00000  0.17997
       7     H     0.45456  0.45456  0.00000  0.09087
       8     H     0.44536  0.44536  0.00000  0.10927
       9     H     0.45105  0.45105  0.00000  0.09789

   Total alpha = 16.00000, Total beta = 16.00000, Total charge = -0.00000
