  ==> Input File <==

--------------------------------------------------------------------------
set {
	reference rhf
	basis 6-31G*
}

set_num_threads( 4 )
memory 2 gb

molecule MOL {
0 1

H	 -3.135461	 -1.215070	 0.001379
O	 -2.310168	 -0.871793	 -0.309793
C	 -2.026376	 0.340750	 0.341611
C	 -0.673256	 0.843270	 -0.132153
H	 -2.792215	 1.080697	 0.115987
H	 -2.013526	 0.200402	 1.421792
C	 0.486613	 -0.083066	 0.235839
H	 -0.715586	 0.970948	 -1.210718
H	 -0.508072	 1.829858	 0.297090
C	 0.071027	 -1.211879	 1.180764
H	 1.278018	 0.502220	 0.692602
H	 0.904565	 -0.512788	 -0.673829
C	 1.228838	 -2.141023	 1.543860
H	 -0.345853	 -0.784065	 2.090106
H	 -0.727499	 -1.793035	 0.723535
H	 2.029268	 -1.594859	 2.034682
H	 0.905456	 -2.929860	 2.216248
H	 1.646277	 -2.611941	 0.658145

	symmetry c1
}
set optking {
	frozen_dihedral = ("
		10 7 4 8
	")
}

ee = optimize('scf')
oeprop('DIPOLE', 'QUADRUPOLE', 'MULLIKEN_CHARGES')
f=open( 'psi4out.xyz', 'w' )
f.write( "18  " )
f.write( str(ee) + "\n" )
f.write( MOL.save_string_xyz() )
f.close()
--------------------------------------------------------------------------

    Molecular point group: c1
  Charge       = 0
  Multiplicity = 1
  Basis Set: 6-31G*
  Basis Set:
  @DF-RHF Final Energy:  -271.16440764413056
    Total Energy =                       -271.1644076441302786
    Molecular point group: c1
  Basis Set: 6-31G*
  Basis Set:
  Basis Set: 6-31G*
  Basis Set:
  @DF-RHF Final Energy:  -271.16930374815348
    Total Energy =                       -271.1693037481536521
  Basis Set: 6-31G*
  Basis Set:
  Basis Set: 6-31G*
  Basis Set:
  @DF-RHF Final Energy:  -271.17065988651018
    Total Energy =                       -271.1706598865102933
  Basis Set: 6-31G*
  Basis Set:
  Basis Set: 6-31G*
  Basis Set:
  @DF-RHF Final Energy:  -271.17086882799600
    Total Energy =                       -271.1708688279960597
  Basis Set: 6-31G*
  Basis Set:
  Basis Set: 6-31G*
  Basis Set:
  @DF-RHF Final Energy:  -271.17093883895467
    Total Energy =                       -271.1709388389545552
  Basis Set: 6-31G*
  Basis Set:
  Basis Set: 6-31G*
  Basis Set:
  @DF-RHF Final Energy:  -271.17094888544744
    Total Energy =                       -271.1709488854472738
  Basis Set: 6-31G*
  Basis Set:
  Charge       = 0
  Multiplicity = 1
  Basis Set: 6-31G*
  Basis Set:

    Orbital Energies (a.u.)
    -----------------------

    Doubly Occupied:

       1A    -20.554041     2A    -11.267898     3A    -11.213011
       4A    -11.209215     5A    -11.206029     6A    -11.202905
       7A     -1.360201     8A     -1.069979     9A     -1.005540
      10A     -0.912463    11A     -0.833133    12A     -0.765125
      13A     -0.705653    14A     -0.642867    15A     -0.626456
      16A     -0.581166    17A     -0.562257    18A     -0.552534
      19A     -0.533429    20A     -0.494987    21A     -0.492389
      22A     -0.466111    23A     -0.451889    24A     -0.443955
      25A     -0.426837

  @DF-RHF Final Energy:  -271.17094944223595

   => Energetics <=

    Nuclear Repulsion Energy =            254.9691216669781397
    One-Electron Energy =                -873.1200063192792413
    Two-Electron Energy =                 346.9799352100650367
    DFT Exchange-Correlation Energy =       0.0000000000000000
    Empirical Dispersion Energy =           0.0000000000000000
    PCM Polarization Energy =               0.0000000000000000
    EFP Energy =                            0.0000000000000000
    Total Energy =                       -271.1709494422360649
    Molecular point group: c1
  Basis Set: 6-31G*
  Basis Set:

  -Total Gradient:
     Atom            X                  Y                   Z
    ------   -----------------  -----------------  -----------------
       1       -0.000003965741    -0.000001634887     0.000000135668
       2        0.000042185019     0.000025774522    -0.000013734714
       3       -0.000004284126    -0.000035610463     0.000076967099
       4        0.002876930599     0.003170466006    -0.000893290384
       5        0.000028602323    -0.000008931538    -0.000013605732
       6       -0.000018445071     0.000007999312     0.000007002980
       7        0.000415360779     0.001964631391     0.003499893557
       8       -0.002602329477    -0.003262384051    -0.000213322596
       9        0.000002965204    -0.000006670075    -0.000007655749
      10       -0.000753698975    -0.001925719017    -0.002429426582
      11       -0.000004030954     0.000005344209    -0.000004755221
      12       -0.000014803989     0.000013475412    -0.000012081733
      13       -0.000008653215     0.000014227951    -0.000010038280
      14        0.000002343730     0.000020061325    -0.000003425245
      15        0.000026683893     0.000010142844     0.000013765759
      16        0.000018520230    -0.000009431578     0.000019880047
      17       -0.000011815438     0.000005645699    -0.000014406996
      18        0.000008435207     0.000012612937    -0.000001901877

  **** Optimization is complete! (in 7 steps) ****
    Final optimized geometry and variables:
    Molecular point group: c1

    Geometry (in Angstrom), charge = 0, multiplicity = 1:

    H           -2.744197348396    -0.481916681399    -0.656005252909
    O           -1.876686256514    -0.203110530111    -0.912912157033
    C           -1.505067934993     0.932036180700    -0.169662201209
    C           -0.096244850296     1.342179390388    -0.575158315461
    H           -2.182308537783     1.756598486115    -0.385190737843
    H           -1.568344576876     0.731131883791     0.896565135493
    C            1.064012066648     0.392934687743    -0.171621799649
    H           -0.124769677675     1.430640203471    -1.656178481885
    H            0.082056438199     2.335658903624    -0.173600897754
    C            0.740574359522    -0.742441188780     0.805673203435
    H            1.873846694441     0.988338903801     0.242499927902
    H            1.465264819321    -0.059827735238    -1.073869990856
    C            1.965375968724    -1.612176297739     1.090099458192
    H            0.375717539999    -0.334083458773     1.746181510555
    H           -0.054887586512    -1.355108464095     0.399870778224
    H            2.771745875834    -1.029465485062     1.527215742741
    H            1.724812151701    -2.413759305982     1.782011945375
    H            2.343697599758    -2.065969921674     0.178360090780

  Mulliken Charges: (a.u.)
   Center  Symbol    Alpha    Beta     Spin     Total
       1     H     0.28090  0.28090  0.00000  0.43820
       2     O     4.36957  4.36957  0.00000 -0.73913
       3     C     3.00201  3.00201  0.00000 -0.00401
       4     C     3.16293  3.16293  0.00000 -0.32586
       5     H     0.42819  0.42819  0.00000  0.14363
       6     H     0.42950  0.42950  0.00000  0.14100
       7     C     3.15222  3.15222  0.00000 -0.30444
       8     H     0.41098  0.41098  0.00000  0.17805
       9     H     0.42172  0.42172  0.00000  0.15655
      10     C     3.16035  3.16035  0.00000 -0.32070
      11     H     0.42353  0.42353  0.00000  0.15293
      12     H     0.41864  0.41864  0.00000  0.16272
      13     C     3.23934  3.23934  0.00000 -0.47869
      14     H     0.42808  0.42808  0.00000  0.14384
      15     H     0.40597  0.40597  0.00000  0.18805
      16     H     0.42382  0.42382  0.00000  0.15237
      17     H     0.42078  0.42078  0.00000  0.15844
      18     H     0.42147  0.42147  0.00000  0.15706

   Total alpha = 25.00000, Total beta = 25.00000, Total charge =  0.00000
