                              Psi4 1.0.54 Driver

  ==> Input File <==

--------------------------------------------------------------------------
set {
	reference rhf
	basis cc-pvtz
}

set_num_threads( 4 )
memory 2 gb

molecule MOL {
0 1

O	 -0.294654	 1.318730	 -0.019675
C	 -0.448714	 0.145677	 -0.010200
C	 -1.780734	 -0.548137	 -0.008551
O	 0.550743	 -0.719877	 0.000412
H	 -1.856616	 -1.190181	 -0.876553
H	 -2.570204	 0.185466	 -0.018393
H	 -1.862998	 -1.173435	 0.871034
C	 1.863204	 -0.194033	 0.000410
H	 2.031502	 0.409177	 -0.879273
H	 2.524488	 -1.045142	 0.000793
H	 2.031291	 0.409823	 0.879686

	symmetry c1
}
set optking {
	frozen_dihedral = ("
		2 4 8 9
	")
}

ee,wfn = optimize('scf', return_wfn=True)
oeprop( wfn, 'DIPOLE', 'QUADRUPOLE', 'MULLIKEN_CHARGES')
f=open( 'psi4out.xyz', 'w' )
f.write( "11  " )
f.write( str(ee) + "\n" )
f.write( MOL.save_string_xyz() )
f.close()
--------------------------------------------------------------------------

    Molecular point group: c1
  Charge       = 0
  Multiplicity = 1
  Basis Set: CC-PVTZ
  Basis Set:
  @DF-RHF Final Energy:  -266.93923917471392
    Total Energy =                       -266.9392391747140891
    Molecular point group: c1
  Basis Set: CC-PVTZ
  Basis Set:
  Charge       = 0
  Multiplicity = 1
  Basis Set: CC-PVTZ
  Basis Set:

    Orbital Energies (a.u.)
    -----------------------

    Doubly Occupied:

       1A    -20.598821     2A    -20.535315     3A    -11.368834
       4A    -11.279982     5A    -11.233260     6A     -1.474368
       7A     -1.367677     8A     -1.037031     9A     -0.953705
      10A     -0.780227    11A     -0.698197    12A     -0.684658
      13A     -0.681209    14A     -0.595631    15A     -0.593717
      16A     -0.561875    17A     -0.526554    18A     -0.525798
      19A     -0.462407    20A     -0.446005

  @DF-RHF Final Energy:  -266.93923920547252

   => Energetics <=

    Nuclear Repulsion Energy =            183.7184176272870673
    One-Electron Energy =                -728.5047688539752926
    Two-Electron Energy =                 277.8471120212157643
    DFT Exchange-Correlation Energy =       0.0000000000000000
    Empirical Dispersion Energy =           0.0000000000000000
    PCM Polarization Energy =               0.0000000000000000
    EFP Energy =                            0.0000000000000000
    Total Energy =                       -266.9392392054724610
    Molecular point group: c1
  Basis Set: CC-PVTZ
  Basis Set:

  -Total Gradient:
     Atom            X                  Y                   Z
    ------   -----------------  -----------------  -----------------
       1       -0.000011758439    -0.000000472887     0.000041706016
       2        0.000014924475     0.000000897424    -0.000138856125
       3        0.000002873421     0.000002333729     0.000025556962
       4       -0.000023940230     0.000005735746     0.000123218696
       5        0.000005307640     0.000001688804    -0.000000713939
       6       -0.000000480705     0.000001874113    -0.000000064782
       7       -0.000002581239    -0.000001223097     0.000001065211
       8        0.000037777469    -0.000040245890    -0.000080502714
       9       -0.000006056741     0.000039687403     0.000027197826
      10        0.000004229773    -0.000002937343     0.000001966121
      11       -0.000020295424    -0.000007338001    -0.000000573272

  **** Optimization is complete! (in 2 steps) ****
    Final optimized geometry and variables:
    Molecular point group: c1

    Geometry (in Angstrom), charge = 0, multiplicity = 1:

    O           -0.294709042568     1.318794713644    -0.011504270160
    C           -0.448723462545     0.145715691972    -0.002746652987
    C           -1.780681472398    -0.548069043498    -0.001548471570
    O            0.550728374773    -0.719868315835     0.008115649515
    H           -1.856374227422    -1.189740144495    -0.869841475300
    H           -2.570141887243     0.185560728428    -0.011202453761
    H           -1.862970942382    -1.173675342317     0.877812612085
    C            1.863157197854    -0.194076821315     0.007245871001
    H            2.031459580338     0.408541185741    -0.872800003896
    H            2.524511670414    -1.045140248663     0.008672670839
    H            2.031152276863     0.410649147711     0.886004486344

  Mulliken Charges: (a.u.)
   Center  Symbol    Alpha    Beta     Spin     Total
       1     O     4.19664  4.19664  0.00000 -0.39328
       2     C     2.80186  2.80186  0.00000  0.39629
       3     C     3.13788  3.13788  0.00000 -0.27576
       4     O     4.14771  4.14771  0.00000 -0.29543
       5     H     0.44544  0.44544  0.00000  0.10911
       6     H     0.43787  0.43787  0.00000  0.12427
       7     H     0.44542  0.44542  0.00000  0.10915
       8     C     3.03351  3.03351  0.00000 -0.06703
       9     H     0.45400  0.45400  0.00000  0.09199
      10     H     0.44550  0.44550  0.00000  0.10901
      11     H     0.45417  0.45417  0.00000  0.09167

   Total alpha = 20.00000, Total beta = 20.00000, Total charge =  0.00000

*** Psi4 exiting successfully. Buy a developer a beer!
