  ==> Input File <==

--------------------------------------------------------------------------
set {
	reference rhf
	basis 6-31G*
}

set_num_threads( 4 )
memory 2 gb

molecule MOL {
0 1

H	 -2.089775	 -0.264320	 -2.044706
C	 -2.731904	 0.570010	 -1.736186
C	 -2.660244	 0.921717	 -0.272021
O	 -3.416355	 1.123624	 -2.534177
C	 -1.220012	 1.144545	 0.209990
H	 -3.277991	 1.795393	 -0.099429
H	 -3.097432	 0.089622	 0.278560
C	 -0.252658	 0.041456	 -0.226725
H	 -0.873521	 2.100229	 -0.171974
H	 -1.211708	 1.231594	 1.295398
C	 1.180775	 0.282413	 0.250794
H	 -0.266029	 -0.034465	 -1.312038
H	 -0.597733	 -0.921000	 0.146291
C	 2.148627	 -0.814315	 -0.201312
H	 1.516199	 1.249228	 -0.115937
H	 1.192670	 0.346017	 1.338083
C	 3.580890	 -0.659131	 0.322722
H	 2.166869	 -0.852443	 -1.289387
H	 1.762857	 -1.776509	 0.128956
C	 4.324889	 0.564933	 -0.213704
H	 4.142010	 -1.551473	 0.056605
H	 3.564836	 -0.624694	 1.410140
H	 4.342616	 0.565491	 -1.300421
H	 3.866655	 1.493402	 0.110242
H	 5.353900	 0.572371	 0.132816

	symmetry c1
}
set optking {
	frozen_dihedral = ("
		6 3 5 8
	")
}

ee = optimize('scf')
oeprop('DIPOLE', 'QUADRUPOLE', 'MULLIKEN_CHARGES')
f=open( 'psi4out.xyz', 'w' )
f.write( "25  " )
f.write( str(ee) + "\n" )
f.write( MOL.save_string_xyz() )
f.close()
--------------------------------------------------------------------------

    Molecular point group: c1
  Charge       = 0
  Multiplicity = 1
  Basis Set: 6-31G*
  Basis Set:
  @DF-RHF Final Energy:  -387.11675670060043
    Total Energy =                       -387.1167567006003765
    Molecular point group: c1
  Basis Set: 6-31G*
  Basis Set:
  Basis Set: 6-31G*
  Basis Set:
  @DF-RHF Final Energy:  -387.11689946626637
    Total Energy =                       -387.1168994662668865
  Basis Set: 6-31G*
  Basis Set:
  Basis Set: 6-31G*
  Basis Set:
  @DF-RHF Final Energy:  -387.11869456306766
    Total Energy =                       -387.1186945630671516
  Basis Set: 6-31G*
  Basis Set:
  Basis Set: 6-31G*
  Basis Set:
  @DF-RHF Final Energy:  -387.11907057452953
    Total Energy =                       -387.1190705745293599
  Basis Set: 6-31G*
  Basis Set:
  @DF-RHF Final Energy:  -387.11920887050093
    Total Energy =                       -387.1192088705007563
  @DF-RHF Final Energy:  -387.11924633046550
    Total Energy =                       -387.1192463304656712
  @DF-RHF Final Energy:  -387.11927272376414
    Total Energy =                       -387.1192727237639701
  @DF-RHF Final Energy:  -387.11929690843004
    Total Energy =                       -387.1192969084304423
  @DF-RHF Final Energy:  -387.11936344233862
    Total Energy =                       -387.1193634423384538
  @DF-RHF Final Energy:  -387.11951488123492
    Total Energy =                       -387.1195148812350908
  @DF-RHF Final Energy:  -387.11961716991084
    Total Energy =                       -387.1196171699103843
  @DF-RHF Final Energy:  -387.11962467638102
    Total Energy =                       -387.1196246763813633
  Basis Set: 6-31G*
  Basis Set:
  @DF-RHF Final Energy:  -387.11962146581357
    Total Energy =                       -387.1196214658129975
  Basis Set: 6-31G*
  Basis Set:
  Basis Set: 6-31G*
  Basis Set:
  @DF-RHF Final Energy:  -387.11962516452877
    Total Energy =                       -387.1196251645289976
  Basis Set: 6-31G*
  Basis Set:
  Basis Set: 6-31G*
  Basis Set:
  @DF-RHF Final Energy:  -387.11962752144115
    Total Energy =                       -387.1196275214413163
  Basis Set: 6-31G*
  Basis Set:
  Charge       = 0
  Multiplicity = 1
  Basis Set: 6-31G*
  Basis Set:

    Orbital Energies (a.u.)
    -----------------------

    Doubly Occupied:

       1A    -20.561297     2A    -11.324907     3A    -11.234733
       4A    -11.233797     5A    -11.227118     6A    -11.221121
       7A    -11.219157     8A    -11.218528     9A    -11.210914
      10A     -1.400989    11A     -1.103880    12A     -1.068815
      13A     -1.013010    14A     -0.942566    15A     -0.877145
      16A     -0.829391    17A     -0.783195    18A     -0.772455
      19A     -0.682963    20A     -0.654387    21A     -0.631348
      22A     -0.616934    23A     -0.612469    24A     -0.581897
      25A     -0.574127    26A     -0.563779    27A     -0.531388
      28A     -0.521453    29A     -0.515148    30A     -0.497431
      31A     -0.488317    32A     -0.478664    33A     -0.466091
      34A     -0.460057    35A     -0.442483    36A     -0.407258

  @DF-RHF Final Energy:  -387.11962754720952

   => Energetics <=

    Nuclear Repulsion Energy =            439.9547363231875465
    One-Electron Energy =               -1396.2103081964073681
    Two-Electron Energy =                 569.1359443260108719
    DFT Exchange-Correlation Energy =       0.0000000000000000
    Empirical Dispersion Energy =           0.0000000000000000
    PCM Polarization Energy =               0.0000000000000000
    EFP Energy =                            0.0000000000000000
    Total Energy =                       -387.1196275472090065
    Molecular point group: c1
  Basis Set: 6-31G*
  Basis Set:

  -Total Gradient:
     Atom            X                  Y                   Z
    ------   -----------------  -----------------  -----------------
       1        0.000014276530    -0.000009666594     0.000013981843
       2       -0.000020105867     0.000027156738     0.000010456271
       3       -0.000528522091    -0.000651713370     0.002462666719
       4        0.000010269152    -0.000008698874    -0.000002031550
       5       -0.000293200392    -0.001182840161     0.001911713042
       6        0.000516525284     0.000851371578    -0.002616476752
       7        0.000001277509     0.000001605588     0.000001365383
       8        0.000291926856     0.000962572276    -0.001792922004
       9       -0.000006007877     0.000009482119     0.000005745451
      10        0.000012106028    -0.000001749997     0.000003725588
      11        0.000000179091    -0.000008659483     0.000000919308
      12        0.000008877103    -0.000004096296     0.000008420138
      13       -0.000013380414     0.000009573367    -0.000003860736
      14       -0.000001479413     0.000008889993    -0.000003957522
      15       -0.000011741727    -0.000005971691     0.000001051861
      16        0.000010799907    -0.000006139131     0.000002275779
      17       -0.000002145506    -0.000002350176     0.000006810538
      18        0.000007165143     0.000001950746    -0.000004690305
      19       -0.000006176654     0.000007235630    -0.000003737337
      20        0.000002146979     0.000004328697    -0.000000289872
      21       -0.000004970449    -0.000001136855    -0.000000602815
      22        0.000004984028    -0.000001619963     0.000002279541
      23        0.000005223709    -0.000000291498    -0.000001558582
      24        0.000003732177    -0.000001760513    -0.000003885897
      25       -0.000001759104     0.000002527868     0.000002601908

  **** Optimization is complete! (in 16 steps) ****
    Final optimized geometry and variables:
    Molecular point group: c1

    Geometry (in Angstrom), charge = 0, multiplicity = 1:

    H           -2.829501067711    -0.883245933241    -1.466546694443
    C           -2.993548197930     0.163472501270    -1.191018098115
    C           -2.820141329027     0.507233889075     0.269576939972
    O           -3.280136172921     0.959790767335    -2.026526104801
    C           -1.346263727812     0.757556976410     0.644690924372
    H           -3.396767682482     1.407383086064     0.447502773530
    H           -3.225351849200    -0.301297027119     0.872652306596
    C           -0.373594406800    -0.347582696536     0.220950022466
    H           -1.033909860406     1.695385170350     0.193763366378
    H           -1.292192347247     0.897802509893     1.720463949848
    C            1.049959204018    -0.101950482527     0.725944023255
    H           -0.353206550653    -0.425773545330    -0.863843173890
    H           -0.725902848372    -1.309004162842     0.592359004950
    C            2.033576610043    -1.187831678603     0.281849389484
    H            1.384587404248     0.870557909889     0.374663076655
    H            1.040129067203    -0.049118556661     1.813493748420
    C            3.451554196042    -1.034550659308     0.843926701168
    H            2.080024798358    -1.208592418850    -0.805791671182
    H            1.644208017739    -2.156914940520     0.587456679596
    C            4.201388137886     0.203250503800     0.348121559778
    H            4.024084830156    -1.919233456615     0.576655845024
    H            3.407536732886    -1.019495352691     1.931080727886
    H            4.250647362208     0.220917706906    -0.737309292868
    H            3.727293594195     1.123486832972     0.672881115252
    H            5.219717211904     0.212450363344     0.724223751927

  Mulliken Charges: (a.u.)
   Center  Symbol    Alpha    Beta     Spin     Total
       1     H     0.42888  0.42888  0.00000  0.14223
       2     C     2.83863  2.83863  0.00000  0.32275
       3     C     3.20364  3.20364  0.00000 -0.40729
       4     O     4.23775  4.23775  0.00000 -0.47549
       5     C     3.15942  3.15942  0.00000 -0.31883
       6     H     0.39892  0.39892  0.00000  0.20216
       7     H     0.41463  0.41463  0.00000  0.17074
       8     C     3.16074  3.16074  0.00000 -0.32149
       9     H     0.41036  0.41036  0.00000  0.17928
      10     H     0.41436  0.41436  0.00000  0.17128
      11     C     3.15394  3.15394  0.00000 -0.30788
      12     H     0.41848  0.41848  0.00000  0.16303
      13     H     0.42270  0.42270  0.00000  0.15461
      14     C     3.15318  3.15318  0.00000 -0.30637
      15     H     0.41871  0.41871  0.00000  0.16259
      16     H     0.42296  0.42296  0.00000  0.15408
      17     C     3.15274  3.15274  0.00000 -0.30548
      18     H     0.42276  0.42276  0.00000  0.15447
      19     H     0.42235  0.42235  0.00000  0.15530
      20     C     3.24157  3.24157  0.00000 -0.48313
      21     H     0.42016  0.42016  0.00000  0.15969
      22     H     0.42318  0.42318  0.00000  0.15365
      23     H     0.42142  0.42142  0.00000  0.15715
      24     H     0.41999  0.41999  0.00000  0.16002
      25     H     0.41853  0.41853  0.00000  0.16294

   Total alpha = 36.00000, Total beta = 36.00000, Total charge = -0.00000
