  ==> Input File <==

--------------------------------------------------------------------------
set {
	reference rhf
	basis 6-31G*
}

set_num_threads( 4 )
memory 2 gb

molecule MOL {
0 1

O	 -2.042549	 -1.228399	 -0.269030
C	 -1.653912	 -0.146171	 0.050137
C	 -0.332303	 0.024011	 0.778412
C	 -2.438579	 1.106236	 -0.272369
C	 0.845713	 -0.001731	 -0.208243
H	 -0.323783	 0.953829	 1.340327
H	 -0.235459	 -0.796807	 1.480410
C	 0.787742	 1.139739	 -1.224470
H	 0.861385	 -0.952675	 -0.737906
H	 1.771478	 0.055180	 0.356435
C	 1.962789	 1.121832	 -2.201277
H	 -0.145791	 1.082250	 -1.780021
H	 0.771579	 2.089493	 -0.695061
H	 1.986067	 0.197093	 -2.770810
H	 2.909499	 1.210741	 -1.676607
H	 1.897130	 1.943394	 -2.907500
H	 -3.277823	 0.863061	 -0.908988
H	 -1.806773	 1.843019	 -0.759671
H	 -2.802853	 1.554979	 0.648059

	symmetry c1
}
set optking {
	frozen_dihedral = ("
		9 5 3 2
	")
}

ee = optimize('scf')
oeprop('DIPOLE', 'QUADRUPOLE', 'MULLIKEN_CHARGES')
f=open( 'psi4out.xyz', 'w' )
f.write( "19  " )
f.write( str(ee) + "\n" )
f.write( MOL.save_string_xyz() )
f.close()
--------------------------------------------------------------------------

    Molecular point group: c1
  Charge       = 0
  Multiplicity = 1
  Basis Set: 6-31G*
  Basis Set:
  @DF-RHF Final Energy:  -309.06126224806155
    Total Energy =                       -309.0612622480613823
    Molecular point group: c1
  Basis Set: 6-31G*
  Basis Set:
  Basis Set: 6-31G*
  Basis Set:
  @DF-RHF Final Energy:  -309.06335410528578
    Total Energy =                       -309.0633541052856117
  Basis Set: 6-31G*
  Basis Set:
  Basis Set: 6-31G*
  Basis Set:
  @DF-RHF Final Energy:  -309.06238619057336
    Total Energy =                       -309.0623861905735907
  Basis Set: 6-31G*
  Basis Set:
  Basis Set: 6-31G*
  Basis Set:
  @DF-RHF Final Energy:  -309.06405028012631
    Total Energy =                       -309.0640502801262528
  Basis Set: 6-31G*
  Basis Set:
  @DF-RHF Final Energy:  -309.06424746879560
    Total Energy =                       -309.0642474687956565
  @DF-RHF Final Energy:  -309.06437788834938
    Total Energy =                       -309.0643778883495543
  @DF-RHF Final Energy:  -309.06469410288764
    Total Energy =                       -309.0646941028875858
  @DF-RHF Final Energy:  -309.06534630764742
    Total Energy =                       -309.0653463076475873
  @DF-RHF Final Energy:  -309.06597149057734
    Total Energy =                       -309.0659714905769988
  @DF-RHF Final Energy:  -309.06570410638039
    Total Energy =                       -309.0657041063805082
  @DF-RHF Final Energy:  -309.06533251898418
    Total Energy =                       -309.0653325189843486
  @DF-RHF Final Energy:  -309.06618007339466
    Total Energy =                       -309.0661800733947757
  @DF-RHF Final Energy:  -309.06622537118625
    Total Energy =                       -309.0662253711862490
  Basis Set: 6-31G*
  Basis Set:
  @DF-RHF Final Energy:  -309.06628282879240
    Total Energy =                       -309.0662828287921116
  Basis Set: 6-31G*
  Basis Set:
  Basis Set: 6-31G*
  Basis Set:
  @DF-RHF Final Energy:  -309.06631152660077
    Total Energy =                       -309.0663115266006571
  Basis Set: 6-31G*
  Basis Set:
  Basis Set: 6-31G*
  Basis Set:
  @DF-RHF Final Energy:  -309.06631340105736
    Total Energy =                       -309.0663134010574140
  Basis Set: 6-31G*
  Basis Set:
  Charge       = 0
  Multiplicity = 1
  Basis Set: 6-31G*
  Basis Set:

    Orbital Energies (a.u.)
    -----------------------

    Doubly Occupied:

       1A    -20.550725     2A    -11.327316     3A    -11.232750
       4A    -11.229009     5A    -11.218990     6A    -11.212427
       7A    -11.206421     8A     -1.396329     9A     -1.083442
      10A     -1.028619    11A     -0.982461    12A     -0.884540
      13A     -0.803134    14A     -0.727339    15A     -0.665436
      16A     -0.631306    17A     -0.625296    18A     -0.613155
      19A     -0.577956    20A     -0.571454    21A     -0.561206
      22A     -0.523580    23A     -0.514516    24A     -0.493615
      25A     -0.474416    26A     -0.467146    27A     -0.459780
      28A     -0.400064

  @DF-RHF Final Energy:  -309.06631368524006

   => Energetics <=

    Nuclear Repulsion Energy =            307.3104771171703078
    One-Electron Energy =               -1027.8287250548250995
    Two-Electron Energy =                 411.4519342524143894
    DFT Exchange-Correlation Energy =       0.0000000000000000
    Empirical Dispersion Energy =           0.0000000000000000
    PCM Polarization Energy =               0.0000000000000000
    EFP Energy =                            0.0000000000000000
    Total Energy =                       -309.0663136852404023
    Molecular point group: c1
  Basis Set: 6-31G*
  Basis Set:

  -Total Gradient:
     Atom            X                  Y                   Z
    ------   -----------------  -----------------  -----------------
       1        0.000003729264     0.000005490898     0.000000562745
       2        0.000076306188     0.001715374932    -0.000507844789
       3        0.000168704245    -0.002611030593     0.001188504916
       4        0.000015649096     0.000018476687     0.000026378975
       5       -0.001399097371     0.001622404327    -0.002746854500
       6       -0.000015041802     0.000011123428     0.000007540119
       7        0.000007292839     0.000002769594    -0.000012075269
       8        0.000007591172    -0.000007279300     0.000038119084
       9        0.001148211988    -0.000750845566     0.002015343145
      10        0.000008215933    -0.000000964599    -0.000003888491
      11       -0.000009636850    -0.000008586242    -0.000005588965
      12        0.000002244312    -0.000001211316     0.000005876296
      13       -0.000009937503     0.000002504332     0.000003555190
      14        0.000001855221     0.000004129791     0.000005088382
      15       -0.000005558668     0.000006922183     0.000002579060
      16        0.000000517793    -0.000004623564    -0.000002968470
      17        0.000007811086     0.000002823508    -0.000005315326
      18       -0.000003185502    -0.000008909263    -0.000004709662
      19       -0.000005671440     0.000001430765    -0.000004302437

  **** Optimization is complete! (in 17 steps) ****
    Final optimized geometry and variables:
    Molecular point group: c1

    Geometry (in Angstrom), charge = 0, multiplicity = 1:

    O           -1.412760121444    -0.827815795681    -0.619406464549
    C           -1.359288998353    -0.227588893082     0.410424545453
    C           -0.061969508601    -0.050614099043     1.180825968843
    C           -2.598129563907     0.379725605019     1.034093704278
    C            1.211341113223    -0.319427088517     0.378835522111
    H           -0.042689011751     0.951539109596     1.604666584090
    H           -0.116283287654    -0.726887456826     2.033417631952
    C            1.443855519671     0.649116066550    -0.782241425361
    H            1.199253624633    -1.343540080900     0.020163800917
    H            2.052560896540    -0.250805779380     1.065908062450
    C            2.762797308966     0.383202010817    -1.507034299030
    H            0.624730169339     0.575425606820    -1.488032868783
    H            1.443139386771     1.669682935916    -0.401942904521
    H            2.783058332318    -0.619745089096    -1.923209344231
    H            3.610186225268     0.479770586816    -0.833698780899
    H            2.908451763922     1.082651684479    -2.324321827478
    H           -3.479072903791     0.036141892157     0.509919164927
    H           -2.543878594530     1.463130642477     0.968691111969
    H           -2.670888760981     0.123590122882     2.086629806905

  Mulliken Charges: (a.u.)
   Center  Symbol    Alpha    Beta     Spin     Total
       1     O     4.26323  4.26323  0.00000 -0.52647
       2     C     2.73439  2.73439  0.00000  0.53121
       3     C     3.21165  3.21165  0.00000 -0.42331
       4     C     3.28758  3.28758  0.00000 -0.57515
       5     C     3.14763  3.14763  0.00000 -0.29525
       6     H     0.41295  0.41295  0.00000  0.17410
       7     H     0.40416  0.40416  0.00000  0.19168
       8     C     3.15808  3.15808  0.00000 -0.31617
       9     H     0.40971  0.40971  0.00000  0.18059
      10     H     0.42184  0.42184  0.00000  0.15633
      11     C     3.24026  3.24026  0.00000 -0.48053
      12     H     0.40579  0.40579  0.00000  0.18843
      13     H     0.42814  0.42814  0.00000  0.14372
      14     H     0.41876  0.41876  0.00000  0.16247
      15     H     0.42375  0.42375  0.00000  0.15251
      16     H     0.41898  0.41898  0.00000  0.16205
      17     H     0.39671  0.39671  0.00000  0.20659
      18     H     0.40623  0.40623  0.00000  0.18753
      19     H     0.41017  0.41017  0.00000  0.17967

   Total alpha = 28.00000, Total beta = 28.00000, Total charge =  0.00000
