                              Psi4 1.0.54 Driver

  ==> Input File <==

--------------------------------------------------------------------------
set {
	reference rhf
	basis cc-pvtz
}

set_num_threads( 4 )
memory 2 gb

molecule MOL {
0 1

O	 1.715416	 -0.548713	 -0.089380
C	 0.860843	 0.273204	 -0.013120
C	 -0.623368	 -0.117453	 -0.005652
C	 1.234354	 1.739918	 0.072097
C	 -0.892588	 -1.253841	 -1.002900
C	 -1.473463	 1.100646	 -0.372896
C	 -0.981836	 -0.579025	 1.418506
H	 -0.609333	 -0.970024	 -2.010649
H	 -1.950451	 -1.487353	 -1.013175
H	 -0.360848	 -2.161259	 -0.746463
H	 -1.232203	 1.461623	 -1.364827
H	 -2.524364	 0.834451	 -0.354500
H	 -1.312381	 1.914833	 0.318657
H	 -2.035706	 -0.826342	 1.468082
H	 -0.425078	 -1.458934	 1.716857
H	 -0.788494	 0.205047	 2.140903
H	 1.148887	 2.069875	 1.101460
H	 2.259286	 1.855928	 -0.244958
H	 0.588921	 2.368118	 -0.526246

	symmetry c1
}
set optking {
	frozen_dihedral = ("
		1 2 3 5
	")
}

ee,wfn = optimize('scf', return_wfn=True)
oeprop( wfn, 'DIPOLE', 'QUADRUPOLE', 'MULLIKEN_CHARGES')
f=open( 'psi4out.xyz', 'w' )
f.write( "19  " )
f.write( str(ee) + "\n" )
f.write( MOL.save_string_xyz() )
f.close()
--------------------------------------------------------------------------

    Molecular point group: c1
  Charge       = 0
  Multiplicity = 1
  Basis Set: CC-PVTZ
  Basis Set:
  @DF-RHF Final Energy:  -309.16979980210169
    Total Energy =                       -309.1697998021019202
    Molecular point group: c1
  Basis Set: CC-PVTZ
  Basis Set:
  Basis Set: CC-PVTZ
  Basis Set:
  @DF-RHF Final Energy:  -308.87152553351888
    Total Energy =                       -308.8715255335189340
  Basis Set: CC-PVTZ
  Basis Set:
  Basis Set: CC-PVTZ
  Basis Set:
  @DF-RHF Final Energy:  -309.01622688440813
    Total Energy =                       -309.0162268844084110
  Basis Set: CC-PVTZ
  Basis Set:
  Basis Set: CC-PVTZ
  Basis Set:
  @DF-RHF Final Energy:  -309.14062246781441
    Total Energy =                       -309.1406224678144667
  Basis Set: CC-PVTZ
  Basis Set:
  @DF-RHF Final Energy:  -309.16911179166891
    Total Energy =                       -309.1691117916686835
  @DF-RHF Final Energy:  -309.17211580238290
    Total Energy =                       -309.1721158023829616
  @DF-RHF Final Energy:  -309.16934161351935
    Total Energy =                       -309.1693416135194639
  @DF-RHF Final Energy:  -309.17306229798226
    Total Energy =                       -309.1730622979824261
  @DF-RHF Final Energy:  -309.17340780441225
    Total Energy =                       -309.1734078044120224
  @DF-RHF Final Energy:  -309.17343577231043
    Total Energy =                       -309.1734357723100857
  @DF-RHF Final Energy:  -309.17347624035693
    Total Energy =                       -309.1734762403567629
  @DF-RHF Final Energy:  -309.17344988682356
    Total Energy =                       -309.1734498868235050
  Basis Set: CC-PVTZ
  Basis Set:
  @DF-RHF Final Energy:  -309.17349115391488
    Total Energy =                       -309.1734911539149948
  Basis Set: CC-PVTZ
  Basis Set:
  Basis Set: CC-PVTZ
  Basis Set:
  @DF-RHF Final Energy:  -309.17348854906930
    Total Energy =                       -309.1734885490695319
  Basis Set: CC-PVTZ
  Basis Set:
  Basis Set: CC-PVTZ
  Basis Set:
  @DF-RHF Final Energy:  -309.17349544449297
    Total Energy =                       -309.1734954444932555
  Basis Set: CC-PVTZ
  Basis Set:
  Charge       = 0
  Multiplicity = 1
  Basis Set: CC-PVTZ
  Basis Set:

    Orbital Energies (a.u.)
    -----------------------

    Doubly Occupied:

       1A    -20.536623     2A    -11.318319     3A    -11.245587
       4A    -11.225904     5A    -11.220239     6A    -11.219472
       7A    -11.209536     8A     -1.398270     9A     -1.109692
      10A     -1.004345    11A     -0.945101    12A     -0.937856
      13A     -0.834477    14A     -0.705663    15A     -0.666814
      16A     -0.633884    17A     -0.623606    18A     -0.591719
      19A     -0.588411    20A     -0.571077    21A     -0.550484
      22A     -0.546623    23A     -0.524742    24A     -0.514334
      25A     -0.503271    26A     -0.472500    27A     -0.464499
      28A     -0.393875

  @DF-RHF Final Energy:  -309.17349569405837

   => Energetics <=

    Nuclear Repulsion Energy =            326.8662141907177556
    One-Electron Energy =               -1066.9655697402993155
    Two-Electron Energy =                 430.9258598555230719
    DFT Exchange-Correlation Energy =       0.0000000000000000
    Empirical Dispersion Energy =           0.0000000000000000
    PCM Polarization Energy =               0.0000000000000000
    EFP Energy =                            0.0000000000000000
    Total Energy =                       -309.1734956940584880
    Molecular point group: c1
  Basis Set: CC-PVTZ
  Basis Set:

  -Total Gradient:
     Atom            X                  Y                   Z
    ------   -----------------  -----------------  -----------------
       1       -0.000300611597    -0.000702426704     0.001149423042
       2        0.000418037150     0.001264985820    -0.001700393813
       3       -0.000072776908    -0.001481272242     0.000906595964
       4        0.000005785603    -0.000008292367    -0.000013969355
       5       -0.000043042636     0.000920117107    -0.000322844136
       6       -0.000009515589     0.000006757605    -0.000003056150
       7       -0.000000898986     0.000009121368    -0.000014356337
       8        0.000015041464     0.000029785998    -0.000014006987
       9       -0.000035698365    -0.000006878356    -0.000012693671
      10        0.000019599171    -0.000029488650     0.000007969386
      11       -0.000012015872    -0.000013921582     0.000007336369
      12        0.000010229755     0.000006443532     0.000007237017
      13        0.000003359303    -0.000002741901    -0.000013015943
      14       -0.000006632768    -0.000003634120     0.000000596911
      15        0.000003298232     0.000002402140     0.000000409982
      16        0.000001358320     0.000000495855    -0.000002763857
      17       -0.000006136162     0.000001885187     0.000007629481
      18        0.000010021432     0.000007126374     0.000008651489
      19        0.000000598455    -0.000000465064     0.000001250608

  **** Optimization is complete! (in 16 steps) ****
    Final optimized geometry and variables:
    Molecular point group: c1

    Geometry (in Angstrom), charge = 0, multiplicity = 1:

    O            1.722767841145    -0.635639431462     0.067019875133
    C            0.846533564484     0.135188650554     0.292079963752
    C           -0.567841839204    -0.121650053578    -0.256239186017
    C            1.104309713840     1.336177427468     1.175704999230
    C           -0.452573242718    -0.674318312300    -1.681408442103
    C           -1.441569853293     1.138549642579    -0.273080604217
    C           -1.204015256200    -1.177467271135     0.664300390200
    H           -0.003516149330     0.054519982021    -2.347070839219
    H           -1.437348354190    -0.915210842217    -2.065784491513
    H            0.156196949608    -1.565684270334    -1.705170577940
    H           -1.011797040401     1.916242104493    -0.894300332857
    H           -2.415440096493     0.897965586114    -0.682197206913
    H           -1.598377160028     1.546674054697     0.717355397717
    H           -2.205658443169    -1.411732983750     0.322755232234
    H           -0.620016989088    -2.088092189583     0.664814646972
    H           -1.279429979097    -0.822862132847     1.687003721878
    H            0.419364996350     1.350757066763     2.015246368437
    H            2.119886016915     1.290910956079     1.536820094038
    H            0.956639957969     2.256112402166     0.623261222959

  Mulliken Charges: (a.u.)
   Center  Symbol    Alpha    Beta     Spin     Total
       1     O     4.18029  4.18029  0.00000 -0.36059
       2     C     2.84767  2.84767  0.00000  0.30467
       3     C     3.00620  3.00620  0.00000 -0.01240
       4     C     3.16412  3.16412  0.00000 -0.32825
       5     C     3.15287  3.15287  0.00000 -0.30574
       6     C     3.16576  3.16576  0.00000 -0.33152
       7     C     3.15412  3.15412  0.00000 -0.30825
       8     H     0.44998  0.44998  0.00000  0.10005
       9     H     0.45124  0.45124  0.00000  0.09752
      10     H     0.43503  0.43503  0.00000  0.12994
      11     H     0.44484  0.44484  0.00000  0.11032
      12     H     0.44259  0.44259  0.00000  0.11482
      13     H     0.44561  0.44561  0.00000  0.10879
      14     H     0.44795  0.44795  0.00000  0.10409
      15     H     0.43821  0.43821  0.00000  0.12358
      16     H     0.44871  0.44871  0.00000  0.10259
      17     H     0.44648  0.44648  0.00000  0.10705
      18     H     0.43172  0.43172  0.00000  0.13656
      19     H     0.44661  0.44661  0.00000  0.10677

   Total alpha = 28.00000, Total beta = 28.00000, Total charge =  0.00000

*** Psi4 exiting successfully. Buy a developer a beer!
