  ==> Input File <==

--------------------------------------------------------------------------
set {
	reference rhf
	basis cc-pvtz
}

set_num_threads( 4 )
memory 2 gb

molecule MOL {
0 1

O	 0.929984	 -1.737852	 1.921590
C	 0.203467	 -1.482109	 1.023453
C	 -1.210948	 -1.970270	 0.893900
O	 0.550743	 -0.719877	 0.000412
H	 -1.883143	 -1.123967	 0.836202
H	 -1.459887	 -2.585781	 1.742845
H	 -1.316656	 -2.537062	 -0.022074
C	 1.863204	 -0.194033	 0.000410
H	 2.031502	 0.409177	 -0.879273
H	 2.524488	 -1.045142	 0.000793
H	 2.031291	 0.409823	 0.879686

	symmetry c1
}
set optking {
	frozen_dihedral = ("
		2 4 8 9
	")
}

ee = optimize('scf')
oeprop('DIPOLE', 'QUADRUPOLE', 'MULLIKEN_CHARGES')
f=open( 'psi4out.xyz', 'w' )
f.write( "11  " )
f.write( str(ee) + "\n" )
f.write( MOL.save_string_xyz() )
f.close()
--------------------------------------------------------------------------

    Molecular point group: c1
  Charge       = 0
  Multiplicity = 1
  Basis Set: CC-PVTZ
  Basis Set:
  @DF-RHF Final Energy:  -266.93767524064151
    Total Energy =                       -266.9376752406412834
    Molecular point group: c1
  Basis Set: CC-PVTZ
  Basis Set:
  Basis Set: CC-PVTZ
  Basis Set:
  @DF-RHF Final Energy:  -266.93894806385657
    Total Energy =                       -266.9389480638567420
  Basis Set: CC-PVTZ
  Basis Set:
  Basis Set: CC-PVTZ
  Basis Set:
  @DF-RHF Final Energy:  -266.93908638721155
    Total Energy =                       -266.9390863872114323
  Basis Set: CC-PVTZ
  Basis Set:
  Basis Set: CC-PVTZ
  Basis Set:
  @DF-RHF Final Energy:  -266.93900501929613
    Total Energy =                       -266.9390050192962462
  Basis Set: CC-PVTZ
  Basis Set:
  Charge       = 0
  Multiplicity = 1
  Basis Set: CC-PVTZ
  Basis Set:

    Orbital Energies (a.u.)
    -----------------------

    Doubly Occupied:

       1A    -20.598847     2A    -20.535327     3A    -11.368849
       4A    -11.280012     5A    -11.233256     6A     -1.474324
       7A     -1.367665     8A     -1.037002     9A     -0.953693
      10A     -0.780222    11A     -0.698160    12A     -0.684645
      13A     -0.681213    14A     -0.595645    15A     -0.593689
      16A     -0.561857    17A     -0.526581    18A     -0.525753
      19A     -0.462435    20A     -0.446006

  @DF-RHF Final Energy:  -266.93923937396892

   => Energetics <=

    Nuclear Repulsion Energy =            183.7106963990577242
    One-Electron Energy =                -728.4895055795464032
    Two-Electron Energy =                 277.8395698065198758
    DFT Exchange-Correlation Energy =       0.0000000000000000
    Empirical Dispersion Energy =           0.0000000000000000
    PCM Polarization Energy =               0.0000000000000000
    EFP Energy =                            0.0000000000000000
    Total Energy =                       -266.9392393739688032
    Molecular point group: c1
  Basis Set: CC-PVTZ
  Basis Set:

  -Total Gradient:
     Atom            X                  Y                   Z
    ------   -----------------  -----------------  -----------------
       1        0.000028778215    -0.000085231794     0.000023985121
       2       -0.000025588235     0.000154041468     0.000092506682
       3       -0.000004256944    -0.000041521456    -0.000041726209
       4       -0.000169981775    -0.000110596033    -0.000015787666
       5        0.000007920538     0.000002690306     0.000001386800
       6        0.000014497004     0.000002680432    -0.000001412516
       7       -0.000009800766    -0.000006137508    -0.000002688616
       8        0.000033651728    -0.000085090295     0.000019880976
       9        0.000123141910     0.000081658356    -0.000009331228
      10        0.000000899674     0.000030458862    -0.000037293552
      11        0.000000738653     0.000057047663    -0.000029519791

  **** Optimization is complete! (in 5 steps) ****
    Final optimized geometry and variables:
    Molecular point group: c1

    Geometry (in Angstrom), charge = 0, multiplicity = 1:

    O            0.440043721374    -0.537072397270     1.159438311187
    C           -0.283476467451    -0.271624265168     0.261660874480
    C           -1.701067215615    -0.749218880496     0.127855420096
    O            0.070675267080     0.492386828120    -0.757768305120
    H           -2.367203115210     0.102077776274     0.073464796763
    H           -1.955309396914    -1.367071644955     0.973524048548
    H           -1.809436393297    -1.310812934180    -0.791001592250
    C            1.387087247530     1.008536529456    -0.753769273691
    H            1.479809814430     1.595844563903    -1.652873731615
    H            2.110389378565     0.206797539896    -0.755762742707
    H            1.550080169924     1.628889879853     0.114952560085

  Mulliken Charges: (a.u.)
   Center  Symbol    Alpha    Beta     Spin     Total
       1     O     4.19663  4.19663  0.00000 -0.39326
       2     C     2.80184  2.80184  0.00000  0.39632
       3     C     3.13788  3.13788  0.00000 -0.27575
       4     O     4.14776  4.14776  0.00000 -0.29551
       5     H     0.44544  0.44544  0.00000  0.10913
       6     H     0.43787  0.43787  0.00000  0.12426
       7     H     0.44543  0.44543  0.00000  0.10914
       8     C     3.03347  3.03347  0.00000 -0.06695
       9     H     0.44552  0.44552  0.00000  0.10895
      10     H     0.45407  0.45407  0.00000  0.09187
      11     H     0.45410  0.45410  0.00000  0.09180

   Total alpha = 20.00000, Total beta = 20.00000, Total charge = -0.00000
