                              Psi4 1.0.54 Driver

  ==> Input File <==

--------------------------------------------------------------------------
set {
	reference rhf
	basis cc-pvtz
}

set_num_threads( 4 )
memory 2 gb

molecule MOL {
0 1

H	 -2.262080	 1.548205	 -2.349214
C	 -2.974536	 1.686710	 -1.524527
C	 -2.653809	 0.914422	 -0.273689
O	 -3.912226	 2.392561	 -1.665308
C	 -1.216901	 1.136108	 0.207794
H	 -3.375317	 1.178381	 0.488601
H	 -2.791648	 -0.137376	 -0.514577
C	 -0.247837	 0.040196	 -0.230469
H	 -0.872882	 2.093195	 -0.169002
H	 -1.209325	 1.218376	 1.291938
C	 1.181757	 0.280428	 0.247371
H	 -0.259600	 -0.030819	 -1.314870
H	 -0.591284	 -0.923375	 0.136958
C	 2.151032	 -0.811012	 -0.202643
H	 1.515939	 1.247397	 -0.115449
H	 1.191514	 0.341223	 1.333422
C	 3.580021	 -0.656538	 0.320835
H	 2.170545	 -0.847575	 -1.289412
H	 1.766632	 -1.772905	 0.124928
C	 4.327657	 0.562694	 -0.213579
H	 4.138806	 -1.549270	 0.057813
H	 3.561991	 -0.620783	 1.406976
H	 4.355973	 0.557257	 -1.298551
H	 3.867136	 1.491650	 0.100501
H	 5.351524	 0.571613	 0.142204

	symmetry c1
}
set optking {
	frozen_dihedral = ("
		6 3 5 8
	")
}

ee,wfn = optimize('scf', return_wfn=True)
oeprop( wfn, 'DIPOLE', 'QUADRUPOLE', 'MULLIKEN_CHARGES')
f=open( 'psi4out.xyz', 'w' )
f.write( "25  " )
f.write( str(ee) + "\n" )
f.write( MOL.save_string_xyz() )
f.close()
--------------------------------------------------------------------------

    Molecular point group: c1
  Charge       = 0
  Multiplicity = 1
  Basis Set: CC-PVTZ
  Basis Set:
  @DF-RHF Final Energy:  -387.25674611458174
    Total Energy =                       -387.2567461145816878
    Molecular point group: c1
  Basis Set: CC-PVTZ
  Basis Set:
  Basis Set: CC-PVTZ
  Basis Set:
  @DF-RHF Final Energy:  -387.25627200626064
    Total Energy =                       -387.2562720062605877
  Basis Set: CC-PVTZ
  Basis Set:
  Basis Set: CC-PVTZ
  Basis Set:
  @DF-RHF Final Energy:  -387.25529706360163
    Total Energy =                       -387.2552970636018017
  Basis Set: CC-PVTZ
  Basis Set:
  Basis Set: CC-PVTZ
  Basis Set:
  @DF-RHF Final Energy:  -387.25708548775015
    Total Energy =                       -387.2570854877506008
  Basis Set: CC-PVTZ
  Basis Set:
  @DF-RHF Final Energy:  -387.25711859939554
    Total Energy =                       -387.2571185993958807
  Basis Set: CC-PVTZ
  Basis Set:
  @DF-RHF Final Energy:  -387.25712448446143
    Total Energy =                       -387.2571244844614284
  Basis Set: CC-PVTZ
  Basis Set:
  Basis Set: CC-PVTZ
  Basis Set:
  @DF-RHF Final Energy:  -387.25712859897783
    Total Energy =                       -387.2571285989781700
  Basis Set: CC-PVTZ
  Basis Set:
  Basis Set: CC-PVTZ
  Basis Set:
  @DF-RHF Final Energy:  -387.25713017670694
    Total Energy =                       -387.2571301767067098
  Basis Set: CC-PVTZ
  Basis Set:
  Charge       = 0
  Multiplicity = 1
  Basis Set: CC-PVTZ
  Basis Set:

    Orbital Energies (a.u.)
    -----------------------

    Doubly Occupied:

       1A    -20.550708     2A    -11.321040     3A    -11.233566
       4A    -11.232988     5A    -11.225804     6A    -11.219927
       7A    -11.218490     8A    -11.217836     9A    -11.210448
      10A     -1.405937    11A     -1.106507    12A     -1.071748
      13A     -1.016063    14A     -0.945619    15A     -0.877378
      16A     -0.821164    17A     -0.791714    18A     -0.784294
      19A     -0.671798    20A     -0.665108    21A     -0.636272
      22A     -0.621879    23A     -0.608256    24A     -0.593692
      25A     -0.573567    26A     -0.560491    27A     -0.541708
      28A     -0.522332    29A     -0.509855    30A     -0.504592
      31A     -0.486481    32A     -0.480344    33A     -0.467485
      34A     -0.461846    35A     -0.448005    36A     -0.410848

  @DF-RHF Final Energy:  -387.25713061288849

   => Energetics <=

    Nuclear Repulsion Energy =            435.0445776847822685
    One-Electron Energy =               -1386.5718407571248463
    Two-Electron Energy =                 564.2701324594538619
    DFT Exchange-Correlation Energy =       0.0000000000000000
    Empirical Dispersion Energy =           0.0000000000000000
    PCM Polarization Energy =               0.0000000000000000
    EFP Energy =                            0.0000000000000000
    Total Energy =                       -387.2571306128886590
    Molecular point group: c1
  Basis Set: CC-PVTZ
  Basis Set:

  -Total Gradient:
     Atom            X                  Y                   Z
    ------   -----------------  -----------------  -----------------
       1       -0.000006500601     0.000021198955     0.000010049303
       2       -0.000040180248    -0.000025714891    -0.000055115157
       3       -0.000227526518     0.002617507050    -0.000431015418
       4        0.000042245912    -0.000004191399     0.000010907742
       5        0.000553224046     0.000690473027    -0.001873037062
       6        0.000036681015    -0.002399674549     0.000850963966
       7        0.000000126793     0.000036020406     0.000001650174
       8       -0.000377829379    -0.000910446229     0.001465978053
       9        0.000019839214    -0.000026685295     0.000011984435
      10       -0.000013589185     0.000010079003    -0.000007858906
      11        0.000005971299    -0.000019966754     0.000012257611
      12       -0.000001862389    -0.000019363953    -0.000016581366
      13       -0.000005735345     0.000037244751     0.000012039666
      14        0.000013975872     0.000008544479     0.000010388354
      15        0.000004888472    -0.000000373268     0.000006790152
      16       -0.000002874269    -0.000002392512     0.000005841963
      17        0.000006586812    -0.000005137221    -0.000024598676
      18        0.000002911420    -0.000004999050     0.000002926381
      19        0.000006464140     0.000000862726     0.000008391095
      20       -0.000005439273    -0.000001043862     0.000003871735
      21        0.000004815394    -0.000004887017    -0.000001580794
      22       -0.000008666505     0.000000239708    -0.000007975283
      23       -0.000000872827    -0.000000478378     0.000003646013
      24       -0.000007828828     0.000004833277    -0.000000757347
      25        0.000001174978    -0.000001649004     0.000000833366

  **** Optimization is complete! (in 9 steps) ****
    Final optimized geometry and variables:
    Molecular point group: c1

    Geometry (in Angstrom), charge = 0, multiplicity = 1:

    H           -2.207087695089     1.053851932300    -1.937824901788
    C           -2.986039871722     1.089772824098    -1.164763214815
    C           -2.685329129753     0.311153953240     0.086107295565
    O           -3.974773011581     1.710176782694    -1.351648217847
    C           -1.245103762818     0.518739828652     0.590551940925
    H           -3.421204170750     0.564498295249     0.836337371675
    H           -2.837216731835    -0.738834427847    -0.154863865404
    C           -0.271787315726    -0.572561061966     0.150041987360
    H           -0.877506443740     1.489552183661     0.269080242877
    H           -1.261580982005     0.554620258654     1.673788203391
    C            1.155917850921    -0.339004553119     0.635420766820
    H           -0.273141737783    -0.649007191482    -0.935184640549
    H           -0.628517589619    -1.529910149282     0.520748128745
    C            2.120004781769    -1.442685840586     0.204332971160
    H            1.500808264121     0.621423925581     0.265781414829
    H            1.156781750218    -0.267091173544     1.720739880668
    C            3.546338649384    -1.293206519070     0.736348431037
    H            2.147506907688    -1.491393045279    -0.881911393520
    H            1.726161308961    -2.398137269543     0.539953006708
    C            4.306280659382    -0.084779698763     0.194927775586
    H            4.100465594405    -2.192613721323     0.486454742579
    H            3.520536197109    -1.246175499327     1.821830069883
    H            4.341694188720    -0.101060883772    -0.889725547865
    H            3.850783787777     0.850561997141     0.496989443846
    H            5.327788377722    -0.080058639341     0.557341994927

  Mulliken Charges: (a.u.)
   Center  Symbol    Alpha    Beta     Spin     Total
       1     H     0.46526  0.46526  0.00000  0.06949
       2     C     2.90364  2.90364  0.00000  0.19273
       3     C     3.08800  3.08800  0.00000 -0.17599
       4     O     4.16533  4.16533  0.00000 -0.33066
       5     C     3.11329  3.11329  0.00000 -0.22657
       6     H     0.43545  0.43545  0.00000  0.12910
       7     H     0.44973  0.44973  0.00000  0.10055
       8     C     3.09052  3.09052  0.00000 -0.18104
       9     H     0.44799  0.44799  0.00000  0.10403
      10     H     0.44151  0.44151  0.00000  0.11698
      11     C     3.09380  3.09380  0.00000 -0.18761
      12     H     0.45344  0.45344  0.00000  0.09313
      13     H     0.45082  0.45082  0.00000  0.09835
      14     C     3.09554  3.09554  0.00000 -0.19108
      15     H     0.45075  0.45075  0.00000  0.09850
      16     H     0.45307  0.45307  0.00000  0.09386
      17     C     3.09055  3.09055  0.00000 -0.18109
      18     H     0.45348  0.45348  0.00000  0.09305
      19     H     0.44914  0.44914  0.00000  0.10172
      20     C     3.15266  3.15266  0.00000 -0.30533
      21     H     0.44773  0.44773  0.00000  0.10455
      22     H     0.45430  0.45430  0.00000  0.09140
      23     H     0.45459  0.45459  0.00000  0.09082
      24     H     0.45386  0.45386  0.00000  0.09227
      25     H     0.44558  0.44558  0.00000  0.10884

   Total alpha = 36.00000, Total beta = 36.00000, Total charge = -0.00000

*** Psi4 exiting successfully. Buy a developer a beer!
