  ==> Input File <==

--------------------------------------------------------------------------
set {
	reference rhf
	basis 6-31G*
}

set_num_threads( 4 )
memory 2 gb

molecule MOL {
0 1

H	 3.109895	 -3.047881	 -2.602807
C	 2.991580	 -1.977911	 -2.743124
C	 1.692212	 -1.478496	 -2.112724
H	 3.853163	 -1.488753	 -2.298443
H	 3.012847	 -1.779964	 -3.811377
C	 1.490608	 0.027038	 -2.298563
H	 1.693596	 -1.715290	 -1.053701
H	 0.850918	 -2.011157	 -2.553391
C	 0.188966	 0.553173	 -1.693438
H	 2.324912	 0.562626	 -1.859558
H	 1.490696	 0.256922	 -3.361669
C	 0.169600	 0.576866	 -0.172154
H	 0.018964	 1.577513	 -2.021462
H	 -0.665060	 -0.016186	 -2.053504
C	 -1.181045	 0.701995	 0.511084
O	 1.176543	 0.518283	 0.467407
C	 -2.285934	 -0.139295	 -0.145128
H	 -1.449051	 1.751551	 0.493206
H	 -1.071135	 0.403303	 1.551943
C	 -3.651768	 0.085446	 0.506485
H	 -2.346596	 0.110469	 -1.202272
H	 -2.034737	 -1.195320	 -0.088721
C	 -4.759797	 -0.746382	 -0.137905
H	 -3.908762	 1.140117	 0.445781
H	 -3.588286	 -0.154158	 1.565709
H	 -4.868882	 -0.505166	 -1.191300
H	 -4.548009	 -1.809175	 -0.062213
H	 -5.715422	 -0.564821	 0.343442

	symmetry c1
}
set optking {
	frozen_dihedral = ("
		16 12 15 17
	")
}

ee = optimize('scf')
oeprop('DIPOLE', 'QUADRUPOLE', 'MULLIKEN_CHARGES')
f=open( 'psi4out.xyz', 'w' )
f.write( "28  " )
f.write( str(ee) + "\n" )
f.write( MOL.save_string_xyz() )
f.close()
--------------------------------------------------------------------------

    Molecular point group: c1
  Charge       = 0
  Multiplicity = 1
  Basis Set: 6-31G*
  Basis Set:
  @DF-RHF Final Energy:  -426.16462083225213
    Total Energy =                       -426.1646208322517850
    Molecular point group: c1
  Basis Set: 6-31G*
  Basis Set:
  Basis Set: 6-31G*
  Basis Set:
  @DF-RHF Final Energy:  -426.16550567375452
    Total Energy =                       -426.1655056737548648
  Basis Set: 6-31G*
  Basis Set:
  Basis Set: 6-31G*
  Basis Set:
  @DF-RHF Final Energy:  -426.16732697264763
    Total Energy =                       -426.1673269726475155
  Basis Set: 6-31G*
  Basis Set:
  Basis Set: 6-31G*
  Basis Set:
  @DF-RHF Final Energy:  -426.16759506891344
    Total Energy =                       -426.1675950689129877
  Basis Set: 6-31G*
  Basis Set:
  @DF-RHF Final Energy:  -426.16787386325359
    Total Energy =                       -426.1678738632533623
  @DF-RHF Final Energy:  -426.16813493893915
    Total Energy =                       -426.1681349389391471
  @DF-RHF Final Energy:  -426.16822467371628
    Total Energy =                       -426.1682246737162814
  Basis Set: 6-31G*
  Basis Set:
  @DF-RHF Final Energy:  -426.16824430200427
    Total Energy =                       -426.1682443020042683
  Basis Set: 6-31G*
  Basis Set:
  Basis Set: 6-31G*
  Basis Set:
  @DF-RHF Final Energy:  -426.16825478936084
    Total Energy =                       -426.1682547893606170
  Basis Set: 6-31G*
  Basis Set:
  Basis Set: 6-31G*
  Basis Set:
  @DF-RHF Final Energy:  -426.16825687326741
    Total Energy =                       -426.1682568732665004
  Basis Set: 6-31G*
  Basis Set:
  Charge       = 0
  Multiplicity = 1
  Basis Set: 6-31G*
  Basis Set:

    Orbital Energies (a.u.)
    -----------------------

    Doubly Occupied:

       1A    -20.547871     2A    -11.323126     3A    -11.231682
       4A    -11.230416     5A    -11.229683     6A    -11.226312
       7A    -11.216711     8A    -11.216023     9A    -11.209576
      10A    -11.204180    11A     -1.393497    12A     -1.095531
      13A     -1.076268    14A     -1.022411    15A     -0.990062
      16A     -0.907196    17A     -0.873855    18A     -0.809689
      19A     -0.799123    20A     -0.722224    21A     -0.668920
      22A     -0.654642    23A     -0.628242    24A     -0.618981
      25A     -0.607566    26A     -0.588297    27A     -0.578335
      28A     -0.570734    29A     -0.546254    30A     -0.525818
      31A     -0.524244    32A     -0.508416    33A     -0.497701
      34A     -0.485572    35A     -0.478131    36A     -0.474986
      37A     -0.469401    38A     -0.464422    39A     -0.455770
      40A     -0.392236

  @DF-RHF Final Energy:  -426.16825733073631

   => Energetics <=

    Nuclear Repulsion Energy =            532.2924799884085587
    One-Electron Energy =               -1632.7932651138269193
    Two-Electron Energy =                 674.3325277946821643
    DFT Exchange-Correlation Energy =       0.0000000000000000
    Empirical Dispersion Energy =           0.0000000000000000
    PCM Polarization Energy =               0.0000000000000000
    EFP Energy =                            0.0000000000000000
    Total Energy =                       -426.1682573307361963
    Molecular point group: c1
  Basis Set: 6-31G*
  Basis Set:

  -Total Gradient:
     Atom            X                  Y                   Z
    ------   -----------------  -----------------  -----------------
       1       -0.000004031812     0.000001183473     0.000002416410
       2       -0.000001488067     0.000008726914    -0.000004207159
       3       -0.000001417976    -0.000005432214     0.000016915972
       4        0.000001488563     0.000000484004    -0.000000895212
       5        0.000003189508    -0.000000707315    -0.000002239186
       6       -0.000001245858    -0.000003895407     0.000022151836
       7       -0.000004345645    -0.000000084956    -0.000001972666
       8       -0.000001054492     0.000006249218    -0.000002971687
       9       -0.000016793863    -0.000027622591     0.000002200518
      10        0.000009033244    -0.000000021357     0.000001991384
      11       -0.000017708190     0.000005553489     0.000003873105
      12       -0.000287476874    -0.000957443309    -0.000083416926
      13        0.000001761066     0.000005862716    -0.000002848175
      14       -0.000005035473     0.000006572672    -0.000001336544
      15        0.000175471212    -0.000416932635     0.000586015931
      16        0.000205164415     0.000853278094    -0.000071070821
      17       -0.000076778290     0.000513599268    -0.000430262940
      18       -0.000003830563     0.000017210724    -0.000001668994
      19        0.000019536908     0.000004531789    -0.000031061100
      20       -0.000003161166    -0.000009392670     0.000009291910
      21        0.000006837490    -0.000001480442    -0.000005826914
      22       -0.000002070386    -0.000005338038    -0.000002306796
      23        0.000003153335     0.000002993262    -0.000003346763
      24        0.000001062133    -0.000000145136    -0.000000996455
      25       -0.000002234294     0.000000442343     0.000002212349
      26       -0.000000676735    -0.000001027306    -0.000002104163
      27        0.000000131213     0.000000307727     0.000001622569
      28        0.000002520597     0.000002527683    -0.000000159487

  **** Optimization is complete! (in 11 steps) ****
    Final optimized geometry and variables:
    Molecular point group: c1

    Geometry (in Angstrom), charge = 0, multiplicity = 1:

    H            4.140699834858    -2.495156538216    -1.895299724779
    C            3.828935483623    -1.459897176536    -1.993380806574
    C            2.438855792076    -1.243340765665    -1.396786270604
    H            4.568688908697    -0.843294603259    -1.491303152665
    H            3.849077576919    -1.207151758702    -3.050180397243
    C            1.963712175748     0.205388414931    -1.530537178052
    H            2.447093392163    -1.525389863920    -0.350227946725
    H            1.727962980796    -1.900018912956    -1.896131605671
    C            0.568986017265     0.455556157104    -0.955766181661
    H            2.673686429161     0.866932188807    -1.045483164567
    H            1.950104324884     0.475909017801    -2.584072639447
    C            0.508673591065     0.501891193668     0.562229509640
    H            0.172887091800     1.403841152223    -1.317392676562
    H           -0.127359359393    -0.301135367763    -1.309144547186
    C           -0.823286459836     0.842546273712     1.215017643539
    O            1.481436384345     0.342482371307     1.236585040855
    C           -2.064968369010     0.161851390193     0.628152579888
    H           -0.939544878723     1.923699012518     1.140689739555
    H           -0.719555816708     0.610264996546     2.268260912460
    C           -3.331377532260     0.487820625849     1.422677321935
    H           -2.207424568753     0.466771552193    -0.404881937101
    H           -1.919658792773    -0.916733277728     0.615665486916
    C           -4.580552678499    -0.177695630203     0.847009534132
    H           -3.473504733202     1.566140325117     1.445299442659
    H           -3.197991469389     0.175353347612     2.455527930873
    H           -4.760914652775     0.142711483704    -0.175198267537
    H           -4.481584011579    -1.259378802271     0.841765870971
    H           -5.460789450011     0.070700993770     1.431276368635

  Mulliken Charges: (a.u.)
   Center  Symbol    Alpha    Beta     Spin     Total
       1     H     0.41951  0.41951  0.00000  0.16097
       2     C     3.24040  3.24040  0.00000 -0.48080
       3     C     3.15598  3.15598  0.00000 -0.31197
       4     H     0.41879  0.41879  0.00000  0.16242
       5     H     0.42430  0.42430  0.00000  0.15140
       6     C     3.14792  3.14792  0.00000 -0.29584
       7     H     0.40597  0.40597  0.00000  0.18805
       8     H     0.42860  0.42860  0.00000  0.14280
       9     C     3.21470  3.21470  0.00000 -0.42940
      10     H     0.40972  0.40972  0.00000  0.18057
      11     H     0.42235  0.42235  0.00000  0.15530
      12     C     2.72956  2.72956  0.00000  0.54089
      13     H     0.40822  0.40822  0.00000  0.18356
      14     H     0.40606  0.40606  0.00000  0.18788
      15     C     3.20380  3.20380  0.00000 -0.40760
      16     O     4.26758  4.26758  0.00000 -0.53517
      17     C     3.16264  3.16264  0.00000 -0.32529
      18     H     0.40849  0.40849  0.00000  0.18302
      19     H     0.39911  0.39911  0.00000  0.20179
      20     C     3.15213  3.15213  0.00000 -0.30425
      21     H     0.41879  0.41879  0.00000  0.16242
      22     H     0.41728  0.41728  0.00000  0.16543
      23     C     3.24012  3.24012  0.00000 -0.48024
      24     H     0.42120  0.42120  0.00000  0.15760
      25     H     0.41874  0.41874  0.00000  0.16252
      26     H     0.42115  0.42115  0.00000  0.15770
      27     H     0.42010  0.42010  0.00000  0.15979
      28     H     0.41677  0.41677  0.00000  0.16646

   Total alpha = 40.00000, Total beta = 40.00000, Total charge =  0.00000
