  ==> Input File <==

--------------------------------------------------------------------------
set {
	reference rhf
	basis 6-31G*
}

set_num_threads( 4 )
memory 2 gb

molecule MOL {
0 1

O	 -2.821601	 1.309235	 -0.001213
C	 -2.668563	 0.129746	 -0.000350
C	 -3.801572	 -0.864014	 -0.000442
O	 -1.481751	 -0.454642	 0.000584
H	 -4.417280	 -0.689587	 -0.874708
H	 -3.443784	 -1.883046	 -0.000565
H	 -4.417179	 -0.689832	 0.873954
C	 -0.334255	 0.388708	 0.000906
C	 0.891947	 -0.504646	 0.000751
H	 -0.365390	 1.025305	 -0.873475
H	 -0.365484	 1.024911	 0.875569
C	 1.910831	 -0.083953	 -1.060081
H	 0.578710	 -1.530840	 -0.170272
H	 1.347575	 -0.475763	 0.986667
C	 3.155361	 -0.973441	 -1.076902
H	 1.442716	 -0.105032	 -2.042685
H	 2.210984	 0.948076	 -0.887151
C	 4.172390	 -0.554028	 -2.137378
H	 2.857267	 -2.005074	 -1.249956
H	 3.625705	 -0.951727	 -0.096404
H	 3.741241	 -0.598041	 -3.133465
H	 5.042528	 -1.202826	 -2.124857
H	 4.515704	 0.463068	 -1.971059

	symmetry c1
}
set optking {
	frozen_dihedral = ("
		13 9 8 10
	")
}

ee = optimize('scf')
oeprop('DIPOLE', 'QUADRUPOLE', 'MULLIKEN_CHARGES')
f=open( 'psi4out.xyz', 'w' )
f.write( "23  " )
f.write( str(ee) + "\n" )
f.write( MOL.save_string_xyz() )
f.close()
--------------------------------------------------------------------------

    Molecular point group: c1
  Charge       = 0
  Multiplicity = 1
  Basis Set: 6-31G*
  Basis Set:
  @DF-RHF Final Energy:  -422.97389727196457
    Total Energy =                       -422.9738972719650292
    Molecular point group: c1
  Basis Set: 6-31G*
  Basis Set:
  Basis Set: 6-31G*
  Basis Set:
  @DF-RHF Final Energy:  -422.97420705382336
    Total Energy =                       -422.9742070538233065
  Basis Set: 6-31G*
  Basis Set:
  Basis Set: 6-31G*
  Basis Set:
  @DF-RHF Final Energy:  -422.97431216231257
    Total Energy =                       -422.9743121623123443
  Basis Set: 6-31G*
  Basis Set:
  Basis Set: 6-31G*
  Basis Set:
  @DF-RHF Final Energy:  -422.97403458547154
    Total Energy =                       -422.9740345854717134
  Basis Set: 6-31G*
  Basis Set:
  Basis Set: 6-31G*
  Basis Set:
  @DF-RHF Final Energy:  -422.97432349564281
    Total Energy =                       -422.9743234956426932
  Basis Set: 6-31G*
  Basis Set:
  Charge       = 0
  Multiplicity = 1
  Basis Set: 6-31G*
  Basis Set:

    Orbital Energies (a.u.)
    -----------------------

    Doubly Occupied:

       1A    -20.603365     2A    -20.540658     3A    -11.374019
       4A    -11.281553     5A    -11.232508     6A    -11.223965
       7A    -11.223024     8A    -11.220928     9A    -11.212677
      10A     -1.467996    11A     -1.360724    12A     -1.092096
      13A     -1.041078    14A     -1.002673    15A     -0.930798
      16A     -0.842611    17A     -0.801607    18A     -0.778659
      19A     -0.688527    20A     -0.682034    21A     -0.667485
      22A     -0.645733    23A     -0.606806    24A     -0.584386
      25A     -0.581917    26A     -0.569685    27A     -0.558622
      28A     -0.536031    29A     -0.524916    30A     -0.503375
      31A     -0.495547    32A     -0.475832    33A     -0.470783
      34A     -0.464606    35A     -0.446176    36A     -0.435447

  @DF-RHF Final Energy:  -422.97432364709306

   => Energetics <=

    Nuclear Repulsion Energy =            450.2772640173591867
    One-Electron Energy =               -1468.1654783229914756
    Two-Electron Energy =                 594.9138906585396853
    DFT Exchange-Correlation Energy =       0.0000000000000000
    Empirical Dispersion Energy =           0.0000000000000000
    PCM Polarization Energy =               0.0000000000000000
    EFP Energy =                            0.0000000000000000
    Total Energy =                       -422.9743236470926604
    Molecular point group: c1
  Basis Set: 6-31G*
  Basis Set:

  -Total Gradient:
     Atom            X                  Y                   Z
    ------   -----------------  -----------------  -----------------
       1       -0.000004415429     0.000018244786     0.000029159215
       2        0.000058624247    -0.000019606438    -0.000008476085
       3       -0.000015853624    -0.000001908728    -0.000008778880
       4       -0.000019265261    -0.000050976822     0.000061170561
       5       -0.000009613077    -0.000004946090    -0.000002452749
       6       -0.000000494605     0.000002502453     0.000000359478
       7        0.000000999324     0.000001316996    -0.000003549355
       8       -0.001773357831    -0.002449062685    -0.001322817614
       9        0.000674033187     0.000992168897    -0.002887089520
      10        0.001455137608     0.001952982371     0.001436451764
      11       -0.000056139235    -0.000025543369     0.000036947318
      12       -0.000021751552     0.000011851606    -0.000060677289
      13       -0.000258048418    -0.000395214872     0.002699185562
      14       -0.000005366348    -0.000003034985     0.000008730280
      15       -0.000026240991    -0.000007405451     0.000025483312
      16       -0.000012725331    -0.000016501791     0.000004209454
      17       -0.000013841816    -0.000009955716    -0.000013190392
      18        0.000015767457     0.000011297227     0.000010906065
      19        0.000011427380     0.000003051029    -0.000015633622
      20       -0.000010043514    -0.000014647647     0.000004771581
      21       -0.000002595014    -0.000000211555     0.000011578823
      22        0.000010351960     0.000004205816    -0.000003235178
      23        0.000003410876     0.000001394963    -0.000003052727

  **** Optimization is complete! (in 6 steps) ****
    Final optimized geometry and variables:
    Molecular point group: c1

    Geometry (in Angstrom), charge = 0, multiplicity = 1:

    O           -2.698881375975     1.492284236270     0.517595472163
    C           -2.561116424234     0.310937775870     0.499700554804
    C           -3.706935918111    -0.667923630039     0.520943597236
    O           -1.382966022520    -0.289092526170     0.458567153972
    H           -4.346021947335    -0.474248790772    -0.332234743175
    H           -3.363149418290    -1.691507976197     0.497485749719
    H           -4.293806016554    -0.497018085666     1.415510205400
    C           -0.225211350471     0.540705309642     0.437319421168
    C            1.016177268255    -0.355561746048     0.421141018498
    H           -0.267049558252     1.187511964094    -0.429024717057
    H           -0.247122516756     1.182096939287     1.307321596560
    C            2.055203219397     0.074440382719    -0.615729105692
    H            0.699992349461    -1.377480184045     0.241269714305
    H            1.472023945324    -0.357266712742     1.407667124696
    C            3.315102651220    -0.791646298526    -0.595045215983
    H            1.607317939184     0.038645901354    -1.607058035979
    H            2.331806365225     1.113564590039    -0.443404764740
    C            4.351161572991    -0.361042046112    -1.632579398401
    H            3.039819421398    -1.829754508739    -0.768118361028
    H            3.760652867330    -0.755418514843     0.396707719248
    H            3.946291181770    -0.419747345441    -2.638851945746
    H            5.232386530560    -0.993611131367    -1.593417204363
    H            4.671621532599     0.663318756640    -1.465112418475

  Mulliken Charges: (a.u.)
   Center  Symbol    Alpha    Beta     Spin     Total
       1     O     4.28406  4.28406  0.00000 -0.56811
       2     C     2.61531  2.61531  0.00000  0.76938
       3     C     3.28757  3.28757  0.00000 -0.57515
       4     O     4.31108  4.31108  0.00000 -0.62215
       5     H     0.39749  0.39749  0.00000  0.20502
       6     H     0.40011  0.40011  0.00000  0.19979
       7     H     0.39746  0.39746  0.00000  0.20509
       8     C     3.00223  3.00223  0.00000 -0.00446
       9     C     3.17078  3.17078  0.00000 -0.34155
      10     H     0.40808  0.40808  0.00000  0.18384
      11     H     0.40827  0.40827  0.00000  0.18346
      12     C     3.15885  3.15885  0.00000 -0.31769
      13     H     0.40569  0.40569  0.00000  0.18862
      14     H     0.41630  0.41630  0.00000  0.16740
      15     C     3.15271  3.15271  0.00000 -0.30542
      16     H     0.41969  0.41969  0.00000  0.16061
      17     H     0.42149  0.42149  0.00000  0.15702
      18     C     3.23971  3.23971  0.00000 -0.47943
      19     H     0.42134  0.42134  0.00000  0.15733
      20     H     0.42185  0.42185  0.00000  0.15630
      21     H     0.42084  0.42084  0.00000  0.15833
      22     H     0.41815  0.41815  0.00000  0.16370
      23     H     0.42095  0.42095  0.00000  0.15810

   Total alpha = 36.00000, Total beta = 36.00000, Total charge = -0.00000
