  ==> Input File <==

--------------------------------------------------------------------------
set {
	reference rhf
	basis 6-31G*
}

set_num_threads( 1 )
memory 2 gb

molecule MOL {
0 1

H	 1.174913	 -0.379430	 1.534776
O	 1.353483	 -0.423714	 0.605257
C	 0.709265	 0.639550	 -0.033818
C	 -0.793441	 0.596080	 0.058728
H	 1.011468	 0.595019	 -1.073959
H	 1.063344	 1.594870	 0.352209
C	 -1.530462	 -0.493172	 -0.025500
H	 -1.268471	 1.554324	 0.202247
H	 -1.092586	 -1.461565	 -0.186463
H	 -2.602122	 -0.450675	 0.050101

	symmetry c1
}
set optking {
	frozen_dihedral = ("
		5 3 2 1,
		3 4 7 9
	")
}

ee = energy('scf')
oeprop('DIPOLE', 'QUADRUPOLE', 'MULLIKEN_CHARGES')
f=open( 'psi4out.xyz', 'w' )
f.write( "10  " )
f.write( str(ee) + "\n" )
f.write( MOL.save_string_xyz() )
f.close()
--------------------------------------------------------------------------

    Molecular point group: c1

    Geometry (in Angstrom), charge = 0, multiplicity = 1:

       Center              X                  Y                   Z               Mass
    ------------   -----------------  -----------------  -----------------  -----------------
           H          1.165500359774    -0.441387622383     1.352842794048     1.007825032070
           O          1.344070359774    -0.485671622383     0.423323794048    15.994914619560
           C          0.699852359774     0.577592377617    -0.215751205952    12.000000000000
           C         -0.802853640226     0.534122377617    -0.123205205952    12.000000000000
           H          1.002055359774     0.533061377617    -1.255892205952     1.007825032070
           H          1.053931359774     1.532912377617     0.170275794048     1.007825032070
           C         -1.539874640226    -0.555129622383    -0.207433205952    12.000000000000
           H         -1.277883640226     1.492366377617     0.020313794048     1.007825032070
           H         -1.101998640226    -1.523522622383    -0.368396205952     1.007825032070
           H         -2.611534640226    -0.512632622383    -0.131832205952     1.007825032070

  Charge       = 0
  Multiplicity = 1
  Basis Set: 6-31G*
  Basis Set:

    Orbital Energies (a.u.)
    -----------------------

    Doubly Occupied:

       1A    -20.557674     2A    -11.275507     3A    -11.228101
       4A    -11.221062     5A     -1.366265     6A     -1.057563
       7A     -0.924735     8A     -0.772023     9A     -0.683888
      10A     -0.656224    11A     -0.608693    12A     -0.578327
      13A     -0.543627    14A     -0.480685    15A     -0.445095
      16A     -0.365345

  @DF-RHF Final Energy:  -191.91429769152342

   => Energetics <=

    Nuclear Repulsion Energy =            118.8805841515138582
    One-Electron Energy =                -496.0601308394909665
    Two-Electron Energy =                 185.2652489964536073
    DFT Exchange-Correlation Energy =       0.0000000000000000
    Empirical Dispersion Energy =           0.0000000000000000
    PCM Polarization Energy =               0.0000000000000000
    EFP Energy =                            0.0000000000000000
    Total Energy =                       -191.9142976915235010

  Mulliken Charges: (a.u.)
   Center  Symbol    Alpha    Beta     Spin     Total
       1     H     0.28189  0.28189  0.00000  0.43623
       2     O     4.36542  4.36542  0.00000 -0.73085
       3     C     3.00062  3.00062  0.00000 -0.00123
       4     C     3.10534  3.10534  0.00000 -0.21068
       5     H     0.40791  0.40791  0.00000  0.18418
       6     H     0.42760  0.42760  0.00000  0.14481
       7     C     3.18725  3.18725  0.00000 -0.37451
       8     H     0.41000  0.41000  0.00000  0.18000
       9     H     0.40303  0.40303  0.00000  0.19393
      10     H     0.41094  0.41094  0.00000  0.17811

   Total alpha = 16.00000, Total beta = 16.00000, Total charge =  0.00000
