  ==> Input File <==

--------------------------------------------------------------------------
set {
	reference rhf
	basis cc-pvtz
}

set_num_threads( 4 )
memory 2 gb

molecule MOL {
0 1

H	 -3.268214	 -0.875720	 0.463107
C	 -2.806015	 0.000007	 0.024886
N	 -1.391133	 0.000016	 0.301321
H	 -3.029448	 0.000055	 -1.045738
H	 -3.268126	 0.875758	 0.463150
C	 -1.092051	 0.457627	 1.640992
C	 -0.638768	 0.751991	 -0.679502
H	 -1.418519	 1.490856	 1.791675
H	 -1.627882	 -0.161394	 2.350770
C	 0.396405	 0.364405	 1.919959
H	 -0.843676	 0.347872	 -1.663773
H	 -0.934333	 1.805287	 -0.687001
C	 0.849688	 0.658769	 -0.400535
H	 0.601312	 0.768524	 2.904230
H	 0.691970	 -0.688891	 1.927459
N	 1.148769	 1.116380	 0.939136
H	 1.385518	 1.277790	 -1.110312
H	 1.176156	 -0.374460	 -0.551218
C	 2.563651	 1.116389	 1.215571
H	 2.747465	 1.522930	 2.202233
H	 3.080634	 1.739365	 0.496410
H	 3.004249	 0.116208	 1.174712

	symmetry c1
}
set optking {
	frozen_dihedral = ("
		6 3 2 4
	")
}

ee = optimize('scf')
oeprop('DIPOLE', 'QUADRUPOLE', 'MULLIKEN_CHARGES')
f=open( 'psi4out.xyz', 'w' )
f.write( "22  " )
f.write( str(ee) + "\n" )
f.write( MOL.save_string_xyz() )
f.close()
--------------------------------------------------------------------------

    Molecular point group: c1
  Charge       = 0
  Multiplicity = 1
  Basis Set: CC-PVTZ
  Basis Set:
  @DF-RHF Final Energy:  -344.34798366652592
    Total Energy =                       -344.3479836665260336
    Molecular point group: c1
  Basis Set: CC-PVTZ
  Basis Set:
  Basis Set: CC-PVTZ
  Basis Set:
  @DF-RHF Final Energy:  -344.34868272632741
    Total Energy =                       -344.3486827263276382
  Basis Set: CC-PVTZ
  Basis Set:
  Basis Set: CC-PVTZ
  Basis Set:
  @DF-RHF Final Energy:  -344.34877224900293
    Total Energy =                       -344.3487722490028773
  Basis Set: CC-PVTZ
  Basis Set:
  Charge       = 0
  Multiplicity = 1
  Basis Set: CC-PVTZ
  Basis Set:

    Orbital Energies (a.u.)
    -----------------------

    Doubly Occupied:

       1A    -15.537807     2A    -15.537463     3A    -11.237613
       4A    -11.237433     5A    -11.236897     6A    -11.236775
       7A    -11.234244     8A    -11.234225     9A     -1.257120
      10A     -1.206039    11A     -1.025565    12A     -0.992761
      13A     -0.912232    14A     -0.867681    15A     -0.836604
      16A     -0.756219    17A     -0.666857    18A     -0.637335
      19A     -0.631928    20A     -0.626992    21A     -0.622712
      22A     -0.582319    23A     -0.551620    24A     -0.546410
      25A     -0.542027    26A     -0.518514    27A     -0.497525
      28A     -0.489772    29A     -0.465459    30A     -0.456927
      31A     -0.352835    32A     -0.348267

  @DF-RHF Final Energy:  -344.34877421882794

   => Energetics <=

    Nuclear Repulsion Energy =            421.9523211930109596
    One-Electron Energy =               -1302.8338341374571883
    Two-Electron Energy =                 536.5327387256185148
    DFT Exchange-Correlation Energy =       0.0000000000000000
    Empirical Dispersion Energy =           0.0000000000000000
    PCM Polarization Energy =               0.0000000000000000
    EFP Energy =                            0.0000000000000000
    Total Energy =                       -344.3487742188277707
    Molecular point group: c1
  Basis Set: CC-PVTZ
  Basis Set:

  -Total Gradient:
     Atom            X                  Y                   Z
    ------   -----------------  -----------------  -----------------
       1        0.000005082919    -0.000006053948     0.000010394249
       2        0.000096521103    -0.004479114998    -0.000349726494
       3       -0.000319254586    -0.003120525921     0.001630212784
       4        0.000039920581     0.004466218884     0.000001166814
       5        0.000004763287     0.000024395247     0.000015509727
       6        0.000116273529     0.003197180915    -0.001229461469
       7       -0.000020425387    -0.000133609543     0.000078719974
       8       -0.000027968923     0.000024349302     0.000001540162
       9       -0.000015844944    -0.000002218111    -0.000000709649
      10        0.000017029867    -0.000089155004    -0.000102289482
      11        0.000015247878     0.000017911597    -0.000001590607
      12        0.000037414871     0.000000329355    -0.000003667832
      13        0.000038673326     0.000080841980    -0.000062873136
      14       -0.000048237328    -0.000001012294    -0.000030699513
      15        0.000036523800    -0.000030154498     0.000020276197
      16        0.000002898889     0.000023910919     0.000009986397
      17        0.000053068893     0.000009509399     0.000006297141
      18       -0.000031661413     0.000019596516     0.000013656560
      19        0.000006513490    -0.000000993549    -0.000015784557
      20       -0.000003629933     0.000001049739     0.000004110139
      21       -0.000002630880    -0.000002246085     0.000003337450
      22       -0.000000279037    -0.000000209901     0.000001595147

  **** Optimization is complete! (in 4 steps) ****
    Final optimized geometry and variables:
    Molecular point group: c1

    Geometry (in Angstrom), charge = 0, multiplicity = 1:

    H           -3.165300982472    -1.430333069304    -0.138020872706
    C           -2.690513234446    -0.565474965605    -0.584863939606
    N           -1.268382333730    -0.568358514844    -0.322478432174
    H           -2.872617385289    -0.572188555774    -1.651341961858
    H           -3.181135534982     0.329343140150    -0.193609958294
    C           -0.968025806118    -0.100350649215     1.014132000663
    C           -0.520034786450     0.199091782879    -1.297622969348
    H           -1.293885003331     0.934415441307     1.151561477869
    H           -1.507877658852    -0.710031059385     1.730000101719
    C            0.519065554090    -0.193717379466     1.298377385038
    H           -0.720261209021    -0.197364643405    -2.285495952378
    H           -0.818061575484     1.251741174284    -1.296073209414
    C            0.969375898794     0.108426474922    -1.020971729098
    H            0.720241105752     0.211060472542     2.283283701386
    H            0.815603285257    -1.246774622186     1.307439970853
    N            1.272244850002     0.559685600186     0.319702018299
    H            1.502730245822     0.731281074492    -1.729528763011
    H            1.296182607296    -0.923880713485    -1.177671081639
    C            2.687322997981     0.556100204477     0.593641100107
    H            2.873470139065     0.957932308218     1.581884130238
    H            3.204295762256     1.181401995948    -0.123615635887
    H            3.126399810502    -0.444624328483     0.547713149923

  Mulliken Charges: (a.u.)
   Center  Symbol    Alpha    Beta     Spin     Total
       1     H     0.44927  0.44927  0.00000  0.10147
       2     C     3.09734  3.09734  0.00000 -0.19468
       3     N     3.61446  3.61446  0.00000 -0.22892
       4     H     0.45422  0.45422  0.00000  0.09155
       5     H     0.46904  0.46904  0.00000  0.06191
       6     C     3.03649  3.03649  0.00000 -0.07297
       7     C     3.03422  3.03422  0.00000 -0.06843
       8     H     0.46689  0.46689  0.00000  0.06622
       9     H     0.45385  0.45385  0.00000  0.09229
      10     C     3.03592  3.03592  0.00000 -0.07183
      11     H     0.45376  0.45376  0.00000  0.09248
      12     H     0.46893  0.46893  0.00000  0.06214
      13     C     3.03639  3.03639  0.00000 -0.07279
      14     H     0.45383  0.45383  0.00000  0.09234
      15     H     0.46798  0.46798  0.00000  0.06405
      16     N     3.61290  3.61290  0.00000 -0.22580
      17     H     0.45388  0.45388  0.00000  0.09224
      18     H     0.46819  0.46819  0.00000  0.06362
      19     C     3.09850  3.09850  0.00000 -0.19701
      20     H     0.45197  0.45197  0.00000  0.09606
      21     H     0.45198  0.45198  0.00000  0.09604
      22     H     0.46998  0.46998  0.00000  0.06003

   Total alpha = 32.00000, Total beta = 32.00000, Total charge = -0.00000
