  ==> Input File <==

--------------------------------------------------------------------------
set {
	reference rhf
	basis cc-pvtz
}

set_num_threads( 4 )
memory 2 gb

molecule MOL {
0 1

H	 -3.162190	 0.493205	 -0.000107
C	 -2.363908	 -0.234727	 0.000005
O	 -1.158738	 0.454634	 -0.000087
H	 -2.464314	 -0.863616	 -0.882153
H	 -2.464327	 -0.863359	 0.882345
C	 -0.028611	 -0.359694	 0.000037
C	 1.212847	 0.509314	 -0.000053
H	 -0.034155	 -1.007047	 -0.877198
H	 -0.034195	 -1.006836	 0.877430
C	 1.013367	 1.809643	 -0.770575
H	 1.485566	 0.722161	 1.027685
H	 2.031296	 -0.057662	 -0.429741
H	 0.213788	 2.404590	 -0.341857
H	 1.914438	 2.410334	 -0.754404
H	 0.763463	 1.619565	 -1.809077

	symmetry c1
}
set optking {
	frozen_dihedral = ("
		11 7 6 8
	")
}

ee = optimize('scf')
oeprop('DIPOLE', 'QUADRUPOLE', 'MULLIKEN_CHARGES')
f=open( 'psi4out.xyz', 'w' )
f.write( "15  " )
f.write( str(ee) + "\n" )
f.write( MOL.save_string_xyz() )
f.close()
--------------------------------------------------------------------------

    Molecular point group: c1
  Charge       = 0
  Multiplicity = 1
  Basis Set: CC-PVTZ
  Basis Set:
  @DF-RHF Final Energy:  -232.22353485280956
    Total Energy =                       -232.2235348528095074
    Molecular point group: c1
  Basis Set: CC-PVTZ
  Basis Set:
  Basis Set: CC-PVTZ
  Basis Set:
  @DF-RHF Final Energy:  -232.22442476364839
    Total Energy =                       -232.2244247636482442
  Basis Set: CC-PVTZ
  Basis Set:
  Basis Set: CC-PVTZ
  Basis Set:
  @DF-RHF Final Energy:  -232.22487728319749
    Total Energy =                       -232.2248772831976567
  Basis Set: CC-PVTZ
  Basis Set:
  Basis Set: CC-PVTZ
  Basis Set:
  @DF-RHF Final Energy:  -232.22490150470577
    Total Energy =                       -232.2249015047054286
  Basis Set: CC-PVTZ
  Basis Set:
  Basis Set: CC-PVTZ
  Basis Set:
  @DF-RHF Final Energy:  -232.22490271227031
    Total Energy =                       -232.2249027122704206
  Basis Set: CC-PVTZ
  Basis Set:
  Charge       = 0
  Multiplicity = 1
  Basis Set: CC-PVTZ
  Basis Set:

    Orbital Energies (a.u.)
    -----------------------

    Doubly Occupied:

       1A    -20.548946     2A    -11.265091     3A    -11.262737
       4A    -11.213994     5A    -11.200760     6A     -1.383649
       7A     -1.052918     8A     -0.950957     9A     -0.890500
      10A     -0.795921    11A     -0.673305    12A     -0.661302
      13A     -0.636482    14A     -0.598825    15A     -0.558260
      16A     -0.543861    17A     -0.505981    18A     -0.485497
      19A     -0.473762    20A     -0.460667    21A     -0.414279

  @DF-RHF Final Energy:  -232.22490278580838

   => Energetics <=

    Nuclear Repulsion Energy =            193.3124221065999961
    One-Electron Energy =                -697.9192516550765504
    Two-Electron Energy =                 272.3819267626678311
    DFT Exchange-Correlation Energy =       0.0000000000000000
    Empirical Dispersion Energy =           0.0000000000000000
    PCM Polarization Energy =               0.0000000000000000
    EFP Energy =                            0.0000000000000000
    Total Energy =                       -232.2249027858086947
    Molecular point group: c1
  Basis Set: CC-PVTZ
  Basis Set:

  -Total Gradient:
     Atom            X                  Y                   Z
    ------   -----------------  -----------------  -----------------
       1       -0.000000145866     0.000001010802     0.000000319616
       2        0.000010844878     0.000006400931    -0.000001302630
       3       -0.000040487307     0.000026556700    -0.000004236357
       4        0.000002537435    -0.000000280858     0.000000077785
       5        0.000003402168     0.000000206761     0.000000240719
       6       -0.002717665371     0.004029832845    -0.003714820303
       7       -0.003470055610     0.004904935569     0.000664053776
       8        0.002850307140    -0.004184192001     0.002992316601
       9        0.000003981412     0.000008698242     0.000004475302
      10       -0.000008281566     0.000007661635     0.000003848385
      11        0.003374139668    -0.004807945848     0.000073914278
      12       -0.000009655462     0.000000940348    -0.000015995926
      13        0.000001247967     0.000002661307    -0.000005071919
      14       -0.000000829549    -0.000000449590     0.000000976469
      15        0.000000660061     0.000003963155     0.000001204204

  **** Optimization is complete! (in 6 steps) ****
    Final optimized geometry and variables:
    Molecular point group: c1

    Geometry (in Angstrom), charge = 0, multiplicity = 1:

    H           -2.905629087413    -0.024573842467     0.219968620307
    C           -2.081327918099    -0.721891123739     0.180336421536
    O           -0.902307396812     0.010801209157     0.179954613601
    H           -2.175959920725    -1.324681058329    -0.720445490224
    H           -2.140110165885    -1.382690751209     1.042675761775
    C            0.253097087695    -0.761634178410     0.125026672257
    C            1.500275680270     0.114453621565     0.166225479485
    H            0.263510509151    -1.391434844516    -0.764867127665
    H            0.275356016770    -1.449747270141     0.970339543342
    C            1.401109935137     1.401929052197    -0.642124138370
    H            1.769203175334     0.317387617420     1.197413836452
    H            2.318402889041    -0.487909761956    -0.220389213679
    H            0.633016230396     2.053371763190    -0.250271681355
    H            2.345037525794     1.934393083400    -0.620943024634
    H            1.159575827166     1.193234942240    -1.678953773983

  Mulliken Charges: (a.u.)
   Center  Symbol    Alpha    Beta     Spin     Total
       1     H     0.44735  0.44735  0.00000  0.10530
       2     C     3.03064  3.03064  0.00000 -0.06129
       3     O     4.17192  4.17192  0.00000 -0.34383
       4     H     0.47176  0.47176  0.00000  0.05649
       5     H     0.47156  0.47156  0.00000  0.05687
       6     C     2.96997  2.96997  0.00000  0.06006
       7     C     3.08589  3.08589  0.00000 -0.17179
       8     H     0.47323  0.47323  0.00000  0.05355
       9     H     0.46906  0.46906  0.00000  0.06187
      10     C     3.14311  3.14311  0.00000 -0.28623
      11     H     0.45292  0.45292  0.00000  0.09417
      12     H     0.45743  0.45743  0.00000  0.08513
      13     H     0.44559  0.44559  0.00000  0.10881
      14     H     0.45235  0.45235  0.00000  0.09531
      15     H     0.45721  0.45721  0.00000  0.08558

   Total alpha = 21.00000, Total beta = 21.00000, Total charge = -0.00000
