  ==> Input File <==

--------------------------------------------------------------------------
set {
	reference rhf
	basis 6-31G*
}

set_num_threads( 4 )
memory 2 gb

molecule MOL {
0 1

H	 2.176868	 -0.646004	 -0.217325
O	 1.337496	 -0.537251	 0.205931
C	 0.702312	 0.627605	 -0.264544
C	 -0.714990	 0.596302	 0.266387
H	 0.682322	 0.642550	 -1.350929
H	 1.215941	 1.520383	 0.085680
O	 -1.405996	 -0.526611	 -0.195820
H	 -1.257453	 1.468809	 -0.075599
H	 -0.688972	 0.618407	 1.353696
H	 -0.763474	 -1.166567	 -0.474451

	symmetry c1
}
set optking {
	frozen_dihedral = ("
		10 7 4 3
	")
}

ee = optimize('scf')
oeprop('DIPOLE', 'QUADRUPOLE', 'MULLIKEN_CHARGES')
f=open( 'psi4out.xyz', 'w' )
f.write( "10  " )
f.write( str(ee) + "\n" )
f.write( MOL.save_string_xyz() )
f.close()
--------------------------------------------------------------------------

    Molecular point group: c1
  Charge       = 0
  Multiplicity = 1
  Basis Set: 6-31G*
  Basis Set:
  @DF-RHF Final Energy:  -228.92219080922851
    Total Energy =                       -228.9221908092284252
    Molecular point group: c1
  Basis Set: 6-31G*
  Basis Set:
  Basis Set: 6-31G*
  Basis Set:
  @DF-RHF Final Energy:  -228.92253723901700
    Total Energy =                       -228.9225372390169753
  Basis Set: 6-31G*
  Basis Set:
  Basis Set: 6-31G*
  Basis Set:
  @DF-RHF Final Energy:  -228.92272323618633
    Total Energy =                       -228.9227232361863003
  Basis Set: 6-31G*
  Basis Set:
  Basis Set: 6-31G*
  Basis Set:
  @DF-RHF Final Energy:  -228.92272609393686
    Total Energy =                       -228.9227260939368875
  Basis Set: 6-31G*
  Basis Set:
  Charge       = 0
  Multiplicity = 1
  Basis Set: 6-31G*
  Basis Set:

    Orbital Energies (a.u.)
    -----------------------

    Doubly Occupied:

       1A    -20.574675     2A    -20.544620     3A    -11.282420
       4A    -11.268135     5A     -1.387098     6A     -1.348512
       7A     -1.004094     8A     -0.847329     9A     -0.729562
      10A     -0.669052    11A     -0.663410    12A     -0.601024
      13A     -0.574766    14A     -0.544325    15A     -0.479693
      16A     -0.459397    17A     -0.430402

  @DF-RHF Final Energy:  -228.92272630728979

   => Energetics <=

    Nuclear Repulsion Energy =            134.7915606281010810
    One-Electron Energy =                -580.6115454571063310
    Two-Electron Energy =                 216.8972585217154574
    DFT Exchange-Correlation Energy =       0.0000000000000000
    Empirical Dispersion Energy =           0.0000000000000000
    PCM Polarization Energy =               0.0000000000000000
    EFP Energy =                            0.0000000000000000
    Total Energy =                       -228.9227263072897927
    Molecular point group: c1
  Basis Set: 6-31G*
  Basis Set:

  -Total Gradient:
     Atom            X                  Y                   Z
    ------   -----------------  -----------------  -----------------
       1        0.000009373265    -0.000013126719     0.000003669026
       2        0.000033146441     0.000003725253    -0.000008281723
       3        0.000910808476    -0.001433158406     0.002519787265
       4       -0.001324177623     0.002393464740    -0.004540783612
       5        0.000001128499    -0.000017121551     0.000024002170
       6        0.000025072012     0.000005312517     0.000001395388
       7        0.000369930840    -0.002558244016     0.006521791844
       8       -0.000013993433     0.000005597476     0.000001470652
       9       -0.000001773541    -0.000016425618    -0.000016873402
      10       -0.000009514938     0.001629976326    -0.004506177609

  **** Optimization is complete! (in 5 steps) ****
    Final optimized geometry and variables:
    Molecular point group: c1

    Geometry (in Angstrom), charge = 0, multiplicity = 1:

    H            2.186529534898    -0.625485443437    -0.217179405306
    O            1.319161818766    -0.561674876374     0.156458235853
    C            0.708659783209     0.640508965280    -0.242068661435
    C           -0.719009417850     0.611925474768     0.267108792399
    H            0.712344566413     0.724698343678    -1.327065470187
    H            1.228305881272     1.502848170102     0.168117914097
    O           -1.400057593800    -0.538412031837    -0.143185156360
    H           -1.253869957067     1.480241036781    -0.101169127198
    H           -0.703739786934     0.661288110948     1.352808983427
    H           -0.762464257578    -1.196934986578    -0.384314848038

  Mulliken Charges: (a.u.)
   Center  Symbol    Alpha    Beta     Spin     Total
       1     H     0.27578  0.27578  0.00000  0.44845
       2     O     4.37408  4.37408  0.00000 -0.74816
       3     C     3.02782  3.02782  0.00000 -0.05565
       4     C     2.98112  2.98112  0.00000  0.03776
       5     H     0.42442  0.42442  0.00000  0.15117
       6     H     0.42384  0.42384  0.00000  0.15231
       7     O     4.37883  4.37883  0.00000 -0.75766
       8     H     0.42155  0.42155  0.00000  0.15690
       9     H     0.42243  0.42243  0.00000  0.15514
      10     H     0.27013  0.27013  0.00000  0.45974

   Total alpha = 17.00000, Total beta = 17.00000, Total charge = -0.00000
