                              Psi4 1.0.54 Driver

  ==> Input File <==

--------------------------------------------------------------------------
set {
	reference rhf
	basis cc-pvtz
}

set_num_threads( 4 )
memory 2 gb

molecule MOL {
0 1

H	 1.281899	 -2.364983	 -3.268348
O	 2.159334	 -2.048660	 -3.377331
C	 2.144601	 -0.744927	 -3.896306
C	 1.697089	 0.303781	 -2.889018
H	 3.160238	 -0.538849	 -4.206135
H	 1.520442	 -0.697945	 -4.786625
C	 0.243162	 0.165115	 -2.443243
H	 2.351379	 0.253074	 -2.023864
H	 1.843568	 1.282910	 -3.338738
C	 -0.179453	 1.253985	 -1.458055
H	 0.098863	 -0.809287	 -1.988577
H	 -0.406310	 0.202475	 -3.316213
C	 -1.648671	 1.207395	 -1.034400
H	 0.450847	 1.199376	 -0.573766
H	 0.017033	 2.222621	 -1.909284
C	 -2.041121	 -0.006551	 -0.194127
H	 -1.868018	 2.106662	 -0.465425
H	 -2.278677	 1.250507	 -1.920057
C	 -3.489218	 0.042606	 0.286507
H	 -1.380683	 -0.073812	 0.667712
H	 -1.892199	 -0.919053	 -0.763482
C	 -4.219984	 1.311773	 -0.139038
H	 -4.022855	 -0.824300	 -0.093339
H	 -3.510372	 -0.038577	 1.370031
H	 -4.244251	 1.405725	 -1.219696
H	 -5.244345	 1.313233	 0.215630
H	 -3.732090	 2.196311	 0.257073

	symmetry c1
}
set optking {
	frozen_dihedral = ("
		20 16 19 22
	")
}

ee,wfn = optimize('scf', return_wfn=True)
oeprop( wfn, 'DIPOLE', 'QUADRUPOLE', 'MULLIKEN_CHARGES')
f=open( 'psi4out.xyz', 'w' )
f.write( "27  " )
f.write( str(ee) + "\n" )
f.write( MOL.save_string_xyz() )
f.close()
--------------------------------------------------------------------------

    Molecular point group: c1
  Charge       = 0
  Multiplicity = 1
  Basis Set: CC-PVTZ
  Basis Set:
  @DF-RHF Final Energy:  -388.41248936306795
    Total Energy =                       -388.4124893630672659
    Molecular point group: c1
  Basis Set: CC-PVTZ
  Basis Set:
  Basis Set: CC-PVTZ
  Basis Set:
  @DF-RHF Final Energy:  -388.39806558842128
    Total Energy =                       -388.3980655884217867
  Basis Set: CC-PVTZ
  Basis Set:
  Basis Set: CC-PVTZ
  Basis Set:
  @DF-RHF Final Energy:  -388.41590988384337
    Total Energy =                       -388.4159098838430282
  Basis Set: CC-PVTZ
  Basis Set:
  Basis Set: CC-PVTZ
  Basis Set:
  @DF-RHF Final Energy:  -388.41717855479732
    Total Energy =                       -388.4171785547972604
  Basis Set: CC-PVTZ
  Basis Set:
  Basis Set: CC-PVTZ
  Basis Set:
  @DF-RHF Final Energy:  -388.41731275600176
    Total Energy =                       -388.4173127560015928
  Basis Set: CC-PVTZ
  Basis Set:
  Basis Set: CC-PVTZ
  Basis Set:
  @DF-RHF Final Energy:  -388.41729755241295
    Total Energy =                       -388.4172975524126059
  Basis Set: CC-PVTZ
  Basis Set:
  Basis Set: CC-PVTZ
  Basis Set:
  @DF-RHF Final Energy:  -388.41737177694114
    Total Energy =                       -388.4173717769403993
  Basis Set: CC-PVTZ
  Basis Set:
  Charge       = 0
  Multiplicity = 1
  Basis Set: CC-PVTZ
  Basis Set:

    Orbital Energies (a.u.)
    -----------------------

    Doubly Occupied:

       1A    -20.545265     2A    -11.264901     3A    -11.216553
       4A    -11.214592     5A    -11.214452     6A    -11.213130
       7A    -11.212819     8A    -11.212103     9A    -11.206819
      10A     -1.363149    11A     -1.094340    12A     -1.058667
      13A     -1.009790    14A     -0.946999    15A     -0.895777
      16A     -0.831389    17A     -0.798588    18A     -0.763250
      19A     -0.695975    20A     -0.650266    21A     -0.637997
      22A     -0.615351    23A     -0.605441    24A     -0.588332
      25A     -0.579812    26A     -0.555380    27A     -0.536751
      28A     -0.526589    29A     -0.513526    30A     -0.500127
      31A     -0.484532    32A     -0.476391    33A     -0.468724
      34A     -0.451277    35A     -0.446563    36A     -0.439989
      37A     -0.425679

  @DF-RHF Final Energy:  -388.41737114965906

   => Energetics <=

    Nuclear Repulsion Energy =            462.5996908764229829
    One-Electron Energy =               -1443.5115531724320590
    Two-Electron Energy =                 592.4944911463499011
    DFT Exchange-Correlation Energy =       0.0000000000000000
    Empirical Dispersion Energy =           0.0000000000000000
    PCM Polarization Energy =               0.0000000000000000
    EFP Energy =                            0.0000000000000000
    Total Energy =                       -388.4173711496591750
    Molecular point group: c1
  Basis Set: CC-PVTZ
  Basis Set:

  -Total Gradient:
     Atom            X                  Y                   Z
    ------   -----------------  -----------------  -----------------
       1       -0.000013006293    -0.000009528580     0.000001274594
       2        0.000010864606    -0.000006972735    -0.000002099048
       3        0.000030391217     0.000009380720     0.000011147608
       4        0.000003839571    -0.000025620016    -0.000007285147
       5        0.000012293270    -0.000010569920    -0.000011918510
       6        0.000000093157     0.000000915810    -0.000003307835
       7        0.000007263424     0.000024522792    -0.000012051808
       8        0.000007356364     0.000004723990     0.000005514821
       9       -0.000007837983    -0.000005565342    -0.000003736656
      10       -0.000002876030    -0.000012129956     0.000047905088
      11       -0.000000025098     0.000000442343    -0.000009701933
      12        0.000005181606     0.000011409459    -0.000008255553
      13        0.000015626290    -0.000042466470    -0.000064454291
      14        0.000030559967     0.000018020515     0.000003809723
      15       -0.000014799028    -0.000014359881    -0.000003563093
      16       -0.000185071037     0.001258289684    -0.000234376921
      17       -0.000069218018    -0.000005152189     0.000032931878
      18        0.000071491587     0.000003165134     0.000018077206
      19        0.000164596331     0.000353541980     0.001103581610
      20        0.000131972885    -0.001132253827    -0.000113747593
      21        0.000007196200     0.000017131520    -0.000000726060
      22       -0.000188343837    -0.000418729497    -0.000809329526
      23       -0.000005299815     0.000010929405    -0.000012662268
      24       -0.000014515840    -0.000014691864     0.000006238410
      25       -0.000067895493    -0.000027173316     0.000043949837
      26        0.000028183099     0.000008651587     0.000017314234
      27        0.000041978901     0.000004088647     0.000005471231

  **** Optimization is complete! (in 8 steps) ****
    Final optimized geometry and variables:
    Molecular point group: c1

    Geometry (in Angstrom), charge = 0, multiplicity = 1:

    H            2.236366056250    -2.307265550673    -1.318305642854
    O            3.098240781976    -1.935928488227    -1.288696354153
    C            3.078963754733    -0.623120645260    -1.784015684181
    C            2.418492300774     0.371481809254    -0.841066354552
    H            4.114527413378    -0.348306147615    -1.932568994378
    H            2.594688314554    -0.592354869692    -2.758146876641
    C            0.926536858072     0.131671275098    -0.620501081363
    H            2.938488473899     0.341487664778     0.111702751288
    H            2.566082188335     1.368109103921    -1.250067508991
    C            0.291346518645     1.172307893981     0.300996752718
    H            0.781003878472    -0.859253917650    -0.204100682378
    H            0.414182458816     0.146129450942    -1.580945275172
    C           -1.222152931253     1.039653155716     0.490081169017
    H            0.779723896481     1.135168132602     1.271724170459
    H            0.498325869172     2.159401573036    -0.103040950890
    C           -1.645570057050    -0.213733418253     1.258481180610
    H           -1.570655508953     1.920566104412     1.017635322390
    H           -1.701637363355     1.059894892194    -0.484379670821
    C           -3.159530673749    -0.380848886481     1.565002618933
    H           -1.094243119898    -0.239530808130     2.193511408630
    H           -1.315702322205    -1.087034410554     0.708560616325
    C           -4.095989268462     0.749708290680     1.138837099603
    H           -3.509527878723    -1.293607339784     1.095047854922
    H           -3.283302992403    -0.537401451732     2.630846682639
    H           -4.072033688033     0.916809183608     0.068877061606
    H           -5.116321892217     0.499267223793     1.406282795731
    H           -3.853970206775     1.686444525942     1.626610026610

  Mulliken Charges: (a.u.)
   Center  Symbol    Alpha    Beta     Spin     Total
       1     H     0.39230  0.39230  0.00000  0.21540
       2     O     4.20551  4.20551  0.00000 -0.41102
       3     C     2.97991  2.97991  0.00000  0.04018
       4     C     3.08946  3.08946  0.00000 -0.17891
       5     H     0.44855  0.44855  0.00000  0.10289
       6     H     0.46975  0.46975  0.00000  0.06050
       7     C     3.10237  3.10237  0.00000 -0.20473
       8     H     0.45077  0.45077  0.00000  0.09846
       9     H     0.45525  0.45525  0.00000  0.08950
      10     C     3.09993  3.09993  0.00000 -0.19986
      11     H     0.45585  0.45585  0.00000  0.08829
      12     H     0.45408  0.45408  0.00000  0.09184
      13     C     3.09827  3.09827  0.00000 -0.19653
      14     H     0.45169  0.45169  0.00000  0.09662
      15     H     0.44797  0.44797  0.00000  0.10406
      16     C     3.10182  3.10182  0.00000 -0.20363
      17     H     0.44498  0.44498  0.00000  0.11005
      18     H     0.45183  0.45183  0.00000  0.09634
      19     C     3.08640  3.08640  0.00000 -0.17279
      20     H     0.45070  0.45070  0.00000  0.09859
      21     H     0.45158  0.45158  0.00000  0.09683
      22     C     3.15701  3.15701  0.00000 -0.31402
      23     H     0.45208  0.45208  0.00000  0.09584
      24     H     0.45068  0.45068  0.00000  0.09864
      25     H     0.45337  0.45337  0.00000  0.09326
      26     H     0.44448  0.44448  0.00000  0.11104
      27     H     0.45342  0.45342  0.00000  0.09317

   Total alpha = 37.00000, Total beta = 37.00000, Total charge =  0.00000

*** Psi4 exiting successfully. Buy a developer a beer!
