  ==> Input File <==

--------------------------------------------------------------------------
set {
	reference rhf
	basis cc-pvtz
}

set_num_threads( 4 )
memory 2 gb

molecule MOL {
0 1

H	 -3.034039	 -0.667848	 0.004703
O	 -2.240597	 -1.171748	 0.000934
C	 -1.159675	 -0.364500	 0.000370
C	 -1.263529	 1.011587	 0.003831
C	 0.086404	 -0.972210	 -0.004987
H	 -2.228487	 1.484777	 0.005979
C	 -0.107172	 1.772545	 0.000518
H	 0.132343	 -2.044032	 -0.009856
C	 1.238469	 -0.211865	 -0.005890
H	 -0.183932	 2.843470	 0.000160
C	 1.133134	 1.175540	 -0.005136
C	 2.593676	 -0.872717	 0.012297
H	 2.019984	 1.780462	 -0.010329
H	 3.272883	 -0.385775	 -0.676461
H	 2.526578	 -1.917195	 -0.260301
H	 3.033779	 -0.814485	 1.002025

	symmetry c1
}
set optking {
	frozen_dihedral = ("
		5 3 2 1
	")
}

ee = optimize('scf')
oeprop('DIPOLE', 'QUADRUPOLE', 'MULLIKEN_CHARGES')
f=open( 'psi4out.xyz', 'w' )
f.write( "16  " )
f.write( str(ee) + "\n" )
f.write( MOL.save_string_xyz() )
f.close()
--------------------------------------------------------------------------

    Molecular point group: c1
  Charge       = 0
  Multiplicity = 1
  Basis Set: CC-PVTZ
  Basis Set:
  @DF-RHF Final Energy:  -344.72082862810294
    Total Energy =                       -344.7208286281029359
    Molecular point group: c1
  Basis Set: CC-PVTZ
  Basis Set:
  Charge       = 0
  Multiplicity = 1
  Basis Set: CC-PVTZ
  Basis Set:

    Orbital Energies (a.u.)
    -----------------------

    Doubly Occupied:

       1A    -20.583136     2A    -11.295278     3A    -11.240585
       4A    -11.232812     5A    -11.219735     6A    -11.218866
       7A    -11.213816     8A    -11.212694     9A     -1.413887
      10A     -1.154067    11A     -1.046235    12A     -1.008629
      13A     -0.938668    14A     -0.828820    15A     -0.826406
      16A     -0.717497    17A     -0.684664    18A     -0.657486
      19A     -0.610112    20A     -0.596111    21A     -0.573291
      22A     -0.572101    23A     -0.570747    24A     -0.534526
      25A     -0.507177    26A     -0.484457    27A     -0.472831
      28A     -0.333487    29A     -0.310160

  @DF-RHF Final Energy:  -344.72082868061722

   => Energetics <=

    Nuclear Repulsion Energy =            346.4234761175308108
    One-Electron Energy =               -1154.1720400581821195
    Two-Electron Energy =                 463.0277352600344329
    DFT Exchange-Correlation Energy =       0.0000000000000000
    Empirical Dispersion Energy =           0.0000000000000000
    PCM Polarization Energy =               0.0000000000000000
    EFP Energy =                            0.0000000000000000
    Total Energy =                       -344.7208286806169326
    Molecular point group: c1
  Basis Set: CC-PVTZ
  Basis Set:

  -Total Gradient:
     Atom            X                  Y                   Z
    ------   -----------------  -----------------  -----------------
       1       -0.000003551153    -0.000000125798     0.000016718765
       2       -0.000009802289    -0.000002375528    -0.000045351042
       3        0.000027557289    -0.000004783863     0.000071741787
       4        0.000002425499     0.000009741591    -0.000029721768
       5       -0.000017782749    -0.000000057059     0.000013929468
       6       -0.000000238872    -0.000000768307    -0.000000912227
       7       -0.000016776688    -0.000002909865     0.000003760496
       8        0.000000870454     0.000001113270     0.000000840785
       9        0.000011555232     0.000020722601    -0.000069443324
      10        0.000001367117    -0.000001064209    -0.000002391437
      11        0.000006572422    -0.000017679473     0.000018975229
      12        0.000000088370     0.000002115181     0.000013616068
      13       -0.000000556382    -0.000000152988    -0.000000454386
      14       -0.000004337510     0.000002579143     0.000005999620
      15       -0.000001455645     0.000000693798    -0.000002056471
      16        0.000004064902    -0.000007048495     0.000004748436

  **** Optimization is complete! (in 2 steps) ****
    Final optimized geometry and variables:
    Molecular point group: c1

    Geometry (in Angstrom), charge = 0, multiplicity = 1:

    H           -3.034112084960    -0.667820080115     0.003740149295
    O           -2.240617231944    -1.171712845871    -0.000363830991
    C           -1.159694753136    -0.364504392459     0.000018356224
    C           -1.263514564494     1.011565488303     0.003107387815
    C            0.086419305846    -0.972188655535    -0.005692781934
    H           -2.228476009271     1.484772041729     0.004932448336
    C           -0.107149815221     1.772497403835     0.000033639147
    H            0.132352741373    -2.044009965133    -0.010619321992
    C            1.238461940539    -0.211873784833    -0.006941562136
    H           -0.183941738496     2.843418952537    -0.000323492935
    C            1.133142733471     1.175519636688    -0.005643004266
    C            2.593674134909    -0.872697735141     0.011429227691
    H            2.020003109769     1.780428950657    -0.010698512690
    H            3.272575718619    -0.386408410072    -0.678102643947
    H            2.526453042240    -1.917440517912    -0.260148662564
    H            3.034215356358    -0.813496237670     1.000915463334

  Mulliken Charges: (a.u.)
   Center  Symbol    Alpha    Beta     Spin     Total
       1     H     0.38744  0.38744  0.00000  0.22512
       2     O     4.17508  4.17508  0.00000 -0.35016
       3     C     2.83533  2.83533  0.00000  0.32933
       4     C     3.14937  3.14937  0.00000 -0.29874
       5     C     3.14134  3.14134  0.00000 -0.28269
       6     H     0.43551  0.43551  0.00000  0.12898
       7     C     3.05685  3.05685  0.00000 -0.11370
       8     H     0.42227  0.42227  0.00000  0.15547
       9     C     2.93484  2.93484  0.00000  0.13032
      10     H     0.42293  0.42293  0.00000  0.15413
      11     C     3.11915  3.11915  0.00000 -0.23829
      12     C     3.14655  3.14655  0.00000 -0.29309
      13     H     0.42793  0.42793  0.00000  0.14415
      14     H     0.44833  0.44833  0.00000  0.10335
      15     H     0.45018  0.45018  0.00000  0.09963
      16     H     0.44690  0.44690  0.00000  0.10620

   Total alpha = 29.00000, Total beta = 29.00000, Total charge = -0.00000
