  ==> Input File <==

--------------------------------------------------------------------------
set {
	reference rhf
	basis 6-31G*
}

set_num_threads( 1 )
memory 2 gb

molecule MOL {
0 1

O	 0.035709	 -0.220705	 0.339771
C	 1.122059	 0.121804	 -0.000188
C	 1.497076	 1.502190	 -0.481634
O	 2.172624	 -0.688929	 0.000216
C	 0.323445	 2.476610	 -0.502579
H	 2.297102	 1.863216	 0.158970
H	 1.936118	 1.393346	 -1.469637
C	 0.730504	 3.866547	 -0.994254
H	 -0.100612	 2.548370	 0.494181
H	 -0.462366	 2.077559	 -1.136426
C	 -0.439709	 4.848871	 -1.019615
H	 1.518585	 4.261398	 -0.356213
H	 1.157109	 3.788530	 -1.992248
H	 -0.866518	 4.974946	 -0.028861
H	 -0.124300	 5.826117	 -1.371442
H	 -1.230290	 4.499009	 -1.677049
C	 3.452279	 -0.082609	 0.000533
H	 3.583069	 0.529321	 -0.880332
H	 4.163299	 -0.894027	 0.001117
H	 3.582335	 0.529955	 0.881077

	symmetry c1
}
set optking {
	frozen_dihedral = ("
		9 5 8 12,
		1 2 3 6,
		9 5 3 6
	")
}

ee = energy('scf')
oeprop('DIPOLE', 'QUADRUPOLE', 'MULLIKEN_CHARGES')
f=open( 'psi4out.xyz', 'w' )
f.write( "20  " )
f.write( str(ee) + "\n" )
f.write( MOL.save_string_xyz() )
f.close()
--------------------------------------------------------------------------

    Molecular point group: c1

    Geometry (in Angstrom), charge = 0, multiplicity = 1:

       Center              X                  Y                   Z               Mass
    ------------   -----------------  -----------------  -----------------  -----------------
           O         -1.093858438839    -1.684259511108     0.666857046217    15.994914619560
           C         -0.007508438839    -1.341750511108     0.326898046217    12.000000000000
           C          0.367508561161     0.038635488892    -0.154547953783    12.000000000000
           O          1.043056561161    -2.152483511108     0.327302046217    15.994914619560
           C         -0.806122438839     1.013055488892    -0.175492953783    12.000000000000
           H          1.167534561161     0.399661488892     0.486056046217     1.007825032070
           H          0.806550561161    -0.070208511108    -1.142550953783     1.007825032070
           C         -0.399063438839     2.402992488892    -0.667167953783    12.000000000000
           H         -1.230179438839     1.084815488892     0.821267046217     1.007825032070
           H         -1.591933438839     0.614004488892    -0.809339953783     1.007825032070
           C         -1.569276438839     3.385316488892    -0.692528953783    12.000000000000
           H          0.389017561161     2.797843488892    -0.029126953783     1.007825032070
           H          0.027541561161     2.324975488892    -1.665161953783     1.007825032070
           H         -1.996085438839     3.511391488892     0.298225046217     1.007825032070
           H         -1.253867438839     4.362562488892    -1.044355953783     1.007825032070
           H         -2.359857438839     3.035454488892    -1.349962953783     1.007825032070
           C          2.322711561161    -1.546163511108     0.327619046217    12.000000000000
           H          2.453501561161    -0.934233511108    -0.553245953783     1.007825032070
           H          3.033731561161    -2.357581511108     0.328203046217     1.007825032070
           H          2.452767561161    -0.933599511108     1.208163046217     1.007825032070

  Charge       = 0
  Multiplicity = 1
  Basis Set: 6-31G*
  Basis Set:

    Orbital Energies (a.u.)
    -----------------------

    Doubly Occupied:

       1A    -20.606145     2A    -20.544826     3A    -11.374882
       4A    -11.297592     5A    -11.242364     6A    -11.224583
       7A    -11.223248     8A    -11.213782     9A     -1.468190
      10A     -1.369296    11A     -1.092817    12A     -1.019053
      13A     -0.988716    14A     -0.907529    15A     -0.813127
      16A     -0.764059    17A     -0.703281    18A     -0.697866
      19A     -0.677704    20A     -0.648468    21A     -0.607926
      22A     -0.591365    23A     -0.584777    24A     -0.559650
      25A     -0.546149    26A     -0.526222    27A     -0.510769
      28A     -0.481977    29A     -0.477086    30A     -0.474440
      31A     -0.451265    32A     -0.429225

  @DF-RHF Final Energy:  -383.91525705892707

   => Energetics <=

    Nuclear Repulsion Energy =            386.7932069237838277
    One-Electron Energy =               -1289.1802443783581111
    Two-Electron Energy =                 518.4717803956473290
    DFT Exchange-Correlation Energy =       0.0000000000000000
    Empirical Dispersion Energy =           0.0000000000000000
    PCM Polarization Energy =               0.0000000000000000
    EFP Energy =                            0.0000000000000000
    Total Energy =                       -383.9152570589269544

  Mulliken Charges: (a.u.)
   Center  Symbol    Alpha    Beta     Spin     Total
       1     O     4.27172  4.27172  0.00000 -0.54344
       2     C     2.58943  2.58943  0.00000  0.82113
       3     C     3.24724  3.24724  0.00000 -0.49449
       4     O     4.30075  4.30075  0.00000 -0.60149
       5     C     3.14612  3.14612  0.00000 -0.29223
       6     H     0.40305  0.40305  0.00000  0.19389
       7     H     0.39922  0.39922  0.00000  0.20156
       8     C     3.15419  3.15419  0.00000 -0.30838
       9     H     0.41064  0.41064  0.00000  0.17872
      10     H     0.40971  0.40971  0.00000  0.18058
      11     C     3.23955  3.23955  0.00000 -0.47911
      12     H     0.42450  0.42450  0.00000  0.15100
      13     H     0.42384  0.42384  0.00000  0.15232
      14     H     0.41935  0.41935  0.00000  0.16130
      15     H     0.41853  0.41853  0.00000  0.16293
      16     H     0.41902  0.41902  0.00000  0.16196
      17     C     3.10334  3.10334  0.00000 -0.20669
      18     H     0.41302  0.41302  0.00000  0.17396
      19     H     0.39566  0.39566  0.00000  0.20868
      20     H     0.41110  0.41110  0.00000  0.17779

   Total alpha = 32.00000, Total beta = 32.00000, Total charge = -0.00000
