  ==> Input File <==

--------------------------------------------------------------------------
set {
	reference rhf
	basis 6-31G*
}

set_num_threads( 1 )
memory 2 gb

molecule MOL {
0 1

H	 -0.000158	 1.970498	 0.756846
O	 -0.000074	 1.880206	 -0.189275
C	 -0.000015	 0.544847	 -0.545111
C	 -1.278788	 -0.123820	 -0.051541
C	 1.278802	 -0.123718	 -0.051505
H	 -0.000001	 0.490777	 -1.623619
F	 -2.239739	 0.770765	 0.036979
F	 -1.685521	 -1.080099	 -0.859289
F	 -1.101999	 -0.646942	 1.151242
F	 2.323327	 0.466644	 -0.591854
F	 1.326242	 -1.401483	 -0.363667
F	 1.388946	 -0.015632	 1.262939

	symmetry c1
}
set optking {
	frozen_dihedral = ("
		6 3 2 1
	")
}

ee = energy('scf')
oeprop('DIPOLE', 'QUADRUPOLE', 'MULLIKEN_CHARGES')
f=open( 'psi4out.xyz', 'w' )
f.write( "12  " )
f.write( str(ee) + "\n" )
f.write( MOL.save_string_xyz() )
f.close()
--------------------------------------------------------------------------

    Molecular point group: c1

    Geometry (in Angstrom), charge = 0, multiplicity = 1:

       Center              X                  Y                   Z               Mass
    ------------   -----------------  -----------------  -----------------  -----------------
           H         -0.001422814966     1.971112111636     0.754401032771     1.007825032070
           O         -0.001338814966     1.880820111636    -0.191719967229    15.994914619560
           C         -0.001279814966     0.545461111636    -0.547555967229    12.000000000000
           C         -1.280052814966    -0.123205888364    -0.053985967229    12.000000000000
           C          1.277537185034    -0.123103888364    -0.053949967229    12.000000000000
           H         -0.001265814966     0.491391111636    -1.626063967229     1.007825032070
           F         -2.241003814966     0.771379111636     0.034534032771    18.998403224000
           F         -1.686785814966    -1.079484888364    -0.861733967229    18.998403224000
           F         -1.103263814966    -0.646327888364     1.148797032771    18.998403224000
           F          2.322062185034     0.467258111636    -0.594298967229    18.998403224000
           F          1.324977185034    -1.400868888364    -0.366111967229    18.998403224000
           F          1.387681185034    -0.015017888364     1.260494032771    18.998403224000

  Charge       = 0
  Multiplicity = 1
  Basis Set: 6-31G*
  Basis Set:

    Orbital Energies (a.u.)
    -----------------------

    Doubly Occupied:

       1A    -26.363683     2A    -26.361527     3A    -26.360835
       4A    -26.359846     5A    -26.358047     6A    -26.357782
       7A    -20.615419     8A    -11.526106     9A    -11.525146
      10A    -11.348130    11A     -1.764533    12A     -1.758233
      13A     -1.660880    14A     -1.658623    15A     -1.657098
      16A     -1.653787    17A     -1.434492    18A     -1.101518
      19A     -0.996803    20A     -0.937361    21A     -0.865060
      22A     -0.861588    23A     -0.851273    24A     -0.845015
      25A     -0.833138    26A     -0.812524    27A     -0.739046
      28A     -0.728275    29A     -0.726150    30A     -0.719831
      31A     -0.688402    32A     -0.685662    33A     -0.682947
      34A     -0.676894    35A     -0.668340    36A     -0.659224
      37A     -0.658335    38A     -0.652467    39A     -0.615542
      40A     -0.548798    41A     -0.507004

  @DF-RHF Final Energy:  -786.27310721985259

   => Energetics <=

    Nuclear Repulsion Energy =            671.0593963127921597
    One-Electron Energy =               -2429.0140632962120435
    Two-Electron Energy =                 971.6815597635693393
    DFT Exchange-Correlation Energy =       0.0000000000000000
    Empirical Dispersion Energy =           0.0000000000000000
    PCM Polarization Energy =               0.0000000000000000
    EFP Energy =                            0.0000000000000000
    Total Energy =                       -786.2731072198505444

  Mulliken Charges: (a.u.)
   Center  Symbol    Alpha    Beta     Spin     Total
       1     H     0.26771  0.26771  0.00000  0.46457
       2     O     4.35942  4.35942  0.00000 -0.71884
       3     C     3.05595  3.05595  0.00000 -0.11190
       4     C     2.44391  2.44391  0.00000  1.11219
       5     C     2.44223  2.44223  0.00000  1.11555
       6     H     0.37424  0.37424  0.00000  0.25152
       7     F     4.67355  4.67355  0.00000 -0.34709
       8     F     4.67417  4.67417  0.00000 -0.34834
       9     F     4.67890  4.67890  0.00000 -0.35779
      10     F     4.67477  4.67477  0.00000 -0.34955
      11     F     4.67422  4.67422  0.00000 -0.34843
      12     F     4.68095  4.68095  0.00000 -0.36189

   Total alpha = 41.00000, Total beta = 41.00000, Total charge =  0.00000
