  ==> Input File <==

--------------------------------------------------------------------------
set {
	reference rhf
	basis 6-31G*
}

set_num_threads( 1 )
memory 2 gb

molecule MOL {
0 1

O	 -1.623076	 -0.687047	 -0.555184
C	 -1.083277	 0.139568	 0.115197
C	 0.323299	 -0.082943	 0.642902
C	 -1.774125	 1.430928	 0.493280
C	 1.355627	 -0.005344	 -0.493127
H	 0.396251	 -1.044647	 1.143147
H	 0.528637	 0.693580	 1.371677
C	 2.786168	 -0.195604	 0.007473
H	 1.132807	 -0.760304	 -1.243899
H	 1.259610	 0.958506	 -0.981915
H	 3.495561	 -0.130713	 -0.811210
H	 2.912696	 -1.165395	 0.480041
H	 3.049284	 0.565503	 0.735850
H	 -1.724935	 1.594433	 1.565900
H	 -2.806170	 1.406010	 0.172347
H	 -1.268840	 2.267697	 0.018192

	symmetry c1
}
set optking {
	frozen_dihedral = ("
		9 5 3 2
	")
}

ee = energy('scf')
oeprop('DIPOLE', 'QUADRUPOLE', 'MULLIKEN_CHARGES')
f=open( 'psi4out.xyz', 'w' )
f.write( "16  " )
f.write( str(ee) + "\n" )
f.write( MOL.save_string_xyz() )
f.close()
--------------------------------------------------------------------------

    Molecular point group: c1

    Geometry (in Angstrom), charge = 0, multiplicity = 1:

       Center              X                  Y                   Z               Mass
    ------------   -----------------  -----------------  -----------------  -----------------
           O         -1.627268035732    -0.790087036751    -0.587457492785    15.994914619560
           C         -1.087469035732     0.036527963249     0.082923507215    12.000000000000
           C          0.319106964268    -0.185983036751     0.610628507215    12.000000000000
           C         -1.778317035732     1.327887963249     0.461006507215    12.000000000000
           C          1.351434964268    -0.108384036751    -0.525400492785    12.000000000000
           H          0.392058964268    -1.147687036751     1.110873507215     1.007825032070
           H          0.524444964268     0.590539963249     1.339403507215     1.007825032070
           C          2.781975964268    -0.298644036751    -0.024800492785    12.000000000000
           H          1.128614964268    -0.863344036751    -1.276172492785     1.007825032070
           H          1.255417964268     0.855465963249    -1.014188492785     1.007825032070
           H          3.491368964268    -0.233753036751    -0.843483492785     1.007825032070
           H          2.908503964268    -1.268435036751     0.447767507215     1.007825032070
           H          3.045091964268     0.462462963249     0.703576507215     1.007825032070
           H         -1.729127035732     1.491392963249     1.533626507215     1.007825032070
           H         -2.810362035732     1.302969963249     0.140073507215     1.007825032070
           H         -1.273032035732     2.164656963249    -0.014081492785     1.007825032070

  Charge       = 0
  Multiplicity = 1
  Basis Set: 6-31G*
  Basis Set:

    Orbital Energies (a.u.)
    -----------------------

    Doubly Occupied:

       1A    -20.547605     2A    -11.324850     3A    -11.230999
       4A    -11.230031     5A    -11.229215     6A    -11.218071
       7A     -1.393432     8A     -1.081176     9A     -1.014323
      10A     -0.948802    11A     -0.827433    12A     -0.734960
      13A     -0.657591    14A     -0.649486    15A     -0.613689
      16A     -0.604849    17A     -0.574126    18A     -0.559779
      19A     -0.541552    20A     -0.514986    21A     -0.500877
      22A     -0.483097    23A     -0.470457    24A     -0.397971

  @DF-RHF Final Energy:  -270.02928223524214

   => Energetics <=

    Nuclear Repulsion Energy =            236.9240677539747821
    One-Electron Energy =                -835.2081636805510243
    Two-Electron Energy =                 328.2548136913345047
    DFT Exchange-Correlation Energy =       0.0000000000000000
    Empirical Dispersion Energy =           0.0000000000000000
    PCM Polarization Energy =               0.0000000000000000
    EFP Energy =                            0.0000000000000000
    Total Energy =                       -270.0292822352417375

  Mulliken Charges: (a.u.)
   Center  Symbol    Alpha    Beta     Spin     Total
       1     O     4.26220  4.26220  0.00000 -0.52440
       2     C     2.73771  2.73771  0.00000  0.52457
       3     C     3.19841  3.19841  0.00000 -0.39683
       4     C     3.29023  3.29023  0.00000 -0.58046
       5     C     3.15927  3.15927  0.00000 -0.31854
       6     H     0.40061  0.40061  0.00000  0.19878
       7     H     0.41865  0.41865  0.00000  0.16270
       8     C     3.24004  3.24004  0.00000 -0.48008
       9     H     0.40468  0.40468  0.00000  0.19064
      10     H     0.42022  0.42022  0.00000  0.15956
      11     H     0.41556  0.41556  0.00000  0.16889
      12     H     0.41841  0.41841  0.00000  0.16318
      13     H     0.42134  0.42134  0.00000  0.15731
      14     H     0.40891  0.40891  0.00000  0.18217
      15     H     0.39646  0.39646  0.00000  0.20708
      16     H     0.40729  0.40729  0.00000  0.18542

   Total alpha = 24.00000, Total beta = 24.00000, Total charge = -0.00000
