  ==> Input File <==

--------------------------------------------------------------------------
set {
	reference rhf
	basis 6-31G*
}

set_num_threads( 4 )
memory 2 gb

molecule MOL {
0 1

H	 3.463771	 0.168298	 -0.756243
C	 2.752674	 -0.045734	 0.033351
C	 1.322923	 0.120767	 -0.479465
H	 2.934561	 -1.059086	 0.377456
H	 2.958358	 0.631174	 0.856809
C	 0.306652	 -0.176050	 0.621399
H	 1.144658	 -0.551717	 -1.312180
H	 1.166477	 1.131798	 -0.836680
N	 -1.068537	 -0.011044	 0.085269
H	 0.372515	 -1.192590	 0.973735
H	 0.391664	 0.520566	 1.441230
O	 -1.977802	 -0.209525	 0.830396
O	 -1.168403	 0.278856	 -1.067992

	symmetry c1
}
set optking {
	frozen_dihedral = ("
		12 9 6 3
	")
}

ee = optimize('scf')
oeprop('DIPOLE', 'QUADRUPOLE', 'MULLIKEN_CHARGES')
f=open( 'psi4out.xyz', 'w' )
f.write( "13  " )
f.write( str(ee) + "\n" )
f.write( MOL.save_string_xyz() )
f.close()
--------------------------------------------------------------------------

    Molecular point group: c1
  Charge       = 0
  Multiplicity = 1
  Basis Set: 6-31G*
  Basis Set:
  @DF-RHF Final Energy:  -321.73284250446255
    Total Energy =                       -321.7328425044622691
    Molecular point group: c1
  Basis Set: 6-31G*
  Basis Set:
  Basis Set: 6-31G*
  Basis Set:
  @DF-RHF Final Energy:  -321.73266146619051
    Total Energy =                       -321.7326614661902795
  Basis Set: 6-31G*
  Basis Set:
  Basis Set: 6-31G*
  Basis Set:
  @DF-RHF Final Energy:  -321.73181847963684
    Total Energy =                       -321.7318184796367291
  Basis Set: 6-31G*
  Basis Set:
  Basis Set: 6-31G*
  Basis Set:
  @DF-RHF Final Energy:  -321.73263398995294
    Total Energy =                       -321.7326339899528875
  Basis Set: 6-31G*
  Basis Set:
  Basis Set: 6-31G*
  Basis Set:
  @DF-RHF Final Energy:  -321.73415725836253
    Total Energy =                       -321.7341572583627567
  Basis Set: 6-31G*
  Basis Set:
  Basis Set: 6-31G*
  Basis Set:
  @DF-RHF Final Energy:  -321.73494279476677
    Total Energy =                       -321.7349427947668801
  Basis Set: 6-31G*
  Basis Set:
  Basis Set: 6-31G*
  Basis Set:
  @DF-RHF Final Energy:  -321.73498689567799
    Total Energy =                       -321.7349868956779915
  Basis Set: 6-31G*
  Basis Set:
  Charge       = 0
  Multiplicity = 1
  Basis Set: 6-31G*
  Basis Set:

    Orbital Energies (a.u.)
    -----------------------

    Doubly Occupied:

       1A    -20.604799     2A    -20.597840     3A    -15.849002
       4A    -11.301239     5A    -11.249663     6A    -11.237488
       7A     -1.632076     8A     -1.417441     9A     -1.132868
      10A     -1.027256    11A     -0.884811    12A     -0.825298
      13A     -0.759805    14A     -0.750513    15A     -0.725809
      16A     -0.655746    17A     -0.607849    18A     -0.575722
      19A     -0.554107    20A     -0.522858    21A     -0.509936
      22A     -0.485833    23A     -0.472934    24A     -0.448623

  @DF-RHF Final Energy:  -321.73498759813970

   => Energetics <=

    Nuclear Repulsion Energy =            247.0368597943726172
    One-Electron Energy =                -927.8846627699124383
    Two-Electron Energy =                 359.1128153774001248
    DFT Exchange-Correlation Energy =       0.0000000000000000
    Empirical Dispersion Energy =           0.0000000000000000
    PCM Polarization Energy =               0.0000000000000000
    EFP Energy =                            0.0000000000000000
    Total Energy =                       -321.7349875981396963
    Molecular point group: c1
  Basis Set: 6-31G*
  Basis Set:

  -Total Gradient:
     Atom            X                  Y                   Z
    ------   -----------------  -----------------  -----------------
       1       -0.000032832254    -0.000001203113    -0.000003733402
       2       -0.000007880581    -0.000022726607     0.000025634790
       3       -0.000001297784     0.000046597127    -0.000008789596
       4        0.000017446677    -0.000013386569     0.000003080763
       5       -0.000006161742     0.000008332543     0.000006390200
       6        0.000001045559     0.000002285541    -0.000002980206
       7       -0.000007708601    -0.000002075008    -0.000012256277
       8        0.000004836722    -0.000016223661     0.000007229641
       9       -0.000014582492    -0.000014294963    -0.000129200528
      10       -0.000016624160     0.000016648336     0.000005588955
      11        0.000019752446     0.000007399395     0.000024171451
      12        0.000023410385    -0.000021302747     0.000104380616
      13        0.000020595830     0.000009949726    -0.000019516403

  **** Optimization is complete! (in 8 steps) ****
    Final optimized geometry and variables:
    Molecular point group: c1

    Geometry (in Angstrom), charge = 0, multiplicity = 1:

    H            3.515269085677     0.158895634793    -0.727518690682
    C            2.776804314454    -0.044308224850     0.039400806563
    C            1.365123867227     0.129050667164    -0.523815609789
    H            2.942183525031    -1.056293659508     0.396823487216
    H            2.962932284798     0.635843398367     0.865209527898
    C            0.328254506401    -0.154148353968     0.548403559605
    H            1.212035310569    -0.539868783823    -1.361700823021
    H            1.233150901333     1.136570775145    -0.898472708028
    N           -1.080732251476    -0.009342678513     0.079859534105
    H            0.384556093478    -1.164988048902     0.927548180884
    H            0.403902050026     0.519074255528     1.390940216963
    O           -1.924143930869    -0.224314047289     0.896034292316
    O           -1.280728818695     0.304145379591    -1.051309403209

  Mulliken Charges: (a.u.)
   Center  Symbol    Alpha    Beta     Spin     Total
       1     H     0.40757  0.40757  0.00000  0.18485
       2     C     3.25023  3.25023  0.00000 -0.50046
       3     C     3.16456  3.16456  0.00000 -0.32912
       4     H     0.41646  0.41646  0.00000  0.16708
       5     H     0.41648  0.41648  0.00000  0.16704
       6     C     3.08860  3.08860  0.00000 -0.17720
       7     H     0.40154  0.40154  0.00000  0.19691
       8     H     0.40160  0.40160  0.00000  0.19681
       9     N     3.22500  3.22500  0.00000  0.55000
      10     H     0.38553  0.38553  0.00000  0.22894
      11     H     0.38552  0.38552  0.00000  0.22896
      12     O     4.22934  4.22934  0.00000 -0.45868
      13     O     4.22756  4.22756  0.00000 -0.45513

   Total alpha = 24.00000, Total beta = 24.00000, Total charge =  0.00000
