  ==> Input File <==

--------------------------------------------------------------------------
set {
	reference rhf
	basis cc-pvtz
}

set_num_threads( 4 )
memory 2 gb

molecule MOL {
0 1

O	 -1.510770	 1.240811	 -0.054933
C	 -1.081510	 0.147522	 0.122720
C	 0.327029	 -0.064006	 0.641890
C	 -1.903028	 -1.084121	 -0.174656
C	 1.349460	 -0.017068	 -0.500215
H	 0.399029	 -1.014606	 1.159950
H	 0.538021	 0.726928	 1.350471
C	 1.005232	 1.036627	 -1.546628
H	 2.338537	 0.184051	 -0.098825
H	 1.395196	 -0.995316	 -0.964184
H	 1.735952	 1.041081	 -2.346664
H	 0.983187	 2.030256	 -1.111924
H	 0.032609	 0.845501	 -1.986338
H	 -1.341891	 -1.779207	 -0.789259
H	 -2.820449	 -0.808163	 -0.671328
H	 -2.133314	 -1.593056	 0.755831

	symmetry c1
}
set optking {
	frozen_dihedral = ("
		9 5 3 2
	")
}

ee = optimize('scf')
oeprop('DIPOLE', 'QUADRUPOLE', 'MULLIKEN_CHARGES')
f=open( 'psi4out.xyz', 'w' )
f.write( "16  " )
f.write( str(ee) + "\n" )
f.write( MOL.save_string_xyz() )
f.close()
--------------------------------------------------------------------------

    Molecular point group: c1
  Charge       = 0
  Multiplicity = 1
  Basis Set: CC-PVTZ
  Basis Set:
  @DF-RHF Final Energy:  -270.12282450152941
    Total Energy =                       -270.1228245015297489
    Molecular point group: c1
  Basis Set: CC-PVTZ
  Basis Set:
  Basis Set: CC-PVTZ
  Basis Set:
  @DF-RHF Final Energy:  -270.12497891867906
    Total Energy =                       -270.1249789186796875
  Basis Set: CC-PVTZ
  Basis Set:
  Basis Set: CC-PVTZ
  Basis Set:
  @DF-RHF Final Energy:  -270.12330447495424
    Total Energy =                       -270.1233044749538976
  Basis Set: CC-PVTZ
  Basis Set:
  Basis Set: CC-PVTZ
  Basis Set:
  @DF-RHF Final Energy:  -270.12566425710133
    Total Energy =                       -270.1256642571017323
  Basis Set: CC-PVTZ
  Basis Set:
  @DF-RHF Final Energy:  -270.12609374420413
    Total Energy =                       -270.1260937442039562
  Basis Set: CC-PVTZ
  Basis Set:
  @DF-RHF Final Energy:  -270.12624790381062
    Total Energy =                       -270.1262479038107926
  Basis Set: CC-PVTZ
  Basis Set:
  Basis Set: CC-PVTZ
  Basis Set:
  @DF-RHF Final Energy:  -270.12628482431853
    Total Energy =                       -270.1262848243184749
  Basis Set: CC-PVTZ
  Basis Set:
  Basis Set: CC-PVTZ
  Basis Set:
  @DF-RHF Final Energy:  -270.12629614891614
    Total Energy =                       -270.1262961489159693
  Basis Set: CC-PVTZ
  Basis Set:
  Charge       = 0
  Multiplicity = 1
  Basis Set: CC-PVTZ
  Basis Set:

    Orbital Energies (a.u.)
    -----------------------

    Doubly Occupied:

       1A    -20.537986     2A    -11.319538     3A    -11.233364
       4A    -11.228528     5A    -11.226771     6A    -11.214680
       7A     -1.397913     8A     -1.083116     9A     -1.010098
      10A     -0.951450    11A     -0.835679    12A     -0.728951
      13A     -0.656496    14A     -0.648476    15A     -0.625774
      16A     -0.607335    17A     -0.578658    18A     -0.561364
      19A     -0.536657    20A     -0.509389    21A     -0.505980
      22A     -0.483732    23A     -0.477072    24A     -0.400349

  @DF-RHF Final Energy:  -270.12629710584639

   => Energetics <=

    Nuclear Repulsion Energy =            243.4582267636495203
    One-Electron Energy =                -848.4503372414579871
    Two-Electron Energy =                 334.8658133719621901
    DFT Exchange-Correlation Energy =       0.0000000000000000
    Empirical Dispersion Energy =           0.0000000000000000
    PCM Polarization Energy =               0.0000000000000000
    EFP Energy =                            0.0000000000000000
    Total Energy =                       -270.1262971058462199
    Molecular point group: c1
  Basis Set: CC-PVTZ
  Basis Set:

  -Total Gradient:
     Atom            X                  Y                   Z
    ------   -----------------  -----------------  -----------------
       1        0.000008396569    -0.000035873303    -0.000010586447
       2        0.000393031225     0.003640475700     0.000090405451
       3       -0.000710595240    -0.004037209888    -0.000338295304
       4       -0.000029645872    -0.000039279760     0.000086184557
       5        0.001087749614    -0.004199296739     0.001114731518
       6       -0.000002553718     0.000003089409     0.000012748386
       7        0.000000035975     0.000002382544    -0.000002572399
       8       -0.000026994894    -0.000018478845     0.000031237039
       9       -0.000792099402     0.004658551046    -0.000916211333
      10        0.000007872503     0.000002129833    -0.000003345691
      11        0.000013747964     0.000000989341    -0.000017954553
      12        0.000005304374    -0.000000436823     0.000008097455
      13        0.000022344752     0.000005909200     0.000005044042
      14        0.000010701538     0.000018184223    -0.000022991618
      15        0.000000881723     0.000012445188    -0.000010371548
      16        0.000011822888    -0.000013581125    -0.000026119556

  **** Optimization is complete! (in 9 steps) ****
    Final optimized geometry and variables:
    Molecular point group: c1

    Geometry (in Angstrom), charge = 0, multiplicity = 1:

    O           -1.347843698141     1.001018182591     0.598889101048
    C           -0.784430745646    -0.036127504844     0.467174719910
    C            0.666135908925    -0.202612792767     0.875443519462
    C           -1.487696368725    -1.247949083340    -0.100046284316
    C            1.648871356716    -0.271271288164    -0.310128667380
    H            0.769700475312    -1.095840990463     1.482821062398
    H            0.906062011751     0.652292668540     1.493230078612
    C            1.345891827053     0.717650583807    -1.435466542619
    H            2.632944953824    -0.031262634798     0.075045586241
    H            1.693380348702    -1.278487693002    -0.708541315424
    H            2.127276081722     0.684076464643    -2.185386425821
    H            1.285121113246     1.731475253924    -1.057708340831
    H            0.407124624113     0.499970117676    -1.931409376292
    H           -0.899708245280    -1.705838689429    -0.886914513540
    H           -2.458059532137    -0.967504302259    -0.480130823073
    H           -1.608454262302    -1.988971209849     0.683601151494

  Mulliken Charges: (a.u.)
   Center  Symbol    Alpha    Beta     Spin     Total
       1     O     4.17641  4.17641  0.00000 -0.35283
       2     C     2.85423  2.85423  0.00000  0.29155
       3     C     3.10700  3.10700  0.00000 -0.21400
       4     C     3.15534  3.15534  0.00000 -0.31068
       5     C     3.10734  3.10734  0.00000 -0.21467
       6     H     0.44324  0.44324  0.00000  0.11353
       7     H     0.43825  0.43825  0.00000  0.12350
       8     C     3.14510  3.14510  0.00000 -0.29019
       9     H     0.44261  0.44261  0.00000  0.11479
      10     H     0.44864  0.44864  0.00000  0.10272
      11     H     0.44805  0.44805  0.00000  0.10391
      12     H     0.44537  0.44537  0.00000  0.10925
      13     H     0.45457  0.45457  0.00000  0.09086
      14     H     0.45080  0.45080  0.00000  0.09839
      15     H     0.43553  0.43553  0.00000  0.12893
      16     H     0.44753  0.44753  0.00000  0.10494

   Total alpha = 24.00000, Total beta = 24.00000, Total charge = -0.00000
