                              Psi4 1.0.54 Driver

  ==> Input File <==

--------------------------------------------------------------------------
set {
	reference rhf
	basis cc-pvtz
}

set_num_threads( 4 )
memory 2 gb

molecule MOL {
0 1

H	 1.113263	 2.266673	 2.703310
O	 1.755852	 2.064290	 2.046925
C	 1.233534	 1.312929	 1.061419
C	 2.076878	 0.941345	 0.024203
C	 -0.085483	 0.912285	 1.055239
H	 3.098968	 1.263666	 0.048675
C	 1.597828	 0.172654	 -1.011642
H	 -0.758003	 1.184283	 1.842025
C	 -0.532034	 0.141680	 0.000000
H	 2.256888	 -0.109720	 -1.808920
C	 0.276783	 -0.242045	 -1.040121
N	 -1.937041	 -0.281114	 0.000000
H	 -0.108962	 -0.838855	 -1.837454
O	 -2.159542	 -1.446261	 0.000000
O	 -2.764978	 0.565773	 0.000000

	symmetry c1
}
set optking {
	frozen_dihedral = ("
		11 9 12 14
	")
}

ee,wfn = optimize('scf', return_wfn=True)
oeprop( wfn, 'DIPOLE', 'QUADRUPOLE', 'MULLIKEN_CHARGES')
f=open( 'psi4out.xyz', 'w' )
f.write( "15  " )
f.write( str(ee) + "\n" )
f.write( MOL.save_string_xyz() )
f.close()
--------------------------------------------------------------------------

    Molecular point group: c1
  Charge       = 0
  Multiplicity = 1
  Basis Set: CC-PVTZ
  Basis Set:
  @DF-RHF Final Energy:  -509.21233494283706
    Total Energy =                       -509.2123349428370602
    Molecular point group: c1
  Basis Set: CC-PVTZ
  Basis Set:
  Basis Set: CC-PVTZ
  Basis Set:
  @DF-RHF Final Energy:  -509.20592417922410
    Total Energy =                       -509.2059241792242119
  Basis Set: CC-PVTZ
  Basis Set:
  Basis Set: CC-PVTZ
  Basis Set:
  @DF-RHF Final Energy:  -509.21152684026470
    Total Energy =                       -509.2115268402644688
  Basis Set: CC-PVTZ
  Basis Set:
  Basis Set: CC-PVTZ
  Basis Set:
  @DF-RHF Final Energy:  -509.21268080407151
    Total Energy =                       -509.2126808040712831
  Basis Set: CC-PVTZ
  Basis Set:
  Basis Set: CC-PVTZ
  Basis Set:
  @DF-RHF Final Energy:  -509.21267169946969
    Total Energy =                       -509.2126716994697517
  Basis Set: CC-PVTZ
  Basis Set:
  Basis Set: CC-PVTZ
  Basis Set:
  @DF-RHF Final Energy:  -509.21282155238475
    Total Energy =                       -509.2128215523841845
  Basis Set: CC-PVTZ
  Basis Set:
  Charge       = 0
  Multiplicity = 1
  Basis Set: CC-PVTZ
  Basis Set:

    Orbital Energies (a.u.)
    -----------------------

    Doubly Occupied:

       1A    -20.610130     2A    -20.599417     3A    -20.598744
       4A    -15.850521     5A    -11.330121     6A    -11.313067
       7A    -11.264868     8A    -11.263917     9A    -11.258503
      10A    -11.252167    11A     -1.646816    12A     -1.443017
      13A     -1.429957    14A     -1.204400    15A     -1.096700
      16A     -1.049771    17A     -0.966936    18A     -0.885935
      19A     -0.833418    20A     -0.793996    21A     -0.766268
      22A     -0.740791    23A     -0.724539    24A     -0.712763
      25A     -0.673826    26A     -0.636307    27A     -0.623375
      28A     -0.596994    29A     -0.564955    30A     -0.549748
      31A     -0.534299    32A     -0.495202    33A     -0.489585
      34A     -0.460266    35A     -0.377243    36A     -0.346566

  @DF-RHF Final Energy:  -509.21282195050190

   => Energetics <=

    Nuclear Repulsion Energy =            504.2332903337159564
    One-Electron Energy =               -1694.9219682061766434
    Two-Electron Energy =                 681.4758559219593508
    DFT Exchange-Correlation Energy =       0.0000000000000000
    Empirical Dispersion Energy =           0.0000000000000000
    PCM Polarization Energy =               0.0000000000000000
    EFP Energy =                            0.0000000000000000
    Total Energy =                       -509.2128219505012794
    Molecular point group: c1
  Basis Set: CC-PVTZ
  Basis Set:

  -Total Gradient:
     Atom            X                  Y                   Z
    ------   -----------------  -----------------  -----------------
       1       -0.000000230243    -0.000005408448     0.000000669848
       2        0.000013206443     0.000011231600     0.000017993203
       3       -0.000036085155     0.000021295444    -0.000049027145
       4        0.000010527466    -0.000010692279     0.000006731536
       5        0.000005741550    -0.000018288408     0.000030670931
       6       -0.000001966137     0.000000651338    -0.000000831762
       7        0.000016537775    -0.000011361817     0.000001550731
       8        0.000003926463    -0.000001200715    -0.000004018777
       9        0.001523400655    -0.005665628037     0.004957899334
      10       -0.000001097558     0.000006149361    -0.000005022158
      11       -0.001058591261     0.003840686989    -0.002115047840
      12       -0.000461060492     0.001994499264    -0.007972654223
      13        0.000002949252     0.000005799489     0.000003500120
      14        0.000022487539    -0.000222257362     0.005132308418
      15       -0.000039746300     0.000054523583    -0.000004722216

  **** Optimization is complete! (in 7 steps) ****
    Final optimized geometry and variables:
    Molecular point group: c1

    Geometry (in Angstrom), charge = 0, multiplicity = 1:

    H            1.234707545593     1.831805956413     2.461949270167
    O            1.875908949812     1.632821353997     1.803246813252
    C            1.354273934926     0.889233302035     0.813621870413
    C            2.193252492578     0.537802634446    -0.234478440939
    C            0.034303309218     0.485199459935     0.807147318702
    H            3.211408732006     0.871842472328    -0.214975867795
    C            1.712623903957    -0.220556089776    -1.276686005744
    H           -0.644304059426     0.770936035023     1.586699160797
    C           -0.397910823883    -0.298621871220    -0.239700865648
    H            2.365581619366    -0.477425733835    -2.087674278462
    C            0.397798302780    -0.658322369333    -1.294281148434
    N           -1.807299746000    -0.695465397405    -0.256170575880
    H            0.014023054147    -1.261564033406    -2.090832644874
    O           -2.042073679113    -1.855387472981    -0.301181681262
    O           -2.613101623618     0.170840732148    -0.187445079810

  Mulliken Charges: (a.u.)
   Center  Symbol    Alpha    Beta     Spin     Total
       1     H     0.38451  0.38451  0.00000  0.23098
       2     O     4.16728  4.16728  0.00000 -0.33456
       3     C     2.84268  2.84268  0.00000  0.31464
       4     C     3.10486  3.10486  0.00000 -0.20972
       5     C     3.14069  3.14069  0.00000 -0.28139
       6     H     0.41399  0.41399  0.00000  0.17202
       7     C     3.05098  3.05098  0.00000 -0.10196
       8     H     0.41946  0.41946  0.00000  0.16107
       9     C     2.92588  2.92588  0.00000  0.14824
      10     H     0.41632  0.41632  0.00000  0.16737
      11     C     3.10855  3.10855  0.00000 -0.21710
      12     N     3.28284  3.28284  0.00000  0.43432
      13     H     0.41082  0.41082  0.00000  0.17836
      14     O     4.16435  4.16435  0.00000 -0.32870
      15     O     4.16679  4.16679  0.00000 -0.33357

   Total alpha = 36.00000, Total beta = 36.00000, Total charge = -0.00000

*** Psi4 exiting successfully. Buy a developer a beer!
