  ==> Input File <==

--------------------------------------------------------------------------
set {
	reference rhf
	basis 6-31G*
}

set_num_threads( 4 )
memory 2 gb

molecule MOL {
0 1

H	 -1.237202	 -0.672035	 -1.119515
O	 -1.422729	 -0.573567	 -0.196946
C	 -0.731407	 0.539437	 0.309156
C	 0.680193	 0.672443	 -0.251532
H	 -1.319765	 1.404033	 0.030086
H	 -0.700012	 0.506517	 1.397677
C	 1.599139	 -0.492137	 0.118598
H	 0.616402	 0.758534	 -1.332349
H	 1.107032	 1.602637	 0.117369
H	 1.239738	 -1.428634	 -0.297334
H	 2.601428	 -0.335055	 -0.265730
H	 1.674954	 -0.608418	 1.197020

	symmetry c1
}
set optking {
	frozen_dihedral = ("
		1 2 3 4
	")
}

ee = optimize('scf')
oeprop('DIPOLE', 'QUADRUPOLE', 'MULLIKEN_CHARGES')
f=open( 'psi4out.xyz', 'w' )
f.write( "12  " )
f.write( str(ee) + "\n" )
f.write( MOL.save_string_xyz() )
f.close()
--------------------------------------------------------------------------

    Molecular point group: c1
  Charge       = 0
  Multiplicity = 1
  Basis Set: 6-31G*
  Basis Set:
  @DF-RHF Final Energy:  -193.10785249602662
    Total Energy =                       -193.1078524960266805
    Molecular point group: c1
  Basis Set: 6-31G*
  Basis Set:
  Basis Set: 6-31G*
  Basis Set:
  @DF-RHF Final Energy:  -193.10904446777681
    Total Energy =                       -193.1090444677768119
  Basis Set: 6-31G*
  Basis Set:
  Basis Set: 6-31G*
  Basis Set:
  @DF-RHF Final Energy:  -193.10949204936563
    Total Energy =                       -193.1094920493656275
  Basis Set: 6-31G*
  Basis Set:
  Basis Set: 6-31G*
  Basis Set:
  @DF-RHF Final Energy:  -193.10949366638903
    Total Energy =                       -193.1094936663891417
  Basis Set: 6-31G*
  Basis Set:
  Basis Set: 6-31G*
  Basis Set:
  @DF-RHF Final Energy:  -193.10950238326035
    Total Energy =                       -193.1095023832603488
  Basis Set: 6-31G*
  Basis Set:
  Charge       = 0
  Multiplicity = 1
  Basis Set: 6-31G*
  Basis Set:

    Orbital Energies (a.u.)
    -----------------------

    Doubly Occupied:

       1A    -20.552806     2A    -11.267916     3A    -11.224813
       4A    -11.213044     5A     -1.359894     6A     -1.051999
       7A     -0.924116     8A     -0.818448     9A     -0.667339
      10A     -0.639838    11A     -0.637087    12A     -0.569310
      13A     -0.539397    14A     -0.514629    15A     -0.489323
      16A     -0.467325    17A     -0.430717

  @DF-RHF Final Energy:  -193.10950316480194

   => Energetics <=

    Nuclear Repulsion Energy =            133.1814393747437180
    One-Electron Energy =                -525.8458825091927338
    Two-Electron Energy =                 199.5549399696471937
    DFT Exchange-Correlation Energy =       0.0000000000000000
    Empirical Dispersion Energy =           0.0000000000000000
    PCM Polarization Energy =               0.0000000000000000
    EFP Energy =                            0.0000000000000000
    Total Energy =                       -193.1095031648018221
    Molecular point group: c1
  Basis Set: 6-31G*
  Basis Set:

  -Total Gradient:
     Atom            X                  Y                   Z
    ------   -----------------  -----------------  -----------------
       1        0.001891545227    -0.001374166115     0.000601967705
       2       -0.002546321675     0.002024032827    -0.001244835333
       3        0.001173384266    -0.001486159512     0.001783230230
       4       -0.000538989185     0.000826035099    -0.001167236970
       5        0.000013787044     0.000001224321     0.000004026293
       6        0.000019806229     0.000004501247     0.000004300989
       7       -0.000001068015     0.000011941914    -0.000002915666
       8       -0.000009440083    -0.000008776108     0.000013437017
       9        0.000007702425     0.000009909048     0.000007792559
      10       -0.000001489930    -0.000008514751    -0.000006294136
      11       -0.000016573591    -0.000002956864    -0.000001645505
      12        0.000007657290     0.000002928894     0.000008172816

  **** Optimization is complete! (in 6 steps) ****
    Final optimized geometry and variables:
    Molecular point group: c1

    Geometry (in Angstrom), charge = 0, multiplicity = 1:

    H           -1.208293548525    -0.715890569325    -1.089074426421
    O           -1.408359485066    -0.598313942119    -0.170896149859
    C           -0.734102109500     0.533978338468     0.316416654510
    C            0.683620540669     0.670478989205    -0.226908264763
    H           -1.300404323025     1.433668592571     0.082390010576
    H           -0.716389780778     0.432754556833     1.394807476573
    C            1.592424403595    -0.501567640806     0.142681890567
    H            0.638050319720     0.776542048399    -1.310745555369
    H            1.106191172893     1.599096677634     0.148926148647
    H            1.193018055793    -1.440995434738    -0.222607555222
    H            2.585111641444    -0.372621925454    -0.276665620177
    H            1.694754338172    -0.586064583816     1.220565546218

  Mulliken Charges: (a.u.)
   Center  Symbol    Alpha    Beta     Spin     Total
       1     H     0.28282  0.28282  0.00000  0.43435
       2     O     4.37091  4.37091  0.00000 -0.74181
       3     C     2.98605  2.98605  0.00000  0.02789
       4     C     3.17826  3.17826  0.00000 -0.35653
       5     H     0.42797  0.42797  0.00000  0.14405
       6     H     0.41822  0.41822  0.00000  0.16355
       7     C     3.23860  3.23860  0.00000 -0.47719
       8     H     0.42604  0.42604  0.00000  0.14792
       9     H     0.41816  0.41816  0.00000  0.16367
      10     H     0.41515  0.41515  0.00000  0.16969
      11     H     0.41879  0.41879  0.00000  0.16242
      12     H     0.41901  0.41901  0.00000  0.16198

   Total alpha = 17.00000, Total beta = 17.00000, Total charge = -0.00000
