  ==> Input File <==

--------------------------------------------------------------------------
set {
	reference rhf
	basis cc-pvtz
}

set_num_threads( 4 )
memory 2 gb

molecule MOL {
0 1

H	 0.970173	 2.119304	 -1.228176
O	 1.233548	 1.884300	 -0.356477
C	 0.706474	 0.636793	 -0.025501
C	 -0.793473	 0.591216	 0.050087
H	 1.120339	 0.375715	 0.941379
H	 1.046459	 -0.125569	 -0.724009
C	 -1.534243	 -0.493009	 -0.013340
H	 -1.266611	 1.552628	 0.164437
H	 -1.101195	 -1.466332	 -0.144046
H	 -2.604242	 -0.437780	 0.050785

	symmetry c1
}
set optking {
	frozen_dihedral = ("
		5 3 4 7
	")
}

ee = optimize('scf')
oeprop('DIPOLE', 'QUADRUPOLE', 'MULLIKEN_CHARGES')
f=open( 'psi4out.xyz', 'w' )
f.write( "10  " )
f.write( str(ee) + "\n" )
f.write( MOL.save_string_xyz() )
f.close()
--------------------------------------------------------------------------

    Molecular point group: c1
  Charge       = 0
  Multiplicity = 1
  Basis Set: CC-PVTZ
  Basis Set:
  @DF-RHF Final Energy:  -191.99597345009553
    Total Energy =                       -191.9959734500954482
    Molecular point group: c1
  Basis Set: CC-PVTZ
  Basis Set:
  Basis Set: CC-PVTZ
  Basis Set:
  @DF-RHF Final Energy:  -191.99636795825637
    Total Energy =                       -191.9963679582564851
  Basis Set: CC-PVTZ
  Basis Set:
  Basis Set: CC-PVTZ
  Basis Set:
  @DF-RHF Final Energy:  -191.99644011630852
    Total Energy =                       -191.9964401163085768
  Basis Set: CC-PVTZ
  Basis Set:
  Basis Set: CC-PVTZ
  Basis Set:
  @DF-RHF Final Energy:  -191.99644349621363
    Total Energy =                       -191.9964434962136295
  Basis Set: CC-PVTZ
  Basis Set:
  Charge       = 0
  Multiplicity = 1
  Basis Set: CC-PVTZ
  Basis Set:

    Orbital Energies (a.u.)
    -----------------------

    Doubly Occupied:

       1A    -20.554105     2A    -11.276718     3A    -11.230285
       4A    -11.220375     5A     -1.373319     6A     -1.066103
       7A     -0.923686     8A     -0.778326     9A     -0.707393
      10A     -0.627899    11A     -0.626582    12A     -0.600673
      13A     -0.527781    14A     -0.501597    15A     -0.451019
      16A     -0.370146

  @DF-RHF Final Energy:  -191.99644379539060

   => Energetics <=

    Nuclear Repulsion Energy =            117.2116868013056603
    One-Electron Energy =                -492.7442435249089385
    Two-Electron Energy =                 183.5361129282127308
    DFT Exchange-Correlation Energy =       0.0000000000000000
    Empirical Dispersion Energy =           0.0000000000000000
    PCM Polarization Energy =               0.0000000000000000
    EFP Energy =                            0.0000000000000000
    Total Energy =                       -191.9964437953905758
    Molecular point group: c1
  Basis Set: CC-PVTZ
  Basis Set:

  -Total Gradient:
     Atom            X                  Y                   Z
    ------   -----------------  -----------------  -----------------
       1       -0.000013273574    -0.000007285172    -0.000002667315
       2        0.000008162303    -0.000023135371     0.000013040501
       3       -0.000000911371     0.003857255203     0.002546979091
       4       -0.000155022581    -0.000428827659    -0.004819532495
       5        0.000022164993    -0.003180381134    -0.000812527533
       6        0.000001303487     0.000002075076    -0.000006911394
       7        0.000146405141    -0.000223647377     0.003089330938
       8        0.000000110353    -0.000000525689    -0.000006857129
       9       -0.000006818765     0.000005202008    -0.000002902453
      10       -0.000002119983    -0.000000729883     0.000002047788

  **** Optimization is complete! (in 5 steps) ****
    Final optimized geometry and variables:
    Molecular point group: c1

    Geometry (in Angstrom), charge = 0, multiplicity = 1:

    H            1.014477619688     1.390762565203    -1.128427259583
    O            1.249066935874     1.177962873306    -0.243149542093
    C            0.738744509845    -0.079054203163     0.096123742317
    C           -0.767273042415    -0.106217742103     0.150758702642
    H            1.143126829511    -0.326422822191     1.068873565492
    H            1.097564706359    -0.842144650142    -0.589196962238
    C           -1.500864861940    -1.195633537788     0.093884139592
    H           -1.235464589082     0.849618547426     0.314121084309
    H           -1.064312291866    -2.167305098619    -0.057680338142
    H           -2.568765834064    -1.157429152547     0.193820249071

  Mulliken Charges: (a.u.)
   Center  Symbol    Alpha    Beta     Spin     Total
       1     H     0.39260  0.39260  0.00000  0.21480
       2     O     4.20189  4.20189  0.00000 -0.40377
       3     C     2.94891  2.94891  0.00000  0.10218
       4     C     3.08793  3.08793  0.00000 -0.17586
       5     H     0.45129  0.45129  0.00000  0.09742
       6     H     0.46739  0.46739  0.00000  0.06521
       7     C     3.17419  3.17419  0.00000 -0.34837
       8     H     0.41652  0.41652  0.00000  0.16696
       9     H     0.43226  0.43226  0.00000  0.13549
      10     H     0.42702  0.42702  0.00000  0.14595

   Total alpha = 16.00000, Total beta = 16.00000, Total charge = -0.00000
