  ==> Input File <==

--------------------------------------------------------------------------
set {
	reference rhf
	basis 6-31G*
}

set_num_threads( 1 )
memory 2 gb

molecule MOL {
0 1

H	 2.752225	 1.281957	 0.897739
O	 3.475704	 1.015548	 0.349399
C	 3.562612	 -0.386612	 0.328245
C	 2.456445	 -1.045194	 -0.488695
H	 4.525818	 -0.615209	 -0.109536
H	 3.566402	 -0.783516	 1.342756
C	 1.050516	 -0.822746	 0.074111
H	 2.506570	 -0.665800	 -1.506003
H	 2.661446	 -2.113330	 -0.537963
C	 -0.031614	 -1.540952	 -0.737057
H	 0.839544	 0.242772	 0.097070
H	 1.014157	 -1.172061	 1.106098
C	 -1.449679	 -1.421197	 -0.166891
H	 -0.021639	 -1.165388	 -1.758673
H	 0.226121	 -2.596090	 -0.799965
C	 -2.037799	 -0.007733	 -0.193645
H	 -2.103311	 -2.079418	 -0.735510
H	 -1.458919	 -1.796486	 0.855318
C	 -3.489788	 0.042957	 0.286558
H	 -1.981954	 0.385204	 -1.207840
H	 -1.440233	 0.658050	 0.424377
C	 -4.216917	 1.317354	 -0.141063
H	 -4.025645	 -0.823308	 -0.095450
H	 -3.513059	 -0.038752	 1.371301
H	 -4.239342	 1.411634	 -1.223113
H	 -5.243387	 1.322503	 0.212445
H	 -3.726170	 2.201406	 0.256408

	symmetry c1
}
set optking {
	frozen_dihedral = ("
		14 10 7 4,
		14 10 13 16,
		10 7 4 8,
		8 4 3 2,
		10 13 16 20,
		4 3 2 1
	")
}

ee = energy('scf')
oeprop('DIPOLE', 'QUADRUPOLE', 'MULLIKEN_CHARGES')
f=open( 'psi4out.xyz', 'w' )
f.write( "27  " )
f.write( str(ee) + "\n" )
f.write( MOL.save_string_xyz() )
f.close()
--------------------------------------------------------------------------

    Molecular point group: c1

    Geometry (in Angstrom), charge = 0, multiplicity = 1:

       Center              X                  Y                   Z               Mass
    ------------   -----------------  -----------------  -----------------  -----------------
           H          2.783101030491     1.562597458306     0.961474094982     1.007825032070
           O          3.506580030491     1.296188458306     0.413134094982    15.994914619560
           C          3.593488030491    -0.105971541694     0.391980094982    12.000000000000
           C          2.487321030491    -0.764553541694    -0.424959905018    12.000000000000
           H          4.556694030491    -0.334568541694    -0.045800905018     1.007825032070
           H          3.597278030491    -0.502875541694     1.406491094982     1.007825032070
           C          1.081392030491    -0.542105541694     0.137846094982    12.000000000000
           H          2.537446030491    -0.385159541694    -1.442267905018     1.007825032070
           H          2.692322030491    -1.832689541694    -0.474227905018     1.007825032070
           C         -0.000737969509    -1.260311541694    -0.673321905018    12.000000000000
           H          0.870420030491     0.523412458306     0.160805094982     1.007825032070
           H          1.045033030491    -0.891420541694     1.169833094982     1.007825032070
           C         -1.418802969509    -1.140556541694    -0.103155905018    12.000000000000
           H          0.009237030491    -0.884747541694    -1.694937905018     1.007825032070
           H          0.256997030491    -2.315449541694    -0.736229905018     1.007825032070
           C         -2.006922969509     0.272907458306    -0.129909905018    12.000000000000
           H         -2.072434969509    -1.798777541694    -0.671774905018     1.007825032070
           H         -1.428042969509    -1.515845541694     0.919053094982     1.007825032070
           C         -3.458911969509     0.323597458306     0.350293094982    12.000000000000
           H         -1.951077969509     0.665844458306    -1.144104905018     1.007825032070
           H         -1.409356969509     0.938690458306     0.488112094982     1.007825032070
           C         -4.186040969509     1.597994458306    -0.077327905018    12.000000000000
           H         -3.994768969509    -0.542667541694    -0.031714905018     1.007825032070
           H         -3.482182969509     0.241888458306     1.435036094982     1.007825032070
           H         -4.208465969509     1.692274458306    -1.159377905018     1.007825032070
           H         -5.212510969509     1.603143458306     0.276180094982     1.007825032070
           H         -3.695293969509     2.482046458306     0.320143094982     1.007825032070

  Charge       = 0
  Multiplicity = 1
  Basis Set: 6-31G*
  Basis Set:

    Orbital Energies (a.u.)
    -----------------------

    Doubly Occupied:

       1A    -20.552306     2A    -11.267055     3A    -11.219813
       4A    -11.217252     5A    -11.215822     6A    -11.215719
       7A    -11.215216     8A    -11.214050     9A    -11.209385
      10A     -1.359050    11A     -1.095255    12A     -1.061561
      13A     -1.011472    14A     -0.948415    15A     -0.888209
      16A     -0.820127    17A     -0.801431    18A     -0.778330
      19A     -0.693701    20A     -0.651404    21A     -0.639111
      22A     -0.614634    23A     -0.598125    24A     -0.583875
      25A     -0.580421    26A     -0.554050    27A     -0.541072
      28A     -0.530265    29A     -0.507699    30A     -0.492469
      31A     -0.484057    32A     -0.475900    33A     -0.468431
      34A     -0.460047    35A     -0.452454    36A     -0.441637
      37A     -0.422802

  @DF-RHF Final Energy:  -388.28049039402464

   => Energetics <=

    Nuclear Repulsion Energy =            459.5298014859716318
    One-Electron Energy =               -1437.0553521742995144
    Two-Electron Energy =                 589.2450602943013109
    DFT Exchange-Correlation Energy =       0.0000000000000000
    Empirical Dispersion Energy =           0.0000000000000000
    PCM Polarization Energy =               0.0000000000000000
    EFP Energy =                            0.0000000000000000
    Total Energy =                       -388.2804903940266286

  Mulliken Charges: (a.u.)
   Center  Symbol    Alpha    Beta     Spin     Total
       1     H     0.27992  0.27992  0.00000  0.44017
       2     O     4.37094  4.37094  0.00000 -0.74188
       3     C     2.99737  2.99737  0.00000  0.00527
       4     C     3.16095  3.16095  0.00000 -0.32189
       5     H     0.41444  0.41444  0.00000  0.17113
       6     H     0.43206  0.43206  0.00000  0.13589
       7     C     3.16331  3.16331  0.00000 -0.32662
       8     H     0.41495  0.41495  0.00000  0.17009
       9     H     0.42433  0.42433  0.00000  0.15135
      10     C     3.15214  3.15214  0.00000 -0.30427
      11     H     0.42292  0.42292  0.00000  0.15416
      12     H     0.42545  0.42545  0.00000  0.14910
      13     C     3.15399  3.15399  0.00000 -0.30798
      14     H     0.42158  0.42158  0.00000  0.15685
      15     H     0.42152  0.42152  0.00000  0.15695
      16     C     3.15307  3.15307  0.00000 -0.30614
      17     H     0.42103  0.42103  0.00000  0.15794
      18     H     0.42427  0.42427  0.00000  0.15146
      19     C     3.15164  3.15164  0.00000 -0.30327
      20     H     0.42355  0.42355  0.00000  0.15290
      21     H     0.42287  0.42287  0.00000  0.15425
      22     C     3.23936  3.23936  0.00000 -0.47871
      23     H     0.42288  0.42288  0.00000  0.15423
      24     H     0.42253  0.42253  0.00000  0.15493
      25     H     0.42137  0.42137  0.00000  0.15727
      26     H     0.41952  0.41952  0.00000  0.16096
      27     H     0.42207  0.42207  0.00000  0.15587

   Total alpha = 37.00000, Total beta = 37.00000, Total charge =  0.00000
