  ==> Input File <==

--------------------------------------------------------------------------
set {
	reference rhf
	basis 6-31G*
}

set_num_threads( 1 )
memory 2 gb

molecule MOL {
0 1

H	 3.225059	 1.343690	 -0.438066
O	 2.296530	 1.227496	 -0.261751
C	 2.077727	 -0.067559	 -0.035091
C	 0.624473	 -0.343591	 0.253101
O	 2.952372	 -0.870679	 -0.066864
C	 -0.265902	 0.883932	 0.072916
H	 0.324016	 -1.163849	 -0.390541
H	 0.565024	 -0.726111	 1.268924
C	 -1.728698	 0.646073	 0.462102
H	 -0.209144	 1.219470	 -0.958188
H	 0.135059	 1.692851	 0.673903
C	 -2.482460	 -0.343073	 -0.431425
H	 -2.245265	 1.602650	 0.432430
H	 -1.779332	 0.308348	 1.496285
C	 -3.960546	 -0.461025	 -0.060175
H	 -2.395034	 -0.026811	 -1.468912
H	 -2.024850	 -1.327147	 -0.371646
H	 -4.472726	 -1.168004	 -0.705284
H	 -4.465146	 0.496508	 -0.151489
H	 -4.081218	 -0.800940	 0.964585

	symmetry c1
}
set optking {
	frozen_dihedral = ("
		16 12 9 6,
		7 4 6 10,
		12 9 6 10,
		1 2 3 5
	")
}

ee = energy('scf')
oeprop('DIPOLE', 'QUADRUPOLE', 'MULLIKEN_CHARGES')
f=open( 'psi4out.xyz', 'w' )
f.write( "20  " )
f.write( str(ee) + "\n" )
f.write( MOL.save_string_xyz() )
f.close()
--------------------------------------------------------------------------

    Molecular point group: c1

    Geometry (in Angstrom), charge = 0, multiplicity = 1:

       Center              X                  Y                   Z               Mass
    ------------   -----------------  -----------------  -----------------  -----------------
           H          3.245983806291     1.249392996387    -0.422867681904     1.007825032070
           O          2.317454806291     1.133198996387    -0.246552681904    15.994914619560
           C          2.098651806291    -0.161856003613    -0.019892681904    12.000000000000
           C          0.645397806291    -0.437888003613     0.268299318096    12.000000000000
           O          2.973296806291    -0.964976003613    -0.051665681904    15.994914619560
           C         -0.244977193709     0.789634996387     0.088114318096    12.000000000000
           H          0.344940806291    -1.258146003613    -0.375342681904     1.007825032070
           H          0.585948806291    -0.820408003613     1.284122318096     1.007825032070
           C         -1.707773193709     0.551775996387     0.477300318096    12.000000000000
           H         -0.188219193709     1.125172996387    -0.942989681904     1.007825032070
           H          0.155983806291     1.598553996387     0.689101318096     1.007825032070
           C         -2.461535193709    -0.437370003613    -0.416226681904    12.000000000000
           H         -2.224340193709     1.508352996387     0.447628318096     1.007825032070
           H         -1.758407193709     0.214050996387     1.511483318096     1.007825032070
           C         -3.939621193709    -0.555322003613    -0.044976681904    12.000000000000
           H         -2.374109193709    -0.121108003613    -1.453713681904     1.007825032070
           H         -2.003925193709    -1.421444003613    -0.356447681904     1.007825032070
           H         -4.451801193709    -1.262301003613    -0.690085681904     1.007825032070
           H         -4.444221193709     0.402210996387    -0.136290681904     1.007825032070
           H         -4.060293193709    -0.895237003613     0.979783318096     1.007825032070

  Charge       = 0
  Multiplicity = 1
  Basis Set: 6-31G*
  Basis Set:

    Orbital Energies (a.u.)
    -----------------------

    Doubly Occupied:

       1A    -20.613745     2A    -20.548241     3A    -11.381506
       4A    -11.240003     5A    -11.224217     6A    -11.221336
       7A    -11.220742     8A    -11.212871     9A     -1.474948
      10A     -1.364662    11A     -1.098330    12A     -1.042439
      13A     -0.958854    14A     -0.860059    15A     -0.826913
      16A     -0.791287    17A     -0.699944    18A     -0.680073
      19A     -0.662968    20A     -0.634191    21A     -0.600386
      22A     -0.588678    23A     -0.576406    24A     -0.554279
      25A     -0.545900    26A     -0.519284    27A     -0.502116
      28A     -0.482472    29A     -0.474644    30A     -0.467650
      31A     -0.455646    32A     -0.433009

  @DF-RHF Final Energy:  -383.94442275837980

   => Energetics <=

    Nuclear Repulsion Energy =            377.9486263522302352
    One-Electron Energy =               -1271.8704765263364607
    Two-Electron Energy =                 509.9774274157259129
    DFT Exchange-Correlation Energy =       0.0000000000000000
    Empirical Dispersion Energy =           0.0000000000000000
    PCM Polarization Energy =               0.0000000000000000
    EFP Energy =                            0.0000000000000000
    Total Energy =                       -383.9444227583803126

  Mulliken Charges: (a.u.)
   Center  Symbol    Alpha    Beta     Spin     Total
       1     H     0.26748  0.26748  0.00000  0.46505
       2     O     4.34992  4.34992  0.00000 -0.69984
       3     C     2.61794  2.61794  0.00000  0.76412
       4     C     3.21997  3.21997  0.00000 -0.43994
       5     O     4.28218  4.28218  0.00000 -0.56435
       6     C     3.15465  3.15465  0.00000 -0.30931
       7     H     0.39418  0.39418  0.00000  0.21164
       8     H     0.39682  0.39682  0.00000  0.20636
       9     C     3.15519  3.15519  0.00000 -0.31037
      10     H     0.41423  0.41423  0.00000  0.17153
      11     H     0.40709  0.40709  0.00000  0.18583
      12     C     3.15501  3.15501  0.00000 -0.31002
      13     H     0.41858  0.41858  0.00000  0.16283
      14     H     0.42346  0.42346  0.00000  0.15308
      15     C     3.23926  3.23926  0.00000 -0.47851
      16     H     0.42196  0.42196  0.00000  0.15609
      17     H     0.42196  0.42196  0.00000  0.15608
      18     H     0.41808  0.41808  0.00000  0.16384
      19     H     0.42094  0.42094  0.00000  0.15812
      20     H     0.42110  0.42110  0.00000  0.15779

   Total alpha = 32.00000, Total beta = 32.00000, Total charge =  0.00000
