                              Psi4 1.0.54 Driver

  ==> Input File <==

--------------------------------------------------------------------------
set {
	reference rhf
	basis cc-pvtz
}

set_num_threads( 4 )
memory 2 gb

molecule MOL {
0 1

H	 2.122788	 0.067663	 -0.000275
C	 1.207832	 -0.484956	 -0.000152
C	 1.200234	 -1.865056	 -0.000177
C	 0.000000	 0.179985	 0.000046
H	 2.128939	 -2.400800	 -0.000331
C	 0.000000	 -2.552036	 -0.000007
N	 0.000000	 1.644631	 0.000076
C	 -1.207832	 -0.484956	 0.000215
H	 0.000000	 -3.625035	 -0.000032
C	 -1.200234	 -1.865056	 0.000188
O	 1.050559	 2.194174	 -0.000073
O	 -1.050559	 2.194174	 -0.000074
H	 -2.122788	 0.067663	 0.000370
H	 -2.128939	 -2.400800	 0.000316

	symmetry c1
}
set optking {
	frozen_dihedral = ("
		2 4 7 11
	")
}

ee,wfn = optimize('scf', return_wfn=True)
oeprop( wfn, 'DIPOLE', 'QUADRUPOLE', 'MULLIKEN_CHARGES')
f=open( 'psi4out.xyz', 'w' )
f.write( "14  " )
f.write( str(ee) + "\n" )
f.write( MOL.save_string_xyz() )
f.close()
--------------------------------------------------------------------------

    Molecular point group: c1
  Charge       = 0
  Multiplicity = 1
  Basis Set: CC-PVTZ
  Basis Set:
  @DF-RHF Final Energy:  -434.33008810064092
    Total Energy =                       -434.3300881006406371
    Molecular point group: c1
  Basis Set: CC-PVTZ
  Basis Set:
  Basis Set: CC-PVTZ
  Basis Set:
  @DF-RHF Final Energy:  -434.33008384068012
    Total Energy =                       -434.3300838406800040
  Basis Set: CC-PVTZ
  Basis Set:
  Basis Set: CC-PVTZ
  Basis Set:
  @DF-RHF Final Energy:  -434.33008772941434
    Total Energy =                       -434.3300877294144584
  Basis Set: CC-PVTZ
  Basis Set:
  Charge       = 0
  Multiplicity = 1
  Basis Set: CC-PVTZ
  Basis Set:

    Orbital Energies (a.u.)
    -----------------------

    Doubly Occupied:

       1A    -20.591683     2A    -20.591627     3A    -15.847791
       4A    -11.302390     5A    -11.267168     6A    -11.267127
       7A    -11.264854     8A    -11.258170     9A    -11.258037
      10A     -1.641202    11A     -1.423519    12A     -1.204489
      13A     -1.095644    14A     -1.054991    15A     -0.959450
      16A     -0.866950    17A     -0.828967    18A     -0.789566
      19A     -0.740815    20A     -0.735312    21A     -0.711446
      22A     -0.659883    23A     -0.651995    24A     -0.626424
      25A     -0.555134    26A     -0.540630    27A     -0.531289
      28A     -0.492063    29A     -0.491695    30A     -0.457741
      31A     -0.377784    32A     -0.369250

  @DF-RHF Final Energy:  -434.33008823638471

   => Energetics <=

    Nuclear Repulsion Energy =            418.2277906362892850
    One-Electron Energy =               -1420.2055903364898768
    Two-Electron Energy =                 567.6477114638155399
    DFT Exchange-Correlation Energy =       0.0000000000000000
    Empirical Dispersion Energy =           0.0000000000000000
    PCM Polarization Energy =               0.0000000000000000
    EFP Energy =                            0.0000000000000000
    Total Energy =                       -434.3300882363851088
    Molecular point group: c1
  Basis Set: CC-PVTZ
  Basis Set:

  -Total Gradient:
     Atom            X                  Y                   Z
    ------   -----------------  -----------------  -----------------
       1        0.000000805630    -0.000000455245    -0.000000186183
       2       -0.000006306220    -0.000002839098     0.000000472730
       3       -0.000003477752     0.000002944187    -0.000000179329
       4       -0.000000472641    -0.000001870067     0.000002169071
       5       -0.000000615486     0.000001394335     0.000000102024
       6       -0.000000014777     0.000002385173    -0.000000841011
       7        0.000007093671    -0.000000208072    -0.000008368381
       8        0.000006137143    -0.000002976100     0.000000567845
       9        0.000000013675     0.000001125798     0.000000475179
      10        0.000003489249     0.000002911486    -0.000000313605
      11       -0.000011150379    -0.000003222381     0.000002908070
      12        0.000004508243    -0.000000082166     0.000003303481
      13       -0.000000641620    -0.000000495503    -0.000000290035
      14        0.000000631267     0.000001387652     0.000000180146

  **** Optimization is complete! (in 4 steps) ****
    Final optimized geometry and variables:
    Molecular point group: c1

    Geometry (in Angstrom), charge = 0, multiplicity = 1:

    H            2.122713330153     0.067889769031    -0.000301106428
    C            1.207827328275    -0.484799399445    -0.000170957406
    C            1.200192585503    -1.864846534895    -0.000166739036
    C           -0.000000041009     0.179929532970    -0.000004988027
    H            2.128857728935    -2.400622020820    -0.000290383042
    C            0.000000113734    -2.551764458354    -0.000000567828
    N            0.000002182233     1.644450630461    -0.000008355257
    C           -1.207827506014    -0.484799288974     0.000161697698
    H            0.000000157941    -3.624737122643     0.000010137068
    C           -1.200192366641    -1.864846472062     0.000162644309
    O            1.050682054947     2.193860264612    -0.000155248232
    O           -1.050684100345     2.193861050455     0.000177023826
    H           -2.122712988932     0.067890303443     0.000282579591
    H           -2.128857442426    -2.400622074533     0.000294430783

  Mulliken Charges: (a.u.)
   Center  Symbol    Alpha    Beta     Spin     Total
       1     H     0.39891  0.39891  0.00000  0.20219
       2     C     3.07669  3.07669  0.00000 -0.15338
       3     C     3.07221  3.07221  0.00000 -0.14442
       4     C     2.98227  2.98227  0.00000  0.03545
       5     H     0.41694  0.41694  0.00000  0.16613
       6     C     3.06449  3.06449  0.00000 -0.12897
       7     N     3.25234  3.25234  0.00000  0.49531
       8     C     3.07669  3.07669  0.00000 -0.15338
       9     H     0.41708  0.41708  0.00000  0.16584
      10     C     3.07221  3.07221  0.00000 -0.14442
      11     O     4.17717  4.17717  0.00000 -0.35434
      12     O     4.17717  4.17717  0.00000 -0.35435
      13     H     0.39891  0.39891  0.00000  0.20219
      14     H     0.41694  0.41694  0.00000  0.16613

   Total alpha = 32.00000, Total beta = 32.00000, Total charge = -0.00000

*** Psi4 exiting successfully. Buy a developer a beer!
