  ==> Input File <==

--------------------------------------------------------------------------
set {
	reference rhf
	basis 6-31G*
}

set_num_threads( 4 )
memory 2 gb

molecule MOL {
0 1

H	 -3.420663	 1.227371	 -1.044276
O	 -3.452007	 0.283848	 -0.965577
C	 -3.181085	 -0.079926	 0.364119
C	 -1.765924	 0.277073	 0.805136
H	 -3.327791	 -1.152017	 0.410903
H	 -3.905698	 0.375695	 1.036898
C	 -1.108607	 -0.795496	 1.674646
H	 -1.154203	 0.459186	 -0.078942
H	 -1.804003	 1.220786	 1.346595
C	 0.319013	 -0.437503	 2.092880
H	 -1.107460	 -1.738812	 1.137186
H	 -1.716562	 -0.952017	 2.564188
C	 0.968240	 -1.513129	 2.967876
H	 0.918181	 -0.272968	 1.200498
H	 0.311545	 0.507787	 2.634152
C	 2.367304	 -1.160467	 3.485953
H	 1.017203	 -2.447929	 2.411596
H	 0.321971	 -1.703228	 3.822285
C	 3.437142	 -1.043187	 2.398710
H	 2.674476	 -1.925095	 4.195376
H	 2.318885	 -0.229212	 4.046865
H	 3.499474	 -1.956413	 1.812816
H	 4.414470	 -0.865794	 2.837116
H	 3.234520	 -0.225000	 1.715571

	symmetry c1
}
set optking {
	frozen_dihedral = ("
		7 4 3 2
	")
}

ee = optimize('scf')
oeprop('DIPOLE', 'QUADRUPOLE', 'MULLIKEN_CHARGES')
f=open( 'psi4out.xyz', 'w' )
f.write( "24  " )
f.write( str(ee) + "\n" )
f.write( MOL.save_string_xyz() )
f.close()
--------------------------------------------------------------------------

    Molecular point group: c1
  Charge       = 0
  Multiplicity = 1
  Basis Set: 6-31G*
  Basis Set:
  @DF-RHF Final Energy:  -349.24282264058496
    Total Energy =                       -349.2428226405849045
    Molecular point group: c1
  Basis Set: 6-31G*
  Basis Set:
  Basis Set: 6-31G*
  Basis Set:
  @DF-RHF Final Energy:  -349.24331615493929
    Total Energy =                       -349.2433161549391230
  Basis Set: 6-31G*
  Basis Set:
  Basis Set: 6-31G*
  Basis Set:
  @DF-RHF Final Energy:  -349.24336486630523
    Total Energy =                       -349.2433648663051144
  Basis Set: 6-31G*
  Basis Set:
  Basis Set: 6-31G*
  Basis Set:
  @DF-RHF Final Energy:  -349.24336371989733
    Total Energy =                       -349.2433637198973884
  Basis Set: 6-31G*
  Basis Set:
  Basis Set: 6-31G*
  Basis Set:
  @DF-RHF Final Energy:  -349.24336666084758
    Total Energy =                       -349.2433666608479825
  Basis Set: 6-31G*
  Basis Set:
  Basis Set: 6-31G*
  Basis Set:
  @DF-RHF Final Energy:  -349.24336896790572
    Total Energy =                       -349.2433689679056670
  Basis Set: 6-31G*
  Basis Set:
  Charge       = 0
  Multiplicity = 1
  Basis Set: 6-31G*
  Basis Set:

    Orbital Energies (a.u.)
    -----------------------

    Doubly Occupied:

       1A    -20.551876     2A    -11.266515     3A    -11.218330
       4A    -11.215760     5A    -11.215189     6A    -11.215002
       7A    -11.214053     8A    -11.208371     9A     -1.358005
      10A     -1.091451    11A     -1.049741    12A     -0.984999
      13A     -0.913706    14A     -0.850734    15A     -0.805271
      16A     -0.778380    17A     -0.690421    18A     -0.646632
      19A     -0.625825    20A     -0.610921    21A     -0.599070
      22A     -0.587835    23A     -0.563312    24A     -0.532154
      25A     -0.520050    26A     -0.517433    27A     -0.487711
      28A     -0.479763    29A     -0.465367    30A     -0.462298
      31A     -0.460418    32A     -0.453942    33A     -0.417597

  @DF-RHF Final Energy:  -349.24336936869349

   => Energetics <=

    Nuclear Repulsion Energy =            379.9619888883936483
    One-Electron Energy =               -1226.2944448567477593
    Two-Electron Energy =                 497.0890865996609591
    DFT Exchange-Correlation Energy =       0.0000000000000000
    Empirical Dispersion Energy =           0.0000000000000000
    PCM Polarization Energy =               0.0000000000000000
    EFP Energy =                            0.0000000000000000
    Total Energy =                       -349.2433693686931520
    Molecular point group: c1
  Basis Set: 6-31G*
  Basis Set:

  -Total Gradient:
     Atom            X                  Y                   Z
    ------   -----------------  -----------------  -----------------
       1       -0.000006211311     0.000012723734    -0.000043162202
       2        0.001023804296    -0.003135704433    -0.001066306314
       3       -0.000966505633     0.003673778800     0.000364342941
       4       -0.001145113855     0.000954603780     0.003314589590
       5       -0.000015042125    -0.000010314597     0.000047853444
       6        0.000020881818    -0.000000609253     0.000017455993
       7        0.001073786298    -0.001519427199    -0.002618200530
       8       -0.000012481128     0.000002274860    -0.000011625830
       9        0.000032913735     0.000023927306     0.000009337890
      10       -0.000009762109    -0.000003997485    -0.000010034775
      11        0.000037778370     0.000004698515     0.000012831328
      12       -0.000019249823    -0.000003235033    -0.000002982822
      13       -0.000011507961    -0.000005435259    -0.000006789708
      14       -0.000016615586     0.000000242132    -0.000002079470
      15        0.000009411137    -0.000009021481     0.000007658827
      16       -0.000004329233     0.000015539011     0.000003717817
      17        0.000006037207    -0.000004238090    -0.000003399429
      18       -0.000010451055     0.000003200666    -0.000013298934
      19        0.000003805765     0.000002310173    -0.000003400781
      20       -0.000006207248    -0.000000374713    -0.000005924958
      21        0.000007396156     0.000000469472     0.000009007490
      22        0.000003718834    -0.000000506379     0.000002743308
      23       -0.000000942341     0.000003981611    -0.000001570160
      24        0.000004885794    -0.000004886144    -0.000000762713

  **** Optimization is complete! (in 7 steps) ****
    Final optimized geometry and variables:
    Molecular point group: c1

    Geometry (in Angstrom), charge = 0, multiplicity = 1:

    H           -3.100980830523     1.747001933069    -2.613259972409
    O           -3.141522705858     0.807151689525    -2.501961867407
    C           -2.841222376758     0.477942928792    -1.169247780421
    C           -1.396438965417     0.813266604262    -0.773579026169
    H           -3.000722037021    -0.591029750965    -1.104914740184
    H           -3.548334706883     0.946189561814    -0.487637352625
    C           -0.750615408993    -0.255188743430     0.111942684540
    H           -0.820235627635     0.899423850917    -1.690841833920
    H           -1.350340729293     1.782977888662    -0.281557318896
    C            0.673836345890     0.099048957538     0.542113881323
    H           -0.741662796962    -1.199056203898    -0.428943807041
    H           -1.362975914292    -0.417270609628     0.998360947701
    C            1.323620744044    -0.989065911135     1.401043754780
    H            1.274071873044     0.281428510190    -0.345609970261
    H            0.659051027524     1.034516453224     1.099538199126
    C            2.716657364983    -0.636753235897     1.935338742282
    H            1.383392856233    -1.912677872063     0.827403179053
    H            0.672810349289    -1.199720195565     2.247312503902
    C            3.792541707214    -0.490576373925     0.857652495208
    H            3.024345673402    -1.413050311391     2.631622995523
    H            2.657620247214     0.282863950537     2.514130312339
    H            3.866027106780    -1.391943231555     0.255036955898
    H            4.765403316237    -0.313987645811     1.306099815843
    H            3.588034391135     0.338728495639     0.188720873297

  Mulliken Charges: (a.u.)
   Center  Symbol    Alpha    Beta     Spin     Total
       1     H     0.28363  0.28363  0.00000  0.43273
       2     O     4.37002  4.37002  0.00000 -0.74005
       3     C     2.99269  2.99269  0.00000  0.01463
       4     C     3.17470  3.17470  0.00000 -0.34940
       5     H     0.41505  0.41505  0.00000  0.16991
       6     H     0.42963  0.42963  0.00000  0.14075
       7     C     3.15870  3.15870  0.00000 -0.31739
       8     H     0.41269  0.41269  0.00000  0.17462
       9     H     0.42348  0.42348  0.00000  0.15304
      10     C     3.15386  3.15386  0.00000 -0.30772
      11     H     0.41911  0.41911  0.00000  0.16178
      12     H     0.42359  0.42359  0.00000  0.15282
      13     C     3.15267  3.15267  0.00000 -0.30534
      14     H     0.42037  0.42037  0.00000  0.15925
      15     H     0.42439  0.42439  0.00000  0.15123
      16     C     3.15237  3.15237  0.00000 -0.30474
      17     H     0.42357  0.42357  0.00000  0.15287
      18     H     0.42249  0.42249  0.00000  0.15503
      19     C     3.24122  3.24122  0.00000 -0.48244
      20     H     0.42087  0.42087  0.00000  0.15826
      21     H     0.42361  0.42361  0.00000  0.15277
      22     H     0.42194  0.42194  0.00000  0.15612
      23     H     0.41926  0.41926  0.00000  0.16148
      24     H     0.42010  0.42010  0.00000  0.15980

   Total alpha = 33.00000, Total beta = 33.00000, Total charge =  0.00000
