  ==> Input File <==

--------------------------------------------------------------------------
set {
	reference rhf
	basis 6-31G*
}

set_num_threads( 4 )
memory 2 gb

molecule MOL {
0 1

H	 -1.748661	 -2.220942	 -0.005015
C	 -1.343207	 -1.225221	 -0.013879
N	 -0.055091	 -1.100174	 -0.261126
C	 -2.150779	 -0.125890	 0.222726
C	 0.449969	 0.122615	 -0.277109
H	 -3.200618	 -0.238980	 0.422496
N	 -1.660212	 1.097703	 0.209594
C	 -0.371804	 1.219904	 -0.038265
C	 1.928147	 0.267347	 -0.541394
H	 0.029131	 2.217482	 -0.051283
C	 2.666425	 -1.074284	 -0.486759
H	 2.056697	 0.710156	 -1.523361
H	 2.359270	 0.954838	 0.179483
H	 3.720302	 -0.938325	 -0.707795
H	 2.253156	 -1.765828	 -1.211642
H	 2.584879	 -1.525850	 0.496983

	symmetry c1
}
set optking {
	frozen_dihedral = ("
		12 9 5 3
	")
}

ee = optimize('scf')
oeprop('DIPOLE', 'QUADRUPOLE', 'MULLIKEN_CHARGES')
f=open( 'psi4out.xyz', 'w' )
f.write( "16  " )
f.write( str(ee) + "\n" )
f.write( MOL.save_string_xyz() )
f.close()
--------------------------------------------------------------------------

    Molecular point group: c1
  Charge       = 0
  Multiplicity = 1
  Basis Set: 6-31G*
  Basis Set:
  @DF-RHF Final Energy:  -340.75633346200465
    Total Energy =                       -340.7563334620048181
    Molecular point group: c1
  Basis Set: 6-31G*
  Basis Set:
  Basis Set: 6-31G*
  Basis Set:
  @DF-RHF Final Energy:  -340.75694427442619
    Total Energy =                       -340.7569442744259050
  Basis Set: 6-31G*
  Basis Set:
  Basis Set: 6-31G*
  Basis Set:
  @DF-RHF Final Energy:  -340.75714957543823
    Total Energy =                       -340.7571495754382340
  Basis Set: 6-31G*
  Basis Set:
  Basis Set: 6-31G*
  Basis Set:
  @DF-RHF Final Energy:  -340.75717987652519
    Total Energy =                       -340.7571798765253561
  Basis Set: 6-31G*
  Basis Set:
  Basis Set: 6-31G*
  Basis Set:
  @DF-RHF Final Energy:  -340.75719295988398
    Total Energy =                       -340.7571929598839802
  Basis Set: 6-31G*
  Basis Set:
  Basis Set: 6-31G*
  Basis Set:
  @DF-RHF Final Energy:  -340.75718871684614
    Total Energy =                       -340.7571887168459170
  Basis Set: 6-31G*
  Basis Set:
  Basis Set: 6-31G*
  Basis Set:
  @DF-RHF Final Energy:  -340.75719644710989
    Total Energy =                       -340.7571964471101751
  Basis Set: 6-31G*
  Basis Set:
  Charge       = 0
  Multiplicity = 1
  Basis Set: 6-31G*
  Basis Set:

    Orbital Energies (a.u.)
    -----------------------

    Doubly Occupied:

       1A    -15.586617     2A    -15.581640     3A    -11.283369
       4A    -11.274732     5A    -11.272861     6A    -11.270393
       7A    -11.234794     8A    -11.212158     9A     -1.313227
      10A     -1.221887    11A     -1.083159    12A     -1.013534
      13A     -0.910346    14A     -0.888280    15A     -0.823789
      16A     -0.717851    17A     -0.705010    18A     -0.657464
      19A     -0.627505    20A     -0.603166    21A     -0.565792
      22A     -0.558946    23A     -0.521386    24A     -0.503149
      25A     -0.500440    26A     -0.484448    27A     -0.430486
      28A     -0.394550    29A     -0.344055

  @DF-RHF Final Energy:  -340.75719657410974

   => Energetics <=

    Nuclear Repulsion Energy =            349.6943777573609964
    One-Electron Energy =               -1153.7330839968365126
    Two-Electron Energy =                 463.2815096653654905
    DFT Exchange-Correlation Energy =       0.0000000000000000
    Empirical Dispersion Energy =           0.0000000000000000
    PCM Polarization Energy =               0.0000000000000000
    EFP Energy =                            0.0000000000000000
    Total Energy =                       -340.7571965741099689
    Molecular point group: c1
  Basis Set: 6-31G*
  Basis Set:

  -Total Gradient:
     Atom            X                  Y                   Z
    ------   -----------------  -----------------  -----------------
       1        0.000007157942    -0.000000221275    -0.000019570239
       2       -0.000007834155     0.000011934678    -0.000000576934
       3        0.000019368093    -0.000023971990     0.000157630866
       4        0.000025844668    -0.000027417556     0.000084370982
       5       -0.000045496568     0.000041855377    -0.000141036602
       6       -0.000009023799     0.000007118660    -0.000034739127
       7        0.000039912214     0.000015404257    -0.000006155628
       8       -0.000046818605     0.000007349369    -0.000092730060
       9        0.000047706352    -0.000232430341    -0.000059141889
      10        0.000006752290     0.000009409241     0.000023302723
      11       -0.000018245737    -0.000025016774     0.000001659975
      12        0.000001404140     0.000193093370     0.000087704379
      13       -0.000022038504    -0.000000364678    -0.000001197733
      14       -0.000006185526     0.000019519374    -0.000002558105
      15        0.000004026279     0.000000701343     0.000006489560
      16        0.000003470911     0.000003036946    -0.000003452168

  **** Optimization is complete! (in 8 steps) ****
    Final optimized geometry and variables:
    Molecular point group: c1

    Geometry (in Angstrom), charge = 0, multiplicity = 1:

    H           -1.794463040585    -2.082522612738     0.158388315695
    C           -1.369594307951    -1.095169995304     0.146067142027
    N           -0.070402535681    -1.001300096011    -0.092880469794
    C           -2.149759759988     0.017684116588     0.370940757744
    C            0.461904327813     0.201767605104    -0.109635707836
    H           -3.203413151928    -0.066851063981     0.563408306509
    N           -1.626864934113     1.234837437653     0.359373420019
    C           -0.340324317812     1.323791912838     0.123641817410
    C            1.939746295928     0.361604417973    -0.395822052770
    H            0.089008503661     2.310555199066     0.117110562638
    C            2.739326513616    -0.936985438355    -0.343977474420
    H            2.050544169457     0.819602137744    -1.376659161335
    H            2.351859336542     1.076438822272     0.311685339079
    H            3.786624307507    -0.732886990674    -0.542054029166
    H            2.383763228130    -1.647512795458    -1.078965309156
    H            2.662300643584    -1.405845144144     0.630312973872

  Mulliken Charges: (a.u.)
   Center  Symbol    Alpha    Beta     Spin     Total
       1     H     0.39400  0.39400  0.00000  0.21200
       2     C     2.98880  2.98880  0.00000  0.02241
       3     N     3.76036  3.76036  0.00000 -0.52072
       4     C     3.00005  3.00005  0.00000 -0.00010
       5     C     2.86975  2.86975  0.00000  0.26051
       6     H     0.39423  0.39423  0.00000  0.21153
       7     N     3.72967  3.72967  0.00000 -0.45934
       8     C     2.99433  2.99433  0.00000  0.01134
       9     C     3.17545  3.17545  0.00000 -0.35089
      10     H     0.39505  0.39505  0.00000  0.20990
      11     C     3.23521  3.23521  0.00000 -0.47041
      12     H     0.40801  0.40801  0.00000  0.18398
      13     H     0.41154  0.41154  0.00000  0.17691
      14     H     0.42020  0.42020  0.00000  0.15960
      15     H     0.40890  0.40890  0.00000  0.18219
      16     H     0.41445  0.41445  0.00000  0.17111

   Total alpha = 29.00000, Total beta = 29.00000, Total charge =  0.00000
