                              Psi4 1.0.54 Driver

  ==> Input File <==

--------------------------------------------------------------------------
set {
	reference rhf
	basis cc-pvtz
}

set_num_threads( 4 )
memory 2 gb

molecule MOL {
0 1

O	 2.768635	 1.510482	 -0.804828
C	 2.688954	 0.405946	 -1.233501
C	 1.392766	 -0.378547	 -1.216237
C	 3.887808	 -0.296004	 -1.830358
C	 0.213651	 0.365100	 -0.605086
H	 1.174237	 -0.672242	 -2.240471
H	 1.579891	 -1.308332	 -0.683800
C	 -1.068197	 -0.463127	 -0.609339
H	 0.056549	 1.289986	 -1.148243
H	 0.462658	 0.653443	 0.409797
C	 -2.258482	 0.271340	 0.000669
H	 -1.310430	 -0.750762	 -1.630056
H	 -0.902602	 -1.389990	 -0.064577
C	 -3.544441	 -0.550271	 -0.000253
H	 -2.424950	 1.197858	 -0.543358
H	 -2.017608	 0.558586	 1.021256
C	 -4.804551	 0.308747	 0.000556
H	 -3.553737	 -1.201524	 -0.870151
H	 -3.553831	 -1.203282	 0.868313
H	 -4.842050	 0.949078	 -0.874436
H	 -5.698404	 -0.304480	 -0.000254
H	 -4.842277	 0.947103	 0.876982
H	 3.685441	 -0.572581	 -2.859241
H	 4.749065	 0.352913	 -1.791169
H	 4.094825	 -1.210675	 -1.285782

	symmetry c1
}
set optking {
	frozen_dihedral = ("
		15 11 14 18
	")
}

ee,wfn = optimize('scf', return_wfn=True)
oeprop( wfn, 'DIPOLE', 'QUADRUPOLE', 'MULLIKEN_CHARGES')
f=open( 'psi4out.xyz', 'w' )
f.write( "25  " )
f.write( str(ee) + "\n" )
f.write( MOL.save_string_xyz() )
f.close()
--------------------------------------------------------------------------

    Molecular point group: c1
  Charge       = 0
  Multiplicity = 1
  Basis Set: CC-PVTZ
  Basis Set:
  @DF-RHF Final Energy:  -387.27242045350118
    Total Energy =                       -387.2724204535010131
    Molecular point group: c1
  Basis Set: CC-PVTZ
  Basis Set:
  Basis Set: CC-PVTZ
  Basis Set:
  @DF-RHF Final Energy:  -387.27071969677968
    Total Energy =                       -387.2707196967794516
  Basis Set: CC-PVTZ
  Basis Set:
  Basis Set: CC-PVTZ
  Basis Set:
  @DF-RHF Final Energy:  -387.27267825450713
    Total Energy =                       -387.2726782545071273
  Basis Set: CC-PVTZ
  Basis Set:
  Basis Set: CC-PVTZ
  Basis Set:
  @DF-RHF Final Energy:  -387.27270855725141
    Total Energy =                       -387.2727085572513488
  Basis Set: CC-PVTZ
  Basis Set:
  Charge       = 0
  Multiplicity = 1
  Basis Set: CC-PVTZ
  Basis Set:

    Orbital Energies (a.u.)
    -----------------------

    Doubly Occupied:

       1A    -20.538930     2A    -11.320561     3A    -11.230242
       4A    -11.226619     5A    -11.215583     6A    -11.214775
       7A    -11.213337     8A    -11.211286     9A    -11.206944
      10A     -1.398980    11A     -1.094946    12A     -1.057199
      13A     -1.015640    14A     -0.970417    15A     -0.891708
      16A     -0.815572    17A     -0.791940    18A     -0.731079
      19A     -0.661463    20A     -0.654593    21A     -0.630903
      22A     -0.626717    23A     -0.597688    24A     -0.586280
      25A     -0.568907    26A     -0.559705    27A     -0.540207
      28A     -0.528080    29A     -0.513912    30A     -0.493075
      31A     -0.489175    32A     -0.474721    33A     -0.465204
      34A     -0.458386    35A     -0.452647    36A     -0.401495

  @DF-RHF Final Energy:  -387.27270942620078

   => Energetics <=

    Nuclear Repulsion Energy =            439.1053085878851334
    One-Electron Energy =               -1395.0582080420640523
    Two-Electron Energy =                 568.6801900279785968
    DFT Exchange-Correlation Energy =       0.0000000000000000
    Empirical Dispersion Energy =           0.0000000000000000
    PCM Polarization Energy =               0.0000000000000000
    EFP Energy =                            0.0000000000000000
    Total Energy =                       -387.2727094262003220
    Molecular point group: c1
  Basis Set: CC-PVTZ
  Basis Set:

  -Total Gradient:
     Atom            X                  Y                   Z
    ------   -----------------  -----------------  -----------------
       1       -0.000042807476     0.000123711796    -0.000236079640
       2        0.000139455448    -0.000348226368     0.000724854909
       3       -0.000025963592     0.000073186252    -0.000169384861
       4       -0.000049667859     0.000108147267    -0.000226407311
       5       -0.000031223223     0.000059058861     0.000014062072
       6       -0.000052829500    -0.000015729485     0.000001530090
       7        0.000036213828     0.000011925076    -0.000009551366
       8       -0.000080947464     0.000004611216    -0.000165652957
       9       -0.000007556672    -0.000017377197    -0.000006589179
      10        0.000011813497     0.000017936053    -0.000001042089
      11        0.001603012539    -0.002745274469    -0.003917776082
      12       -0.000002531679    -0.000013439905    -0.000029098415
      13       -0.000024341443     0.000042024422    -0.000009762480
      14       -0.002220474700     0.004277072113    -0.001311767910
      15       -0.001015175595     0.001519648197     0.003515327489
      16       -0.000042354797     0.000008434319     0.000074290181
      17        0.000079439742     0.000072720249    -0.000087273632
      18        0.001654860081    -0.003130687742     0.001828292783
      19        0.000045054450    -0.000033721440     0.000046413580
      20       -0.000026050375     0.000041753372    -0.000003410888
      21        0.000028713900    -0.000031101882    -0.000014087968
      22        0.000023121420    -0.000029752187     0.000000882905
      23        0.000041596054    -0.000029876450    -0.000026493342
      24       -0.000009624239     0.000006452916    -0.000007877377
      25       -0.000031732340     0.000028505018     0.000016601485

  **** Optimization is complete! (in 5 steps) ****
    Final optimized geometry and variables:
    Molecular point group: c1

    Geometry (in Angstrom), charge = 0, multiplicity = 1:

    O            2.962807542670     1.133945220709     0.124184678744
    C            2.810623048265     0.093258347126    -0.426945047223
    C            1.453773143049    -0.571076041915    -0.544349435095
    C            3.971462642453    -0.640865487171    -1.059389482784
    C            0.314516872189     0.203199265292     0.103266590779
    H            1.258387637855    -0.731525427093    -1.602217629566
    H            1.537943148316    -1.565983326696    -0.112911848978
    C           -1.030039571213    -0.504519982513    -0.037297816817
    H            0.258547141545     1.191030467347    -0.339797334384
    H            0.541347997549     0.358646513385     1.151784537680
    C           -2.181185063384     0.261452815794     0.604507707200
    H           -1.249968402724    -0.662031807218    -1.090767207009
    H           -0.967673089304    -1.494355405217     0.410183358896
    C           -3.523043332594    -0.473351053044     0.542399555017
    H           -2.279397925329     1.243905987577     0.149653848123
    H           -1.939419052962     0.459125184546     1.646257098582
    C           -4.728961241545     0.447368935879     0.680469086110
    H           -3.586439201562    -1.043829793366    -0.380214472902
    H           -3.550361773531    -1.217631536437     1.334138899652
    H           -4.770851404155     1.162003948212    -0.134603455210
    H           -5.655929459477    -0.114540987414     0.677644464931
    H           -4.685715279300     1.008940904320     1.608010408327
    H            3.790611121786    -0.784553465008    -2.118951136464
    H            4.881157561038    -0.077607869603    -0.919195907354
    H            4.078702859925    -1.624093034646    -0.614644521599

  Mulliken Charges: (a.u.)
   Center  Symbol    Alpha    Beta     Spin     Total
       1     O     4.17073  4.17073  0.00000 -0.34146
       2     C     2.86219  2.86219  0.00000  0.27563
       3     C     3.11384  3.11384  0.00000 -0.22767
       4     C     3.15128  3.15128  0.00000 -0.30255
       5     C     3.08330  3.08330  0.00000 -0.16661
       6     H     0.44559  0.44559  0.00000  0.10883
       7     H     0.44563  0.44563  0.00000  0.10875
       8     C     3.09028  3.09028  0.00000 -0.18056
       9     H     0.44574  0.44574  0.00000  0.10852
      10     H     0.44596  0.44596  0.00000  0.10807
      11     C     3.08837  3.08837  0.00000 -0.17674
      12     H     0.45555  0.45555  0.00000  0.08890
      13     H     0.45543  0.45543  0.00000  0.08914
      14     C     3.08508  3.08508  0.00000 -0.17017
      15     H     0.45403  0.45403  0.00000  0.09195
      16     H     0.45319  0.45319  0.00000  0.09362
      17     C     3.14903  3.14903  0.00000 -0.29807
      18     H     0.45619  0.45619  0.00000  0.08762
      19     H     0.45414  0.45414  0.00000  0.09173
      20     H     0.45516  0.45516  0.00000  0.08968
      21     H     0.44907  0.44907  0.00000  0.10187
      22     H     0.45410  0.45410  0.00000  0.09179
      23     H     0.45039  0.45039  0.00000  0.09922
      24     H     0.43536  0.43536  0.00000  0.12928
      25     H     0.45038  0.45038  0.00000  0.09924

   Total alpha = 36.00000, Total beta = 36.00000, Total charge = -0.00000

*** Psi4 exiting successfully. Buy a developer a beer!
