  ==> Input File <==

--------------------------------------------------------------------------
set {
	reference rhf
	basis 6-31G*
}

set_num_threads( 1 )
memory 2 gb

molecule MOL {
0 1

H	 -0.000158	 1.970498	 0.756846
O	 -0.000074	 1.880206	 -0.189275
C	 -0.000015	 0.544847	 -0.545111
C	 -1.278788	 -0.123820	 -0.051541
C	 1.278802	 -0.123718	 -0.051505
H	 -0.000001	 0.490777	 -1.623619
F	 -2.287785	 0.713115	 -0.165603
F	 -1.570459	 -1.209359	 -0.736297
F	 -1.172851	 -0.457068	 1.224908
F	 2.323327	 0.466644	 -0.591854
F	 1.326242	 -1.401483	 -0.363667
F	 1.388946	 -0.015632	 1.262939

	symmetry c1
}
set optking {
	frozen_dihedral = ("
		6 3 2 1
	")
}

ee = energy('scf')
oeprop('DIPOLE', 'QUADRUPOLE', 'MULLIKEN_CHARGES')
f=open( 'psi4out.xyz', 'w' )
f.write( "12  " )
f.write( str(ee) + "\n" )
f.write( MOL.save_string_xyz() )
f.close()
--------------------------------------------------------------------------

    Molecular point group: c1

    Geometry (in Angstrom), charge = 0, multiplicity = 1:

       Center              X                  Y                   Z               Mass
    ------------   -----------------  -----------------  -----------------  -----------------
           H         -0.000989020633     1.970776927485     0.755070948732     1.007825032070
           O         -0.000905020633     1.880484927485    -0.191050051268    15.994914619560
           C         -0.000846020633     0.545125927485    -0.546886051268    12.000000000000
           C         -1.279619020633    -0.123541072515    -0.053316051268    12.000000000000
           C          1.277970979367    -0.123439072515    -0.053280051268    12.000000000000
           H         -0.000832020633     0.491055927485    -1.625394051268     1.007825032070
           F         -2.288616020633     0.713393927485    -0.167378051268    18.998403224000
           F         -1.571290020633    -1.209080072515    -0.738072051268    18.998403224000
           F         -1.173682020633    -0.456789072515     1.223132948732    18.998403224000
           F          2.322495979367     0.466922927485    -0.593629051268    18.998403224000
           F          1.325410979367    -1.401204072515    -0.365442051268    18.998403224000
           F          1.388114979367    -0.015353072515     1.261163948732    18.998403224000

  Charge       = 0
  Multiplicity = 1
  Basis Set: 6-31G*
  Basis Set:

    Orbital Energies (a.u.)
    -----------------------

    Doubly Occupied:

       1A    -26.363678     2A    -26.361529     3A    -26.361277
       4A    -26.360686     5A    -26.358218     6A    -26.357528
       7A    -20.616338     8A    -11.526281     9A    -11.525175
      10A    -11.348709    11A     -1.764521    12A     -1.758395
      13A     -1.661383    14A     -1.658302    15A     -1.656840
      16A     -1.654184    17A     -1.435120    18A     -1.101664
      19A     -0.996774    20A     -0.937879    21A     -0.864339
      22A     -0.862048    23A     -0.851742    24A     -0.844636
      25A     -0.832317    26A     -0.813729    27A     -0.741333
      28A     -0.727193    29A     -0.725553    30A     -0.718532
      31A     -0.688834    32A     -0.685884    33A     -0.682854
      34A     -0.676035    35A     -0.668837    36A     -0.660987
      37A     -0.657437    38A     -0.653419    39A     -0.617002
      40A     -0.549709    41A     -0.506915

  @DF-RHF Final Energy:  -786.27518733580041

   => Energetics <=

    Nuclear Repulsion Energy =            670.7928567965998354
    One-Electron Energy =               -2428.4683860339805506
    Two-Electron Energy =                 971.4003419015801910
    DFT Exchange-Correlation Energy =       0.0000000000000000
    Empirical Dispersion Energy =           0.0000000000000000
    PCM Polarization Energy =               0.0000000000000000
    EFP Energy =                            0.0000000000000000
    Total Energy =                       -786.2751873358005241

  Mulliken Charges: (a.u.)
   Center  Symbol    Alpha    Beta     Spin     Total
       1     H     0.26733  0.26733  0.00000  0.46535
       2     O     4.36013  4.36013  0.00000 -0.72025
       3     C     3.04896  3.04896  0.00000 -0.09791
       4     C     2.44803  2.44803  0.00000  1.10395
       5     C     2.44471  2.44471  0.00000  1.11058
       6     H     0.37511  0.37511  0.00000  0.24978
       7     F     4.67351  4.67351  0.00000 -0.34703
       8     F     4.67396  4.67396  0.00000 -0.34793
       9     F     4.67924  4.67924  0.00000 -0.35849
      10     F     4.67475  4.67475  0.00000 -0.34949
      11     F     4.67388  4.67388  0.00000 -0.34777
      12     F     4.68040  4.68040  0.00000 -0.36079

   Total alpha = 41.00000, Total beta = 41.00000, Total charge = -0.00000
