  ==> Input File <==

--------------------------------------------------------------------------
set {
	reference rhf
	basis cc-pvtz
}

set_num_threads( 4 )
memory 2 gb

molecule MOL {
0 1

H	 3.273419	 0.176595	 -0.102789
N	 2.433987	 -0.362316	 -0.080024
C	 1.263552	 0.494993	 0.021953
H	 2.497638	 -0.973615	 0.707122
C	 -0.016533	 -0.325589	 -0.026925
H	 1.280915	 1.180773	 -0.818522
H	 1.263064	 1.106893	 0.925038
C	 -1.280353	 0.525521	 0.047747
H	 -0.016686	 -0.912532	 -0.939714
H	 -0.014099	 -1.037598	 0.796369
C	 -1.576667	 1.031456	 1.455660
H	 -2.126091	 -0.055809	 -0.309673
H	 -1.187533	 1.373092	 -0.625961
H	 -1.708469	 0.206473	 2.147585
H	 -2.481049	 1.628625	 1.476500
H	 -0.765093	 1.647295	 1.828850

	symmetry c1
}
set optking {
	frozen_dihedral = ("
		12 8 5 9
	")
}

ee = optimize('scf')
oeprop('DIPOLE', 'QUADRUPOLE', 'MULLIKEN_CHARGES')
f=open( 'psi4out.xyz', 'w' )
f.write( "16  " )
f.write( str(ee) + "\n" )
f.write( MOL.save_string_xyz() )
f.close()
--------------------------------------------------------------------------

    Molecular point group: c1
  Charge       = 0
  Multiplicity = 1
  Basis Set: CC-PVTZ
  Basis Set:
  @DF-RHF Final Energy:  -212.39788283313598
    Total Energy =                       -212.3978828331358955
    Molecular point group: c1
  Basis Set: CC-PVTZ
  Basis Set:
  Basis Set: CC-PVTZ
  Basis Set:
  @DF-RHF Final Energy:  -212.39813496766089
    Total Energy =                       -212.3981349676610648
  Basis Set: CC-PVTZ
  Basis Set:
  Basis Set: CC-PVTZ
  Basis Set:
  @DF-RHF Final Energy:  -212.39817041221076
    Total Energy =                       -212.3981704122106748
  Basis Set: CC-PVTZ
  Basis Set:
  Basis Set: CC-PVTZ
  Basis Set:
  @DF-RHF Final Energy:  -212.39817160348082
    Total Energy =                       -212.3981716034808187
  Basis Set: CC-PVTZ
  Basis Set:
  Charge       = 0
  Multiplicity = 1
  Basis Set: CC-PVTZ
  Basis Set:

    Orbital Energies (a.u.)
    -----------------------

    Doubly Occupied:

       1A    -15.526431     2A    -11.237785     3A    -11.213367
       4A    -11.208140     5A    -11.206665     6A     -1.178138
       7A     -1.059659     8A     -0.957154     9A     -0.856129
      10A     -0.783935    11A     -0.658322    12A     -0.637459
      13A     -0.619013    14A     -0.570576    15A     -0.563891
      16A     -0.533982    17A     -0.500732    18A     -0.467239
      19A     -0.465487    20A     -0.461811    21A     -0.383354

  @DF-RHF Final Energy:  -212.39817169543520

   => Energetics <=

    Nuclear Repulsion Energy =            188.5444612626378955
    One-Electron Energy =                -659.7067267248052076
    Two-Electron Energy =                 258.7640937667320600
    DFT Exchange-Correlation Energy =       0.0000000000000000
    Empirical Dispersion Energy =           0.0000000000000000
    PCM Polarization Energy =               0.0000000000000000
    EFP Energy =                            0.0000000000000000
    Total Energy =                       -212.3981716954352237
    Molecular point group: c1
  Basis Set: CC-PVTZ
  Basis Set:

  -Total Gradient:
     Atom            X                  Y                   Z
    ------   -----------------  -----------------  -----------------
       1        0.000004229369    -0.000004792249    -0.000002051326
       2        0.000003540753     0.000013866315     0.000004828548
       3       -0.000000499329    -0.000017716466    -0.000006330511
       4       -0.000002330148     0.000004155706    -0.000001329041
       5        0.000771366048     0.001302069206    -0.001035674210
       6        0.000003492120     0.000002322974     0.000002364080
       7       -0.000003934365    -0.000002334604     0.000002057274
       8       -0.000382185353    -0.000774073461     0.001614563899
       9       -0.000584506440    -0.000971147477     0.000610414074
      10        0.000001499119     0.000001825935     0.000000518952
      11       -0.000008070529     0.000004008916     0.000000771271
      12        0.000194895772     0.000434436213    -0.001185807866
      13        0.000000044484     0.000003907879    -0.000000007440
      14        0.000002104879     0.000002445153    -0.000004281608
      15       -0.000003845483     0.000005744511     0.000003807109
      16        0.000004199100    -0.000004718550    -0.000003843206

  **** Optimization is complete! (in 5 steps) ****
    Final optimized geometry and variables:
    Molecular point group: c1

    Geometry (in Angstrom), charge = 0, multiplicity = 1:

    H            3.084716510517    -0.126109801470    -0.420451481072
    N            2.237836132997    -0.653310165334    -0.395483854325
    C            1.080263195048     0.220915764968    -0.281400170980
    H            2.297709417673    -1.268322552079     0.389129457076
    C           -0.208714287170    -0.587988421120    -0.328874881304
    H            1.098218791303     0.906005348030    -1.122489895766
    H            1.102740656834     0.831138138394     0.620508053370
    C           -1.485095114274     0.251766278806    -0.237562169290
    H           -0.213883233228    -1.163941027810    -1.247306546376
    H           -0.201887072589    -1.315922173956     0.480716120066
    C           -1.808863530716     0.767769202826     1.162420988636
    H           -2.318636720900    -0.343330434583    -0.595960880896
    H           -1.409106606933     1.092549626029    -0.922679412818
    H           -1.927983380583    -0.054359514272     1.860529695559
    H           -2.732550469376     1.335267858077     1.161345396236
    H           -1.029399226197     1.415581719189     1.545955671003

  Mulliken Charges: (a.u.)
   Center  Symbol    Alpha    Beta     Spin     Total
       1     H     0.43008  0.43008  0.00000  0.13984
       2     N     3.69021  3.69021  0.00000 -0.38042
       3     C     3.02561  3.02561  0.00000 -0.05121
       4     H     0.43046  0.43046  0.00000  0.13908
       5     C     3.08776  3.08776  0.00000 -0.17551
       6     H     0.45710  0.45710  0.00000  0.08581
       7     H     0.46654  0.46654  0.00000  0.06693
       8     C     3.09519  3.09519  0.00000 -0.19039
       9     H     0.44393  0.44393  0.00000  0.11213
      10     H     0.46138  0.46138  0.00000  0.07725
      11     C     3.14925  3.14925  0.00000 -0.29850
      12     H     0.44771  0.44771  0.00000  0.10457
      13     H     0.45593  0.45593  0.00000  0.08814
      14     H     0.45543  0.45543  0.00000  0.08915
      15     H     0.44754  0.44754  0.00000  0.10492
      16     H     0.45589  0.45589  0.00000  0.08822

   Total alpha = 21.00000, Total beta = 21.00000, Total charge =  0.00000
