  ==> Input File <==

--------------------------------------------------------------------------
set {
	reference rhf
	basis 6-31G*
}

set_num_threads( 4 )
memory 2 gb

molecule MOL {
0 1

O	 -0.682937	 1.318834	 -0.186099
C	 -0.860635	 0.152188	 -0.042321
C	 -2.173363	 -0.477127	 0.338347
O	 0.083258	 -0.765189	 -0.202595
H	 -2.477673	 -1.180929	 -0.427595
H	 -2.923125	 0.290956	 0.455536
H	 -2.058825	 -1.029004	 1.264191
C	 1.391937	 -0.334737	 -0.569838
C	 2.106955	 0.327053	 0.593532
H	 1.322002	 0.330475	 -1.417035
H	 1.899694	 -1.239197	 -0.872548
H	 3.124302	 0.574590	 0.306375
H	 1.604480	 1.240464	 0.886053
H	 2.146835	 -0.341361	 1.446789

	symmetry c1
}
set optking {
	frozen_dihedral = ("
		10 8 4 2
	")
}

ee = optimize('scf')
oeprop('DIPOLE', 'QUADRUPOLE', 'MULLIKEN_CHARGES')
f=open( 'psi4out.xyz', 'w' )
f.write( "14  " )
f.write( str(ee) + "\n" )
f.write( MOL.save_string_xyz() )
f.close()
--------------------------------------------------------------------------

    Molecular point group: c1
  Charge       = 0
  Multiplicity = 1
  Basis Set: 6-31G*
  Basis Set:
  @DF-RHF Final Energy:  -305.87492563002030
    Total Energy =                       -305.8749256300202433
    Molecular point group: c1
  Basis Set: 6-31G*
  Basis Set:
  Basis Set: 6-31G*
  Basis Set:
  @DF-RHF Final Energy:  -305.87508633114442
    Total Energy =                       -305.8750863311445300
  Basis Set: 6-31G*
  Basis Set:
  Basis Set: 6-31G*
  Basis Set:
  @DF-RHF Final Energy:  -305.87447298764414
    Total Energy =                       -305.8744729876440260
  Basis Set: 6-31G*
  Basis Set:
  Basis Set: 6-31G*
  Basis Set:
  @DF-RHF Final Energy:  -305.87515086843644
    Total Energy =                       -305.8751508684362079
  Basis Set: 6-31G*
  Basis Set:
  Basis Set: 6-31G*
  Basis Set:
  @DF-RHF Final Energy:  -305.87515287929989
    Total Energy =                       -305.8751528792998329
  Basis Set: 6-31G*
  Basis Set:
  Charge       = 0
  Multiplicity = 1
  Basis Set: 6-31G*
  Basis Set:

    Orbital Energies (a.u.)
    -----------------------

    Doubly Occupied:

       1A    -20.601960     2A    -20.544622     3A    -11.375774
       4A    -11.286154     5A    -11.233315     6A    -11.217525
       7A     -1.467621     8A     -1.362826     9A     -1.054721
      10A     -0.998561    11A     -0.884457    12A     -0.762386
      13A     -0.699009    14A     -0.681834    15A     -0.658092
      16A     -0.610276    17A     -0.587837    18A     -0.570254
      19A     -0.557345    20A     -0.529785    21A     -0.515468
      22A     -0.494057    23A     -0.451495    24A     -0.437826

  @DF-RHF Final Energy:  -305.87515298545202

   => Energetics <=

    Nuclear Repulsion Energy =            249.3089183285053707
    One-Electron Energy =                -911.2017443376718120
    Two-Electron Energy =                 356.0176730237143374
    DFT Exchange-Correlation Energy =       0.0000000000000000
    Empirical Dispersion Energy =           0.0000000000000000
    PCM Polarization Energy =               0.0000000000000000
    EFP Energy =                            0.0000000000000000
    Total Energy =                       -305.8751529854521323
    Molecular point group: c1
  Basis Set: 6-31G*
  Basis Set:

  -Total Gradient:
     Atom            X                  Y                   Z
    ------   -----------------  -----------------  -----------------
       1        0.000008833395    -0.000005815014    -0.000003580080
       2        0.000404895239     0.000129772457     0.001727650601
       3        0.000000865623     0.000009158180     0.000034462638
       4       -0.000577147704    -0.000590925084    -0.002800700101
       5       -0.000002747995     0.000004055289    -0.000009707484
       6       -0.000005242056    -0.000001721455    -0.000002106668
       7       -0.000004700218    -0.000008130304    -0.000010468168
       8       -0.000035489958     0.002059418970     0.002335237279
       9       -0.000003112641    -0.000007403333    -0.000012478403
      10        0.000205126852    -0.001591168561    -0.001265590647
      11        0.000012491603     0.000004876974     0.000006936317
      12        0.000002417034    -0.000000649709    -0.000001033118
      13       -0.000005889894    -0.000000613375    -0.000000286333
      14       -0.000000299279    -0.000000855035     0.000001664171

  **** Optimization is complete! (in 6 steps) ****
    Final optimized geometry and variables:
    Molecular point group: c1

    Geometry (in Angstrom), charge = 0, multiplicity = 1:

    O           -0.693083648003     1.276187750685    -0.223638551745
    C           -0.852715684614     0.111649161520    -0.045506384997
    C           -2.153199004719    -0.525066444727     0.364158427190
    O            0.100928982874    -0.796910030167    -0.195649699965
    H           -2.453388555271    -1.254798980962    -0.378824088329
    H           -2.913066307376     0.235341706628     0.465373783890
    H           -2.023545587546    -1.048493118901     1.304423614412
    C            1.411991464854    -0.357202007717    -0.543662341768
    C            2.141954758550     0.276768428117     0.626061193225
    H            1.347983124462     0.310304149461    -1.390953882907
    H            1.914255108633    -1.260337994601    -0.859742432724
    H            3.164042697770     0.500510476132     0.336038111242
    H            1.665329223832     1.197315372877     0.934265746755
    H            2.170996957697    -0.406129219804     1.468583688158

  Mulliken Charges: (a.u.)
   Center  Symbol    Alpha    Beta     Spin     Total
       1     O     4.28449  4.28449  0.00000 -0.56899
       2     C     2.61968  2.61968  0.00000  0.76063
       3     C     3.28151  3.28151  0.00000 -0.56302
       4     O     4.30764  4.30764  0.00000 -0.61528
       5     H     0.40007  0.40007  0.00000  0.19986
       6     H     0.39710  0.39710  0.00000  0.20580
       7     H     0.40066  0.40066  0.00000  0.19869
       8     C     3.00390  3.00390  0.00000 -0.00779
       9     C     3.25844  3.25844  0.00000 -0.51687
      10     H     0.40601  0.40601  0.00000  0.18798
      11     H     0.40986  0.40986  0.00000  0.18028
      12     H     0.41745  0.41745  0.00000  0.16509
      13     H     0.39813  0.39813  0.00000  0.20373
      14     H     0.41506  0.41506  0.00000  0.16988

   Total alpha = 24.00000, Total beta = 24.00000, Total charge =  0.00000
