  ==> Input File <==

--------------------------------------------------------------------------
set {
	reference rhf
	basis 6-31G*
}

set_num_threads( 4 )
memory 2 gb

molecule MOL {
0 1

O	 -2.330754	 0.640708	 1.728549
C	 -2.408366	 -0.224639	 0.916289
C	 -3.570070	 -1.179316	 0.814787
O	 -1.481751	 -0.454642	 0.000584
H	 -4.477859	 -0.607748	 0.662823
H	 -3.441631	 -1.885979	 0.008209
H	 -3.669215	 -1.707878	 1.755356
C	 -0.334255	 0.388708	 0.000906
C	 0.891947	 -0.504646	 0.000751
H	 -0.365390	 1.025305	 -0.873475
H	 -0.365484	 1.024911	 0.875569
C	 2.191998	 0.301789	 0.000897
H	 0.855148	 -1.151283	 -0.871571
H	 0.855132	 -1.151660	 0.872805
C	 3.441114	 -0.581407	 0.000108
H	 2.215074	 0.954890	 -0.869742
H	 2.215465	 0.953923	 0.872248
C	 4.739576	 0.224112	 -0.001102
H	 3.419457	 -1.233487	 -0.870178
H	 3.420834	 -1.233096	 0.870717
H	 4.804918	 0.861552	 -0.878265
H	 5.606527	 -0.429058	 -0.001824
H	 4.806469	 0.861674	 0.875853

	symmetry c1
}
set optking {
	frozen_dihedral = ("
		2 4 8 10
	")
}

ee = optimize('scf')
oeprop('DIPOLE', 'QUADRUPOLE', 'MULLIKEN_CHARGES')
f=open( 'psi4out.xyz', 'w' )
f.write( "23  " )
f.write( str(ee) + "\n" )
f.write( MOL.save_string_xyz() )
f.close()
--------------------------------------------------------------------------

    Molecular point group: c1
  Charge       = 0
  Multiplicity = 1
  Basis Set: 6-31G*
  Basis Set:
  @DF-RHF Final Energy:  -422.97684183017952
    Total Energy =                       -422.9768418301800921
    Molecular point group: c1
  Basis Set: 6-31G*
  Basis Set:
  Basis Set: 6-31G*
  Basis Set:
  @DF-RHF Final Energy:  -422.97713680096058
    Total Energy =                       -422.9771368009597836
  Basis Set: 6-31G*
  Basis Set:
  Basis Set: 6-31G*
  Basis Set:
  @DF-RHF Final Energy:  -422.97758881850189
    Total Energy =                       -422.9775888185016584
  Basis Set: 6-31G*
  Basis Set:
  Basis Set: 6-31G*
  Basis Set:
  @DF-RHF Final Energy:  -422.97739823870228
    Total Energy =                       -422.9773982387030173
  Basis Set: 6-31G*
  Basis Set:
  Basis Set: 6-31G*
  Basis Set:
  @DF-RHF Final Energy:  -422.97764743969731
    Total Energy =                       -422.9776474396971935
  Basis Set: 6-31G*
  Basis Set:
  Charge       = 0
  Multiplicity = 1
  Basis Set: 6-31G*
  Basis Set:

    Orbital Energies (a.u.)
    -----------------------

    Doubly Occupied:

       1A    -20.602277     2A    -20.540011     3A    -11.375646
       4A    -11.280028     5A    -11.231813     6A    -11.224156
       7A    -11.223559     8A    -11.221480     9A    -11.212779
      10A     -1.465465    11A     -1.361348    12A     -1.093707
      13A     -1.042020    14A     -1.002943    15A     -0.931613
      16A     -0.845366    17A     -0.801101    18A     -0.772616
      19A     -0.697397    20A     -0.679658    21A     -0.661542
      22A     -0.647967    23A     -0.605837    24A     -0.587968
      25A     -0.584756    26A     -0.571146    27A     -0.552976
      28A     -0.538260    29A     -0.523099    30A     -0.507056
      31A     -0.489613    32A     -0.478281    33A     -0.473234
      34A     -0.470475    35A     -0.442338    36A     -0.433971

  @DF-RHF Final Energy:  -422.97764800578102

   => Energetics <=

    Nuclear Repulsion Energy =            450.7666175188043098
    One-Electron Energy =               -1469.1415256333064008
    Two-Electron Energy =                 595.3972601087214116
    DFT Exchange-Correlation Energy =       0.0000000000000000
    Empirical Dispersion Energy =           0.0000000000000000
    PCM Polarization Energy =               0.0000000000000000
    EFP Energy =                            0.0000000000000000
    Total Energy =                       -422.9776480057806793
    Molecular point group: c1
  Basis Set: 6-31G*
  Basis Set:

  -Total Gradient:
     Atom            X                  Y                   Z
    ------   -----------------  -----------------  -----------------
       1        0.000015542778    -0.000008037400    -0.000037579305
       2        0.000152688954    -0.000195588041     0.000265746684
       3       -0.000008102720     0.000005306647    -0.000020843511
       4       -0.000141462023     0.000304918175    -0.000432373518
       5        0.000001655746     0.000000835948     0.000015055497
       6        0.000003335878     0.000001100846     0.000003778284
       7        0.000005974955    -0.000012877148    -0.000001509533
       8       -0.000219853975     0.000176754271     0.000417244407
       9        0.000017021670     0.000014323103    -0.000013732412
      10        0.000170159424    -0.000298545515    -0.000209771843
      11       -0.000006012708     0.000019229243     0.000013587726
      12        0.000001509687    -0.000013908681     0.000005027608
      13        0.000003407453    -0.000007774204    -0.000000300540
      14       -0.000006426780     0.000010225465    -0.000002755317
      15        0.000005751161     0.000003913430    -0.000003338781
      16        0.000005103830     0.000001744759     0.000002738652
      17       -0.000001857520    -0.000001897771     0.000002863954
      18        0.000002981459    -0.000002692551    -0.000004641287
      19       -0.000002088068    -0.000002356779     0.000001407960
      20       -0.000000336228     0.000004532419     0.000001340556
      21        0.000001029987     0.000001341543    -0.000000838833
      22        0.000000943428     0.000000669493    -0.000001120557
      23       -0.000000966378    -0.000001217252     0.000000014104

  **** Optimization is complete! (in 6 steps) ****
    Final optimized geometry and variables:
    Molecular point group: c1

    Geometry (in Angstrom), charge = 0, multiplicity = 1:

    O           -2.535663489189     0.787442907126     1.352625608460
    C           -2.553218245799    -0.066351952383     0.525054933786
    C           -3.692677810169    -1.038793888608     0.357464671898
    O           -1.585427451833    -0.277909203489    -0.353687329386
    H           -4.600617623340    -0.479669913588     0.165303105269
    H           -3.513105192897    -1.736295869352    -0.447165377498
    H           -3.830066054023    -1.576221054938     1.288165936528
    C           -0.418052916303     0.540619805032    -0.331544310057
    C            0.808504295878    -0.355604915368    -0.344450037113
    H           -0.452454586845     1.161918815753    -1.218145806386
    H           -0.441137925452     1.175764963408     0.538973248992
    C            2.108730613454     0.448877237304    -0.395182141149
    H            0.749401695429    -1.022536532917    -1.200037180531
    H            0.793036219384    -0.981361665463     0.544088905373
    C            3.357454746618    -0.434832454572    -0.404278968217
    H            2.111121729157     1.079890620193    -1.282483543914
    H            2.153023118492     1.122502653170     0.458794312255
    C            4.655490462549     0.369619030586    -0.457926016553
    H            3.314282777940    -1.108932289188    -1.256834666152
    H            3.358536408433    -1.063861182174     0.483008203690
    H            4.699580614137     0.984113375243    -1.352664008126
    H            5.522154635895    -0.283905087504    -0.462820940984
    H            4.743664636546     1.029545837853     0.400374636351

  Mulliken Charges: (a.u.)
   Center  Symbol    Alpha    Beta     Spin     Total
       1     O     4.28349  4.28349  0.00000 -0.56699
       2     C     2.61551  2.61551  0.00000  0.76898
       3     C     3.28847  3.28847  0.00000 -0.57693
       4     O     4.31358  4.31358  0.00000 -0.62716
       5     H     0.39753  0.39753  0.00000  0.20493
       6     H     0.39993  0.39993  0.00000  0.20014
       7     H     0.39779  0.39779  0.00000  0.20442
       8     C     3.00533  3.00533  0.00000 -0.01065
       9     C     3.16298  3.16298  0.00000 -0.32596
      10     H     0.41530  0.41530  0.00000  0.16939
      11     H     0.39401  0.39401  0.00000  0.21198
      12     C     3.16097  3.16097  0.00000 -0.32194
      13     H     0.41434  0.41434  0.00000  0.17132
      14     H     0.41575  0.41575  0.00000  0.16849
      15     C     3.15136  3.15136  0.00000 -0.30272
      16     H     0.42175  0.42175  0.00000  0.15651
      17     H     0.41971  0.41971  0.00000  0.16058
      18     C     3.23990  3.23990  0.00000 -0.47980
      19     H     0.42154  0.42154  0.00000  0.15693
      20     H     0.42101  0.42101  0.00000  0.15797
      21     H     0.42119  0.42119  0.00000  0.15762
      22     H     0.41798  0.41798  0.00000  0.16403
      23     H     0.42057  0.42057  0.00000  0.15886

   Total alpha = 36.00000, Total beta = 36.00000, Total charge =  0.00000
