                              Psi4 1.0.54 Driver

  ==> Input File <==

--------------------------------------------------------------------------
set {
	reference rhf
	basis cc-pvtz
}

set_num_threads( 4 )
memory 2 gb

molecule MOL {
0 1

H	 2.190573	 -0.629143	 -0.208718
O	 1.355408	 -0.529451	 0.208662
C	 0.700177	 0.619554	 -0.266242
C	 -0.713111	 0.588314	 0.266177
H	 0.678680	 0.627133	 -1.351786
H	 1.199747	 1.521489	 0.077736
O	 -1.421673	 -0.521378	 -0.196983
H	 -1.244794	 1.469161	 -0.069059
H	 -0.685100	 0.604721	 1.352683
H	 -1.721131	 -0.341730	 -1.071097

	symmetry c1
}
set optking {
	frozen_dihedral = ("
		10 7 4 3
	")
}

ee,wfn = optimize('scf', return_wfn=True)
oeprop( wfn, 'DIPOLE', 'QUADRUPOLE', 'MULLIKEN_CHARGES')
f=open( 'psi4out.xyz', 'w' )
f.write( "10  " )
f.write( str(ee) + "\n" )
f.write( MOL.save_string_xyz() )
f.close()
--------------------------------------------------------------------------

    Molecular point group: c1
  Charge       = 0
  Multiplicity = 1
  Basis Set: CC-PVTZ
  Basis Set:
  @DF-RHF Final Energy:  -229.02110484925154
    Total Energy =                       -229.0211048492514294
    Molecular point group: c1
  Basis Set: CC-PVTZ
  Basis Set:
  Basis Set: CC-PVTZ
  Basis Set:
  @DF-RHF Final Energy:  -229.02286038250870
    Total Energy =                       -229.0228603825086111
  Basis Set: CC-PVTZ
  Basis Set:
  Basis Set: CC-PVTZ
  Basis Set:
  @DF-RHF Final Energy:  -229.02309244829408
    Total Energy =                       -229.0230924482939656
  Basis Set: CC-PVTZ
  Basis Set:
  Basis Set: CC-PVTZ
  Basis Set:
  @DF-RHF Final Energy:  -229.02310752176513
    Total Energy =                       -229.0231075217650982
  Basis Set: CC-PVTZ
  Basis Set:
  Charge       = 0
  Multiplicity = 1
  Basis Set: CC-PVTZ
  Basis Set:

    Orbital Energies (a.u.)
    -----------------------

    Doubly Occupied:

       1A    -20.549045     2A    -20.546529     3A    -11.271482
       4A    -11.268642     5A     -1.377115     6A     -1.357396
       7A     -1.003072     8A     -0.843422     9A     -0.723863
      10A     -0.681383    11A     -0.654708    12A     -0.599759
      13A     -0.573903    14A     -0.534872    15A     -0.487015
      16A     -0.447459    17A     -0.437632

  @DF-RHF Final Energy:  -229.02310811677950

   => Energetics <=

    Nuclear Repulsion Energy =            133.3069068278514351
    One-Electron Energy =                -577.9454374750387160
    Two-Electron Energy =                 215.6154225304077272
    DFT Exchange-Correlation Energy =       0.0000000000000000
    Empirical Dispersion Energy =           0.0000000000000000
    PCM Polarization Energy =               0.0000000000000000
    EFP Energy =                            0.0000000000000000
    Total Energy =                       -229.0231081167795537
    Molecular point group: c1
  Basis Set: CC-PVTZ
  Basis Set:

  -Total Gradient:
     Atom            X                  Y                   Z
    ------   -----------------  -----------------  -----------------
       1        0.000000400079     0.000002789038    -0.000010408255
       2        0.000005513626    -0.000000538049     0.000048627316
       3        0.000091881278    -0.000327535430     0.000479944068
       4       -0.000387353346     0.000679954632    -0.000688992614
       5       -0.000007328408     0.000004332643     0.000032309321
       6        0.000002218860    -0.000048341250     0.000011684860
       7        0.001161771165    -0.000766367117    -0.000260612834
       8        0.000016856634    -0.000012811611     0.000002152237
       9        0.000020211703     0.000009693423     0.000007682913
      10       -0.000904171591     0.000458823721     0.000377612989

  **** Optimization is complete! (in 5 steps) ****
    Final optimized geometry and variables:
    Molecular point group: c1

    Geometry (in Angstrom), charge = 0, multiplicity = 1:

    H            2.258418081718    -0.626704676764     0.033917952540
    O            1.381773968270    -0.551188085267     0.362011712449
    C            0.744869347024     0.554214649396    -0.207616182121
    C           -0.705661969583     0.570652788901     0.221524795536
    H            0.801916136174     0.520192831500    -1.294458815156
    H            1.211166359677     1.481868901141     0.120187967473
    O           -1.453909561991    -0.487028856109    -0.304264383161
    H           -1.140254563485     1.529923291288    -0.049465026526
    H           -0.750712844394     0.478466222825     1.298205619025
    H           -1.702524476155    -0.300094174562    -1.190487196525

  Mulliken Charges: (a.u.)
   Center  Symbol    Alpha    Beta     Spin     Total
       1     H     0.39590  0.39590  0.00000  0.20819
       2     O     4.19155  4.19155  0.00000 -0.38311
       3     C     2.95987  2.95987  0.00000  0.08025
       4     C     2.97098  2.97098  0.00000  0.05804
       5     H     0.48237  0.48237  0.00000  0.03525
       6     H     0.47747  0.47747  0.00000  0.04506
       7     O     4.19677  4.19677  0.00000 -0.39355
       8     H     0.47276  0.47276  0.00000  0.05449
       9     H     0.45556  0.45556  0.00000  0.08889
      10     H     0.39676  0.39676  0.00000  0.20649

   Total alpha = 17.00000, Total beta = 17.00000, Total charge = -0.00000

*** Psi4 exiting successfully. Buy a developer a beer!
