                              Psi4 1.0.54 Driver

  ==> Input File <==

--------------------------------------------------------------------------
set {
	reference rhf
	basis cc-pvtz
}

set_num_threads( 4 )
memory 2 gb

molecule MOL {
0 1

H	 -2.498963	 -0.741158	 -0.729149
O	 -2.346257	 -0.289210	 0.080372
C	 -1.183935	 0.486039	 -0.009831
C	 0.062853	 -0.375310	 0.027457
H	 -1.178881	 1.094526	 -0.908634
H	 -1.184406	 1.155156	 0.838676
O	 0.390825	 -0.611810	 1.357100
H	 0.881887	 0.133138	 -0.483972
H	 -0.123434	 -1.307534	 -0.501534
C	 1.505390	 -1.420564	 1.543873
H	 2.396489	 -0.976645	 1.105519
H	 1.659232	 -1.531878	 2.607183
H	 1.359915	 -2.404960	 1.105329

	symmetry c1
}
set optking {
	frozen_dihedral = ("
		8 4 3 5
	")
}

ee,wfn = optimize('scf', return_wfn=True)
oeprop( wfn, 'DIPOLE', 'QUADRUPOLE', 'MULLIKEN_CHARGES')
f=open( 'psi4out.xyz', 'w' )
f.write( "13  " )
f.write( str(ee) + "\n" )
f.write( MOL.save_string_xyz() )
f.close()
--------------------------------------------------------------------------

    Molecular point group: c1
  Charge       = 0
  Multiplicity = 1
  Basis Set: CC-PVTZ
  Basis Set:
  @DF-RHF Final Energy:  -268.05854162804138
    Total Energy =                       -268.0585416280414393
    Molecular point group: c1
  Basis Set: CC-PVTZ
  Basis Set:
  Basis Set: CC-PVTZ
  Basis Set:
  @DF-RHF Final Energy:  -268.05899171155806
    Total Energy =                       -268.0589917115581216
  Basis Set: CC-PVTZ
  Basis Set:
  Basis Set: CC-PVTZ
  Basis Set:
  @DF-RHF Final Energy:  -268.05914615720155
    Total Energy =                       -268.0591461572017806
  Basis Set: CC-PVTZ
  Basis Set:
  Basis Set: CC-PVTZ
  Basis Set:
  @DF-RHF Final Energy:  -268.05916320209587
    Total Energy =                       -268.0591632020959310
  Basis Set: CC-PVTZ
  Basis Set:
  Basis Set: CC-PVTZ
  Basis Set:
  @DF-RHF Final Energy:  -268.05916606387450
    Total Energy =                       -268.0591660638744429
  Basis Set: CC-PVTZ
  Basis Set:
  Charge       = 0
  Multiplicity = 1
  Basis Set: CC-PVTZ
  Basis Set:

    Orbital Energies (a.u.)
    -----------------------

    Doubly Occupied:

       1A    -20.553208     2A    -20.548501     3A    -11.271742
       4A    -11.268431     5A    -11.265700     6A     -1.391248
       7A     -1.364880     8A     -1.020035     9A     -0.916397
      10A     -0.842712    11A     -0.701716    12A     -0.678555
      13A     -0.663813    14A     -0.636796    15A     -0.602944
      16A     -0.567611    17A     -0.536435    18A     -0.501134
      19A     -0.477114    20A     -0.440245    21A     -0.422190

  @DF-RHF Final Energy:  -268.05916624105544

   => Energetics <=

    Nuclear Repulsion Energy =            192.3437873316261459
    One-Electron Energy =                -747.4630945114880660
    Two-Electron Energy =                 287.0601409388063985
    DFT Exchange-Correlation Energy =       0.0000000000000000
    Empirical Dispersion Energy =           0.0000000000000000
    PCM Polarization Energy =               0.0000000000000000
    EFP Energy =                            0.0000000000000000
    Total Energy =                       -268.0591662410555500
    Molecular point group: c1
  Basis Set: CC-PVTZ
  Basis Set:

  -Total Gradient:
     Atom            X                  Y                   Z
    ------   -----------------  -----------------  -----------------
       1        0.000006690684     0.000008038422     0.000000951090
       2        0.000039729385     0.000023255238     0.000006670993
       3       -0.002394837160    -0.003647883506    -0.002991840768
       4        0.001581349492     0.002516780840     0.004335763168
       5        0.001722701059     0.002628028467     0.001794951005
       6       -0.000009747692     0.000003436298     0.000001731237
       7        0.000017211476    -0.000005076279    -0.000013793495
       8       -0.000950842677    -0.001543528866    -0.003127819296
       9       -0.000001159242     0.000005213793    -0.000015090885
      10       -0.000007811193     0.000005993278     0.000012288871
      11       -0.000000654564     0.000001308029    -0.000002187605
      12        0.000002191477    -0.000000461029     0.000001565831
      13       -0.000004821047     0.000004895312    -0.000003190147

  **** Optimization is complete! (in 6 steps) ****
    Final optimized geometry and variables:
    Molecular point group: c1

    Geometry (in Angstrom), charge = 0, multiplicity = 1:

    H           -2.156105513914    -0.308228817569    -1.234759826364
    O           -2.033922724040     0.233908406934    -0.477020524123
    C           -0.846575747353     0.961313818527    -0.591239015206
    C            0.406105736717     0.106976030786    -0.549665054277
    H           -0.835100962512     1.571909626714    -1.490951601916
    H           -0.822230940152     1.639567685827     0.250145767540
    O            0.739602752388    -0.188269435306     0.764585669227
    H            1.220361083550     0.626632274148    -1.055239505983
    H            0.232663053919    -0.812488894110    -1.112076508565
    C            1.829087425863    -1.038030043075     0.906441221986
    H            2.727715176640    -0.611827118354     0.464878205953
    H            1.997231524434    -1.185841839899     1.963009657933
    H            1.643234122718    -2.004344844765     0.442835235556

  Mulliken Charges: (a.u.)
   Center  Symbol    Alpha    Beta     Spin     Total
       1     H     0.39647  0.39647  0.00000  0.20706
       2     O     4.19789  4.19789  0.00000 -0.39579
       3     C     2.96500  2.96500  0.00000  0.07001
       4     C     2.96251  2.96251  0.00000  0.07498
       5     H     0.47312  0.47312  0.00000  0.05376
       6     H     0.45477  0.45477  0.00000  0.09045
       7     O     4.16873  4.16873  0.00000 -0.33746
       8     H     0.47702  0.47702  0.00000  0.04595
       9     H     0.48477  0.48477  0.00000  0.03046
      10     C     3.03067  3.03067  0.00000 -0.06134
      11     H     0.47244  0.47244  0.00000  0.05511
      12     H     0.44548  0.44548  0.00000  0.10904
      13     H     0.47112  0.47112  0.00000  0.05776

   Total alpha = 21.00000, Total beta = 21.00000, Total charge =  0.00000

*** Psi4 exiting successfully. Buy a developer a beer!
