  ==> Input File <==

--------------------------------------------------------------------------
set {
	reference rhf
	basis 6-31G*
}

set_num_threads( 4 )
memory 2 gb

molecule MOL {
0 1

H	 -3.407059	 -1.043082	 0.000000
O	 -3.119761	 -0.140267	 0.000000
C	 -1.777559	 -0.059267	 0.000000
C	 -1.098892	 1.003560	 -0.588906
C	 -1.075916	 -1.087443	 0.616942
H	 -1.650308	 1.796396	 -1.064996
C	 0.279503	 1.033901	 -0.558452
H	 -1.621993	 -1.896241	 1.064062
C	 0.302473	 -1.042902	 0.639212
H	 0.816044	 1.847772	 -1.008827
C	 0.996634	 0.012045	 0.055387
H	 0.846681	 -1.839425	 1.117177
C	 2.472049	 0.046052	 0.087101
O	 3.141852	 0.910207	 -0.387618
H	 2.942794	 -0.803421	 0.593027

	symmetry c1
}
set optking {
	frozen_dihedral = ("
		5 3 2 1
	")
}

ee = optimize('scf')
oeprop('DIPOLE', 'QUADRUPOLE', 'MULLIKEN_CHARGES')
f=open( 'psi4out.xyz', 'w' )
f.write( "15  " )
f.write( str(ee) + "\n" )
f.write( MOL.save_string_xyz() )
f.close()
--------------------------------------------------------------------------

    Molecular point group: c1
  Charge       = 0
  Multiplicity = 1
  Basis Set: 6-31G*
  Basis Set:
  @DF-RHF Final Energy:  -418.28634175130816
    Total Energy =                       -418.2863417513081004
    Molecular point group: c1
  Basis Set: 6-31G*
  Basis Set:
  Basis Set: 6-31G*
  Basis Set:
  @DF-RHF Final Energy:  -418.28819803441365
    Total Energy =                       -418.2881980344134263
  Basis Set: 6-31G*
  Basis Set:
  Basis Set: 6-31G*
  Basis Set:
  @DF-RHF Final Energy:  -418.28833269182388
    Total Energy =                       -418.2883326918245075
  Basis Set: 6-31G*
  Basis Set:
  Basis Set: 6-31G*
  Basis Set:
  @DF-RHF Final Energy:  -418.28720790612738
    Total Energy =                       -418.2872079061269233
  Basis Set: 6-31G*
  Basis Set:
  Basis Set: 6-31G*
  Basis Set:
  @DF-RHF Final Energy:  -418.28836686873530
    Total Energy =                       -418.2883668687344425
  Basis Set: 6-31G*
  Basis Set:
  Charge       = 0
  Multiplicity = 1
  Basis Set: 6-31G*
  Basis Set:

    Orbital Energies (a.u.)
    -----------------------

    Doubly Occupied:

       1A    -20.606927     2A    -20.556866     3A    -11.328678
       4A    -11.321413     5A    -11.262807     6A    -11.253588
       7A    -11.245060     8A    -11.240221     9A    -11.238259
      10A     -1.427116    11A     -1.398071    12A     -1.170642
      13A     -1.042594    14A     -1.036946    15A     -0.892393
      16A     -0.857627    17A     -0.801809    18A     -0.755595
      19A     -0.696753    20A     -0.683646    21A     -0.640549
      22A     -0.624969    23A     -0.616192    24A     -0.607468
      25A     -0.570353    26A     -0.555118    27A     -0.548812
      28A     -0.505152    29A     -0.483742    30A     -0.419186
      31A     -0.356692    32A     -0.329899

  @DF-RHF Final Energy:  -418.28837069041833

   => Energetics <=

    Nuclear Repulsion Energy =            401.2184274092736587
    One-Electron Energy =               -1364.8633127829584737
    Two-Electron Energy =                 545.3565146832661412
    DFT Exchange-Correlation Energy =       0.0000000000000000
    Empirical Dispersion Energy =           0.0000000000000000
    PCM Polarization Energy =               0.0000000000000000
    EFP Energy =                            0.0000000000000000
    Total Energy =                       -418.2883706904186738
    Molecular point group: c1
  Basis Set: 6-31G*
  Basis Set:

  -Total Gradient:
     Atom            X                  Y                   Z
    ------   -----------------  -----------------  -----------------
       1        0.000036150398    -0.000102131315    -0.003063756377
       2       -0.000037692685     0.000780430951     0.004892320863
       3        0.000130782987    -0.001667787747    -0.003870171202
       4       -0.000312705166    -0.000116038393     0.000030678936
       5        0.000177373537     0.001139535348     0.002022700196
       6       -0.000005468967    -0.000016906212     0.000006627716
       7        0.000348414986    -0.000172689306     0.000103241789
       8        0.000004785230    -0.000008956416    -0.000002881001
       9       -0.000280215837    -0.000177717869     0.000032042341
      10       -0.000022925838     0.000016595901    -0.000005099354
      11       -0.000013127727     0.000342818971    -0.000225146441
      12        0.000012750166     0.000016615618     0.000006983006
      13        0.000026440568     0.000017832136     0.000166554939
      14       -0.000048482390    -0.000014954655    -0.000056885028
      15       -0.000016079261    -0.000036647012    -0.000037210382

  **** Optimization is complete! (in 6 steps) ****
    Final optimized geometry and variables:
    Molecular point group: c1

    Geometry (in Angstrom), charge = 0, multiplicity = 1:

    H           -3.470652789201    -1.031650669949     0.008778583363
    O           -3.118105965863    -0.152395138131    -0.007395152547
    C           -1.768693541809    -0.171074703652     0.015602840976
    C           -1.102302313476     0.904171806405    -0.566010131750
    C           -1.058688988779    -1.184919413199     0.641392913444
    H           -1.679422361254     1.678468971989    -1.035148030168
    C            0.272515661308     0.950119220726    -0.530252474401
    H           -1.582021305971    -2.000714013131     1.108765604736
    C            0.323774808143    -1.131193875556     0.661279115399
    H            0.802323995697     1.770398530556    -0.976946568825
    C            1.002228269382    -0.069982735776     0.080878491293
    H            0.875012991959    -1.920655806913     1.142738318528
    C            2.478021930668    -0.023183757112     0.114114401904
    O            3.140178972655     0.846645153741    -0.360135788743
    H            2.955857678310    -0.868985355251     0.619585878269

  Mulliken Charges: (a.u.)
   Center  Symbol    Alpha    Beta     Spin     Total
       1     H     0.26933  0.26933  0.00000  0.46135
       2     O     4.37512  4.37512  0.00000 -0.75024
       3     C     2.79099  2.79099  0.00000  0.41802
       4     C     3.12506  3.12506  0.00000 -0.25012
       5     C     3.14325  3.14325  0.00000 -0.28649
       6     H     0.38562  0.38562  0.00000  0.22876
       7     C     3.08025  3.08025  0.00000 -0.16050
       8     H     0.39709  0.39709  0.00000  0.20583
       9     C     3.09335  3.09335  0.00000 -0.18671
      10     H     0.37473  0.37473  0.00000  0.25054
      11     C     3.06611  3.06611  0.00000 -0.13223
      12     H     0.38995  0.38995  0.00000  0.22010
      13     C     2.83071  2.83071  0.00000  0.33857
      14     O     4.25336  4.25336  0.00000 -0.50671
      15     H     0.42509  0.42509  0.00000  0.14982

   Total alpha = 32.00000, Total beta = 32.00000, Total charge =  0.00000
