  ==> Input File <==

--------------------------------------------------------------------------
set {
	reference rhf
	basis 6-31G*
}

set_num_threads( 4 )
memory 2 gb

molecule MOL {
0 1

H	 0.368166	 3.442856	 0.066827
C	 0.506958	 2.831944	 0.967463
C	 -0.687688	 2.003179	 1.365685
O	 1.541050	 2.856286	 1.552110
C	 -1.220012	 1.144545	 0.209990
H	 -0.412997	 1.395479	 2.220059
H	 -1.465443	 2.695897	 1.684893
C	 -0.252658	 0.041456	 -0.226725
H	 -2.160759	 0.698139	 0.518213
H	 -1.453108	 1.785644	 -0.638783
C	 1.180775	 0.282413	 0.250794
H	 -0.266029	 -0.034465	 -1.312038
H	 -0.597733	 -0.921000	 0.146291
C	 2.148627	 -0.814315	 -0.201312
H	 1.516199	 1.249228	 -0.115937
H	 1.192670	 0.346017	 1.338083
C	 3.580890	 -0.659131	 0.322722
H	 2.166869	 -0.852443	 -1.289387
H	 1.762857	 -1.776509	 0.128956
C	 4.324889	 0.564933	 -0.213704
H	 4.142010	 -1.551473	 0.056605
H	 3.564836	 -0.624694	 1.410140
H	 4.342616	 0.565491	 -1.300421
H	 3.866655	 1.493402	 0.110242
H	 5.353900	 0.572371	 0.132816

	symmetry c1
}
set optking {
	frozen_dihedral = ("
		3 5 8 12
	")
}

ee = optimize('scf')
oeprop('DIPOLE', 'QUADRUPOLE', 'MULLIKEN_CHARGES')
f=open( 'psi4out.xyz', 'w' )
f.write( "25  " )
f.write( str(ee) + "\n" )
f.write( MOL.save_string_xyz() )
f.close()
--------------------------------------------------------------------------

    Molecular point group: c1
  Charge       = 0
  Multiplicity = 1
  Basis Set: 6-31G*
  Basis Set:
  @DF-RHF Final Energy:  -387.10075762699410
    Total Energy =                       -387.1007576269940955
    Molecular point group: c1
  Basis Set: 6-31G*
  Basis Set:
  Basis Set: 6-31G*
  Basis Set:
  @DF-RHF Final Energy:  -387.10830309421669
    Total Energy =                       -387.1083030942169216
  Basis Set: 6-31G*
  Basis Set:
  Basis Set: 6-31G*
  Basis Set:
  @DF-RHF Final Energy:  -387.11118538372261
    Total Energy =                       -387.1111853837231820
  Basis Set: 6-31G*
  Basis Set:
  Basis Set: 6-31G*
  Basis Set:
  @DF-RHF Final Energy:  -387.11011722875031
    Total Energy =                       -387.1101172287508234
  Basis Set: 6-31G*
  Basis Set:
  @DF-RHF Final Energy:  -387.11250565866283
    Total Energy =                       -387.1125056586624851
  @DF-RHF Final Energy:  -387.11268051996399
    Total Energy =                       -387.1126805199634191
  @DF-RHF Final Energy:  -387.11263463418328
    Total Energy =                       -387.1126346341832232
  @DF-RHF Final Energy:  -387.11278449508927
    Total Energy =                       -387.1127844950888175
  Basis Set: 6-31G*
  Basis Set:
  @DF-RHF Final Energy:  -387.11277200750345
    Total Energy =                       -387.1127720075030538
  Basis Set: 6-31G*
  Basis Set:
  Basis Set: 6-31G*
  Basis Set:
  @DF-RHF Final Energy:  -387.11281486351947
    Total Energy =                       -387.1128148635193611
  Basis Set: 6-31G*
  Basis Set:
  Basis Set: 6-31G*
  Basis Set:
  @DF-RHF Final Energy:  -387.11282218777484
    Total Energy =                       -387.1128221877754640
  Basis Set: 6-31G*
  Basis Set:
  Charge       = 0
  Multiplicity = 1
  Basis Set: 6-31G*
  Basis Set:

    Orbital Energies (a.u.)
    -----------------------

    Doubly Occupied:

       1A    -20.560592     2A    -11.326757     3A    -11.235704
       4A    -11.235091     5A    -11.224393     6A    -11.217481
       7A    -11.215695     8A    -11.214344     9A    -11.205447
      10A     -1.401580    11A     -1.100565    12A     -1.065591
      13A     -1.008553    14A     -0.943417    15A     -0.881184
      16A     -0.813998    17A     -0.787218    18A     -0.776393
      19A     -0.660674    20A     -0.658637    21A     -0.630988
      22A     -0.627750    23A     -0.606006    24A     -0.592489
      25A     -0.563473    26A     -0.551758    27A     -0.537471
      28A     -0.526946    29A     -0.508684    30A     -0.500848
      31A     -0.477702    32A     -0.470874    33A     -0.459909
      34A     -0.453285    35A     -0.442233    36A     -0.408969

  @DF-RHF Final Energy:  -387.11282303683197

   => Energetics <=

    Nuclear Repulsion Energy =            456.9721607352316823
    One-Electron Energy =               -1430.3845682732585374
    Two-Electron Energy =                 586.2995845011952269
    DFT Exchange-Correlation Energy =       0.0000000000000000
    Empirical Dispersion Energy =           0.0000000000000000
    PCM Polarization Energy =               0.0000000000000000
    EFP Energy =                            0.0000000000000000
    Total Energy =                       -387.1128230368316281
    Molecular point group: c1
  Basis Set: 6-31G*
  Basis Set:

  -Total Gradient:
     Atom            X                  Y                   Z
    ------   -----------------  -----------------  -----------------
       1       -0.000002180413     0.000006963716    -0.000000621447
       2        0.000043307335     0.000006829420     0.000054307718
       3        0.001581735837     0.002388061278    -0.002344880251
       4       -0.000011815644     0.000014337061    -0.000026899170
       5       -0.001518990063    -0.002758705741     0.003419524335
       6       -0.000012919208     0.000020914012    -0.000007981768
       7       -0.000017471389    -0.000004295677     0.000006616753
       8       -0.003577759383    -0.002958344961    -0.000951594236
       9        0.000011430050    -0.000016889684    -0.000017020851
      10       -0.000013074033    -0.000011574170    -0.000021850373
      11       -0.000000959458     0.000007554578    -0.000005854751
      12        0.003514694786     0.003368873254    -0.000128314903
      13        0.000027788842    -0.000014014454     0.000001656638
      14       -0.000001735806    -0.000042795959     0.000037875087
      15       -0.000030506335    -0.000018229803     0.000010254749
      16        0.000019445002     0.000011258442     0.000008578135
      17       -0.000009743615    -0.000010718774    -0.000038875322
      18        0.000012124072     0.000018828775     0.000027906092
      19        0.000010745768    -0.000014451991    -0.000011021568
      20        0.000001286695     0.000010747842     0.000011639422
      21       -0.000007997393    -0.000010390239     0.000000229536
      22       -0.000007222193     0.000002607078    -0.000017758776
      23        0.000010061874    -0.000004284933    -0.000000925146
      24       -0.000016393922     0.000002351694    -0.000009677084
      25       -0.000003851403     0.000005369229     0.000004687178

  **** Optimization is complete! (in 12 steps) ****
    Final optimized geometry and variables:
    Molecular point group: c1

    Geometry (in Angstrom), charge = 0, multiplicity = 1:

    H           -1.108815676747     2.593728689488    -0.390015197751
    C           -0.995032049694     2.120949449781     0.593543054565
    C           -2.021388895387     1.064576487351     0.919784035025
    O           -0.133913285783     2.475617036732     1.331211757327
    C           -2.395425249148     0.146246844763    -0.254353588121
    H           -1.689232779869     0.519351456975     1.794866500342
    H           -2.917870116346     1.612169494256     1.211891528812
    C           -1.374541424430    -0.942318279069    -0.677960633418
    H           -3.337289623101    -0.335287230899    -0.015788736367
    H           -2.608068450306     0.783898703953    -1.110131093035
    C            0.080738100925    -0.741943409105    -0.235304551752
    H           -1.366766810870    -0.991583749752    -1.763292711357
    H           -1.713194397704    -1.909759395029    -0.319163631129
    C            0.984105151558    -1.879816159994    -0.720149081440
    H            0.453637606035     0.202083703779    -0.621426621133
    H            0.144857193743    -0.677387744689     0.847509155130
    C            2.434622063173    -1.792606145040    -0.232105019290
    H            0.973461488605    -1.909972412162    -1.808665754550
    H            0.563779954419    -2.826569517790    -0.386636042262
    C            3.210157773596    -0.582218023686    -0.755309142278
    H            2.952979172758    -2.698901265088    -0.535754669962
    H            2.447262065620    -1.785765116553     0.855678835556
    H            3.197555956633    -0.550153249331    -1.841780808471
    H            2.799103331570     0.352551261860    -0.389577340396
    H            4.247924210045    -0.625601355595    -0.439636734404

  Mulliken Charges: (a.u.)
   Center  Symbol    Alpha    Beta     Spin     Total
       1     H     0.43195  0.43195  0.00000  0.13610
       2     C     2.82870  2.82870  0.00000  0.34261
       3     C     3.21144  3.21144  0.00000 -0.42288
       4     O     4.24169  4.24169  0.00000 -0.48338
       5     C     3.16861  3.16861  0.00000 -0.33722
       6     H     0.39821  0.39821  0.00000  0.20358
       7     H     0.40389  0.40389  0.00000  0.19222
       8     C     3.15309  3.15309  0.00000 -0.30618
       9     H     0.41090  0.41090  0.00000  0.17819
      10     H     0.41935  0.41935  0.00000  0.16131
      11     C     3.16507  3.16507  0.00000 -0.33013
      12     H     0.41874  0.41874  0.00000  0.16252
      13     H     0.41849  0.41849  0.00000  0.16303
      14     C     3.15210  3.15210  0.00000 -0.30420
      15     H     0.41912  0.41912  0.00000  0.16176
      16     H     0.41620  0.41620  0.00000  0.16760
      17     C     3.15219  3.15219  0.00000 -0.30438
      18     H     0.42451  0.42451  0.00000  0.15099
      19     H     0.42248  0.42248  0.00000  0.15504
      20     C     3.24323  3.24323  0.00000 -0.48646
      21     H     0.42133  0.42133  0.00000  0.15733
      22     H     0.42153  0.42153  0.00000  0.15694
      23     H     0.42386  0.42386  0.00000  0.15229
      24     H     0.41468  0.41468  0.00000  0.17063
      25     H     0.41865  0.41865  0.00000  0.16269

   Total alpha = 36.00000, Total beta = 36.00000, Total charge =  0.00000
