                              Psi4 1.0.54 Driver

  ==> Input File <==

--------------------------------------------------------------------------
set {
	reference rhf
	basis cc-pvtz
}

set_num_threads( 4 )
memory 2 gb

molecule MOL {
0 1

H	 -3.034039	 -0.667848	 0.004703
O	 -2.240597	 -1.171748	 0.000934
C	 -1.159675	 -0.364500	 0.000370
C	 -1.012555	 0.676151	 0.894693
C	 -0.179689	 -0.616564	 -0.947335
H	 -1.771927	 0.874567	 1.628890
C	 0.124951	 1.462306	 0.829368
H	 -0.325756	 -1.431759	 -1.629286
C	 0.955074	 0.166905	 -1.009518
H	 0.241590	 2.274750	 1.521541
C	 1.101603	 1.217688	 -0.109311
C	 2.031903	 -0.121914	 -2.024737
H	 1.976438	 1.838674	 -0.148034
H	 2.392163	 0.792268	 -2.480045
H	 1.669259	 -0.771008	 -2.810174
H	 2.879257	 -0.609363	 -1.554600

	symmetry c1
}
set optking {
	frozen_dihedral = ("
		5 3 2 1
	")
}

ee,wfn = optimize('scf', return_wfn=True)
oeprop( wfn, 'DIPOLE', 'QUADRUPOLE', 'MULLIKEN_CHARGES')
f=open( 'psi4out.xyz', 'w' )
f.write( "16  " )
f.write( str(ee) + "\n" )
f.write( MOL.save_string_xyz() )
f.close()
--------------------------------------------------------------------------

    Molecular point group: c1
  Charge       = 0
  Multiplicity = 1
  Basis Set: CC-PVTZ
  Basis Set:
  @DF-RHF Final Energy:  -344.71772326952737
    Total Energy =                       -344.7177232695274256
    Molecular point group: c1
  Basis Set: CC-PVTZ
  Basis Set:
  Basis Set: CC-PVTZ
  Basis Set:
  @DF-RHF Final Energy:  -344.71792805903118
    Total Energy =                       -344.7179280590313510
  Basis Set: CC-PVTZ
  Basis Set:
  Basis Set: CC-PVTZ
  Basis Set:
  @DF-RHF Final Energy:  -344.71795398577780
    Total Energy =                       -344.7179539857773989
  Basis Set: CC-PVTZ
  Basis Set:
  Basis Set: CC-PVTZ
  Basis Set:
  @DF-RHF Final Energy:  -344.71795725466262
    Total Energy =                       -344.7179572546623376
  Basis Set: CC-PVTZ
  Basis Set:
  @DF-RHF Final Energy:  -344.71795857225658
    Total Energy =                       -344.7179585722563502
  @DF-RHF Final Energy:  -344.71796049639983
    Total Energy =                       -344.7179604963997690
  @DF-RHF Final Energy:  -344.71796283385942
    Total Energy =                       -344.7179628338598718
  @DF-RHF Final Energy:  -344.71793484670343
    Total Energy =                       -344.7179348467035425
  @DF-RHF Final Energy:  -344.71797219268370
    Total Energy =                       -344.7179721926835327
  @DF-RHF Final Energy:  -344.71725750773845
    Total Energy =                       -344.7172575077385090
  @DF-RHF Final Energy:  -344.71797826098890
    Total Energy =                       -344.7179782609889571
  @DF-RHF Final Energy:  -344.71798494309070
    Total Energy =                       -344.7179849430906984
  Basis Set: CC-PVTZ
  Basis Set:
  @DF-RHF Final Energy:  -344.71798740183721
    Total Energy =                       -344.7179874018371493
  Basis Set: CC-PVTZ
  Basis Set:
  Basis Set: CC-PVTZ
  Basis Set:
  @DF-RHF Final Energy:  -344.71798809957613
    Total Energy =                       -344.7179880995759049
  Basis Set: CC-PVTZ
  Basis Set:
  Basis Set: CC-PVTZ
  Basis Set:
  @DF-RHF Final Energy:  -344.71798919843854
    Total Energy =                       -344.7179891984386586
  Basis Set: CC-PVTZ
  Basis Set:
  Charge       = 0
  Multiplicity = 1
  Basis Set: CC-PVTZ
  Basis Set:

    Orbital Energies (a.u.)
    -----------------------

    Doubly Occupied:

       1A    -20.574369     2A    -11.290047     3A    -11.240262
       4A    -11.231990     5A    -11.220387     6A    -11.219695
       7A    -11.216731     8A    -11.215734     9A     -1.402726
      10A     -1.154658    11A     -1.046567    12A     -1.008069
      13A     -0.938694    14A     -0.828119    15A     -0.819544
      16A     -0.718561    17A     -0.681768    18A     -0.659237
      19A     -0.620105    20A     -0.594300    21A     -0.576568
      22A     -0.571094    23A     -0.555163    24A     -0.521611
      25A     -0.507673    26A     -0.485224    27A     -0.469843
      28A     -0.332470    29A     -0.318590

  @DF-RHF Final Energy:  -344.71798920488300

   => Energetics <=

    Nuclear Repulsion Energy =            346.0659204083530085
    One-Electron Energy =               -1153.5282196865080095
    Two-Electron Energy =                 462.7443100732720040
    DFT Exchange-Correlation Energy =       0.0000000000000000
    Empirical Dispersion Energy =           0.0000000000000000
    PCM Polarization Energy =               0.0000000000000000
    EFP Energy =                            0.0000000000000000
    Total Energy =                       -344.7179892048829970
    Molecular point group: c1
  Basis Set: CC-PVTZ
  Basis Set:

  -Total Gradient:
     Atom            X                  Y                   Z
    ------   -----------------  -----------------  -----------------
       1       -0.000087359273    -0.000110193750    -0.002666318167
       2       -0.000338404511     0.000634444572     0.002739875424
       3        0.001346012740    -0.001565691998     0.001132305010
       4        0.000016225436    -0.000036662380     0.000029111778
       5       -0.000936560802     0.001075702008    -0.001234262710
       6        0.000000817847     0.000000780019    -0.000000120836
       7        0.000008373804    -0.000000554182    -0.000002995142
       8       -0.000000921960     0.000001473262     0.000000838859
       9       -0.000006389281    -0.000000378351    -0.000005630121
      10       -0.000000488325     0.000000134822     0.000000059855
      11       -0.000002228445     0.000003802474     0.000008221782
      12        0.000002890868     0.000003033196    -0.000003735205
      13       -0.000001168956     0.000000052103    -0.000001889102
      14       -0.000002689971    -0.000002944678     0.000002083440
      15        0.000001329571    -0.000000883824     0.000001325542
      16        0.000000561258    -0.000002113296     0.000001129590

  **** Optimization is complete! (in 16 steps) ****
    Final optimized geometry and variables:
    Molecular point group: c1

    Geometry (in Angstrom), charge = 0, multiplicity = 1:

    H           -2.916340105237    -0.875253978786     0.410519879705
    O           -2.108066580910    -1.355870763756     0.404291845003
    C           -1.046719597651    -0.507028025558     0.334895479296
    C           -0.925845597337     0.564142539791     1.201848441660
    C           -0.078781728065    -0.747062961683    -0.618251929101
    H           -1.678873151188     0.739122488438     1.946832480249
    C            0.175686266887     1.388205206885     1.098286983521
    H           -0.207347916115    -1.581893252996    -1.280415803315
    C            1.037592572732     0.070096617345    -0.713528301089
    H            0.275392926621     2.223931269112     1.764799646874
    C            1.153429965352     1.146026272523     0.151562626156
    C            2.105990350195    -0.223721780650    -1.736388959960
    H            2.005583316968     1.795554174936     0.087204271702
    H            2.727481586200     0.643616811723    -1.914551789381
    H            1.670975655051    -0.527662741367    -2.680260263755
    H            2.749047902338    -1.029135423878    -1.397860250275

  Mulliken Charges: (a.u.)
   Center  Symbol    Alpha    Beta     Spin     Total
       1     H     0.38588  0.38588  0.00000  0.22825
       2     O     4.18649  4.18649  0.00000 -0.37299
       3     C     2.85417  2.85417  0.00000  0.29166
       4     C     3.13619  3.13619  0.00000 -0.27238
       5     C     3.13475  3.13475  0.00000 -0.26951
       6     H     0.42438  0.42438  0.00000  0.15124
       7     C     3.05848  3.05848  0.00000 -0.11696
       8     H     0.42049  0.42049  0.00000  0.15903
       9     C     2.94054  2.94054  0.00000  0.11892
      10     H     0.42276  0.42276  0.00000  0.15447
      11     C     3.11701  3.11701  0.00000 -0.23401
      12     C     3.14612  3.14612  0.00000 -0.29223
      13     H     0.42671  0.42671  0.00000  0.14657
      14     H     0.45060  0.45060  0.00000  0.09880
      15     H     0.44881  0.44881  0.00000  0.10237
      16     H     0.44662  0.44662  0.00000  0.10676

   Total alpha = 29.00000, Total beta = 29.00000, Total charge =  0.00000

*** Psi4 exiting successfully. Buy a developer a beer!
