  ==> Input File <==

--------------------------------------------------------------------------
set {
	reference rhf
	basis 6-31G*
}

set_num_threads( 4 )
memory 2 gb

molecule MOL {
0 1

O	 0.927817	 1.762803	 -0.483138
C	 0.271565	 1.473315	 -1.431069
C	 -1.004083	 0.667198	 -1.402964
O	 0.586189	 1.832059	 -2.669330
C	 -1.412532	 0.227344	 -0.000452
H	 -1.779402	 1.270095	 -1.867883
H	 -0.862256	 -0.188019	 -2.058132
C	 -2.706999	 -0.587347	 -0.000541
H	 -1.528962	 1.103278	 0.630174
H	 -0.610237	 -0.356563	 0.439864
C	 -3.956778	 0.291888	 0.000910
H	 -2.726114	 -1.239230	 -0.871609
H	 -2.725217	 -1.240844	 0.869333
H	 -3.985213	 0.933254	 -0.875158
H	 -4.860123	 -0.309979	 0.000519
H	 -3.984618	 0.931166	 0.878514
C	 1.766419	 2.596373	 -2.836723
H	 1.695647	 3.528411	 -2.294704
H	 1.848135	 2.784977	 -3.895826
H	 2.628135	 2.046458	 -2.486655

	symmetry c1
}
set optking {
	frozen_dihedral = ("
		9 5 8 12
	")
}

ee = optimize('scf')
oeprop('DIPOLE', 'QUADRUPOLE', 'MULLIKEN_CHARGES')
f=open( 'psi4out.xyz', 'w' )
f.write( "20  " )
f.write( str(ee) + "\n" )
f.write( MOL.save_string_xyz() )
f.close()
--------------------------------------------------------------------------

    Molecular point group: c1
  Charge       = 0
  Multiplicity = 1
  Basis Set: 6-31G*
  Basis Set:
  @DF-RHF Final Energy:  -383.93883347634835
    Total Energy =                       -383.9388334763482362
    Molecular point group: c1
  Basis Set: 6-31G*
  Basis Set:
  Basis Set: 6-31G*
  Basis Set:
  @DF-RHF Final Energy:  -383.93898755244805
    Total Energy =                       -383.9389875524479976
  Basis Set: 6-31G*
  Basis Set:
  Basis Set: 6-31G*
  Basis Set:
  @DF-RHF Final Energy:  -383.93883436851615
    Total Energy =                       -383.9388343685160407
  Basis Set: 6-31G*
  Basis Set:
  Basis Set: 6-31G*
  Basis Set:
  @DF-RHF Final Energy:  -383.93903156020713
    Total Energy =                       -383.9390315602071269
  Basis Set: 6-31G*
  Basis Set:
  Basis Set: 6-31G*
  Basis Set:
  @DF-RHF Final Energy:  -383.93903436685673
    Total Energy =                       -383.9390343668569585
  Basis Set: 6-31G*
  Basis Set:
  Charge       = 0
  Multiplicity = 1
  Basis Set: 6-31G*
  Basis Set:

    Orbital Energies (a.u.)
    -----------------------

    Doubly Occupied:

       1A    -20.603705     2A    -20.545561     3A    -11.372325
       4A    -11.280909     5A    -11.235532     6A    -11.220482
       7A    -11.219506     8A    -11.212350     9A     -1.469399
      10A     -1.362857    11A     -1.088442    12A     -1.022769
      13A     -0.968071    14A     -0.891423    15A     -0.801538
      16A     -0.765890    17A     -0.701057    18A     -0.682817
      19A     -0.672313    20A     -0.632748    21A     -0.612702
      22A     -0.595272    23A     -0.570937    24A     -0.547398
      25A     -0.528789    26A     -0.523221    27A     -0.510974
      28A     -0.474094    29A     -0.473528    30A     -0.466939
      31A     -0.455725    32A     -0.437330

  @DF-RHF Final Energy:  -383.93903448050634

   => Energetics <=

    Nuclear Repulsion Energy =            384.2146542674879015
    One-Electron Energy =               -1284.4141771892645920
    Two-Electron Energy =                 516.2604884412705815
    DFT Exchange-Correlation Energy =       0.0000000000000000
    Empirical Dispersion Energy =           0.0000000000000000
    PCM Polarization Energy =               0.0000000000000000
    EFP Energy =                            0.0000000000000000
    Total Energy =                       -383.9390344805060522
    Molecular point group: c1
  Basis Set: 6-31G*
  Basis Set:

  -Total Gradient:
     Atom            X                  Y                   Z
    ------   -----------------  -----------------  -----------------
       1        0.000009717996     0.000002665695     0.000005322078
       2       -0.000012513719     0.000008825950    -0.000003040187
       3       -0.000006272731    -0.000004344990    -0.000004662235
       4        0.000002677793    -0.000003161126     0.000004172075
       5        0.000849422635    -0.001338870650     0.002420978956
       6        0.000007377009    -0.000001345541    -0.000005822052
       7       -0.000001613017    -0.000001930616    -0.000003298646
       8        0.001300596766    -0.002169968457     0.001292003706
       9       -0.000912091911     0.001461856907    -0.002206744068
      10       -0.000009757537     0.000001122725    -0.000017749119
      11        0.000008561071    -0.000002866137     0.000015836173
      12       -0.001221041774     0.002023287963    -0.001484156546
      13       -0.000009050370     0.000021569306    -0.000008745855
      14       -0.000010494276    -0.000005109668    -0.000000019290
      15       -0.000005882974    -0.000005894923     0.000006456257
      16        0.000007749633     0.000012624014    -0.000008411314
      17        0.000003987556     0.000001265659    -0.000002060322
      18       -0.000000624278    -0.000000373305     0.000000169298
      19       -0.000000037096     0.000000260932    -0.000000031731
      20       -0.000000710770     0.000000386260    -0.000000197176

  **** Optimization is complete! (in 6 steps) ****
    Final optimized geometry and variables:
    Molecular point group: c1

    Geometry (in Angstrom), charge = 0, multiplicity = 1:

    O            1.588105774163     0.713247442783     0.638158746518
    C            0.938378363834     0.415035233552    -0.311620708922
    C           -0.329858447167    -0.402977555357    -0.286988690319
    O            1.255303122700     0.773040007767    -1.549626975644
    C           -0.734432922791    -0.848779518206     1.117604582445
    H           -1.105710379842     0.193025276835    -0.758381633149
    H           -0.176171686429    -1.257900022706    -0.939723985097
    C           -2.048504123405    -1.644178366977     1.129317192442
    H           -0.833018439643     0.033358405815     1.741937568622
    H            0.068577222888    -1.442048491693     1.540128928312
    C           -3.297123097126    -0.758561263710     1.120336238267
    H           -2.085199769783    -2.302869276649     0.264231502582
    H           -2.076023909010    -2.280179535873     2.008914180545
    H           -3.330220545974    -0.116404117904     0.244957077036
    H           -4.200948891456    -1.359913886643     1.116577745858
    H           -3.327480579372    -0.120145709097     1.998418759660
    C            2.429717095305     1.546852204222    -1.714132302735
    H            2.348907574408     2.479642223275    -1.174799225094
    H            2.514188827979     1.733466861777    -2.773378858133
    H            3.294604883113     1.005116424767    -1.359164890076

  Mulliken Charges: (a.u.)
   Center  Symbol    Alpha    Beta     Spin     Total
       1     O     4.28589  4.28589  0.00000 -0.57179
       2     C     2.60556  2.60556  0.00000  0.78889
       3     C     3.20909  3.20909  0.00000 -0.41818
       4     O     4.30718  4.30718  0.00000 -0.61437
       5     C     3.15364  3.15364  0.00000 -0.30729
       6     H     0.40013  0.40013  0.00000  0.19974
       7     H     0.40069  0.40069  0.00000  0.19863
       8     C     3.15734  3.15734  0.00000 -0.31469
       9     H     0.41099  0.41099  0.00000  0.17801
      10     H     0.40982  0.40982  0.00000  0.18036
      11     C     3.24087  3.24087  0.00000 -0.48173
      12     H     0.42312  0.42312  0.00000  0.15376
      13     H     0.41646  0.41646  0.00000  0.16707
      14     H     0.42276  0.42276  0.00000  0.15448
      15     H     0.41815  0.41815  0.00000  0.16370
      16     H     0.41931  0.41931  0.00000  0.16138
      17     C     3.09243  3.09243  0.00000 -0.18486
      18     H     0.40906  0.40906  0.00000  0.18188
      19     H     0.40844  0.40844  0.00000  0.18312
      20     H     0.40906  0.40906  0.00000  0.18188

   Total alpha = 32.00000, Total beta = 32.00000, Total charge =  0.00000
