  ==> Input File <==

--------------------------------------------------------------------------
set {
	reference rhf
	basis 6-31G*
}

set_num_threads( 4 )
memory 2 gb

molecule MOL {
0 1

H	 2.866480	 -0.465706	 0.876907
C	 2.405773	 -0.024801	 0.000000
N	 0.988830	 -0.304158	 0.000000
H	 2.866480	 -0.465706	 -0.876907
H	 2.629928	 1.045948	 0.000000
C	 0.701509	 -1.707420	 0.232960
C	 0.333578	 0.158784	 -1.209255
H	 1.126983	 -2.341214	 -0.551753
H	 1.145106	 -2.008426	 1.176815
C	 -0.802228	 -1.921480	 0.287209
H	 0.507760	 1.224297	 -1.321455
H	 0.732242	 -0.339021	 -2.099062
C	 -1.160402	 -0.104766	 -1.116760
H	 -1.036469	 -2.974604	 0.371340
H	 -1.213464	 -1.404048	 1.152148
O	 -1.415954	 -1.461396	 -0.883951
H	 -1.652991	 0.152493	 -2.045303
H	 -1.588489	 0.498140	 -0.317876

	symmetry c1
}
set optking {
	frozen_dihedral = ("
		6 3 2 5
	")
}

ee = optimize('scf')
oeprop('DIPOLE', 'QUADRUPOLE', 'MULLIKEN_CHARGES')
f=open( 'psi4out.xyz', 'w' )
f.write( "18  " )
f.write( str(ee) + "\n" )
f.write( MOL.save_string_xyz() )
f.close()
--------------------------------------------------------------------------

    Molecular point group: c1
  Charge       = 0
  Multiplicity = 1
  Basis Set: 6-31G*
  Basis Set:
  @DF-RHF Final Energy:  -325.02763295120423
    Total Energy =                       -325.0276329512039979
    Molecular point group: c1
  Basis Set: 6-31G*
  Basis Set:
  Basis Set: 6-31G*
  Basis Set:
  @DF-RHF Final Energy:  -325.02840304067308
    Total Energy =                       -325.0284030406731972
  Basis Set: 6-31G*
  Basis Set:
  Basis Set: 6-31G*
  Basis Set:
  @DF-RHF Final Energy:  -325.02851246876304
    Total Energy =                       -325.0285124687628695
  Basis Set: 6-31G*
  Basis Set:
  Charge       = 0
  Multiplicity = 1
  Basis Set: 6-31G*
  Basis Set:

    Orbital Energies (a.u.)
    -----------------------

    Doubly Occupied:

       1A    -20.554062     2A    -15.548975     3A    -11.266268
       4A    -11.266237     5A    -11.244166     6A    -11.244074
       7A    -11.241058     8A     -1.383411     9A     -1.232195
      10A     -1.038645    11A     -0.981331    12A     -0.883071
      13A     -0.868933    14A     -0.774363    15A     -0.683555
      16A     -0.645758    17A     -0.643466    18A     -0.634200
      19A     -0.628915    20A     -0.571695    21A     -0.557112
      22A     -0.540977    23A     -0.527175    24A     -0.501964
      25A     -0.484458    26A     -0.452452    27A     -0.408018
      28A     -0.352417

  @DF-RHF Final Energy:  -325.02851343062088

   => Energetics <=

    Nuclear Repulsion Energy =            341.4674375531313331
    One-Electron Energy =               -1118.6739987597181880
    Two-Electron Energy =                 452.1780477759659220
    DFT Exchange-Correlation Energy =       0.0000000000000000
    Empirical Dispersion Energy =           0.0000000000000000
    PCM Polarization Energy =               0.0000000000000000
    EFP Energy =                            0.0000000000000000
    Total Energy =                       -325.0285134306209898
    Molecular point group: c1
  Basis Set: 6-31G*
  Basis Set:

  -Total Gradient:
     Atom            X                  Y                   Z
    ------   -----------------  -----------------  -----------------
       1       -0.000054819954    -0.000017667893     0.000012605834
       2        0.000001158173     0.000018276366    -0.001459473830
       3        0.000000958774    -0.000249317197    -0.001078759272
       4       -0.000022297354    -0.000011353624    -0.000004720033
       5       -0.000057748045     0.000002305907     0.001470791409
       6        0.000060729425     0.000084162887     0.001075924556
       7        0.000034271541     0.000015075100    -0.000029552129
       8       -0.000002615937     0.000027091593     0.000001274484
       9        0.000018556752     0.000011724513     0.000012546242
      10        0.000019691512     0.000140395247    -0.000013685290
      11        0.000001975530     0.000006578960    -0.000001736977
      12       -0.000014381299     0.000000684185     0.000017591066
      13        0.000019331578    -0.000023322595     0.000002051504
      14        0.000043682046     0.000013515460    -0.000000364837
      15       -0.000016100949    -0.000006913544     0.000020681007
      16       -0.000034100793    -0.000011089451    -0.000021693154
      17        0.000000149443     0.000001740410    -0.000003338444
      18        0.000001559560    -0.000001886327    -0.000000142136

  **** Optimization is complete! (in 4 steps) ****
    Final optimized geometry and variables:
    Molecular point group: c1

    Geometry (in Angstrom), charge = 0, multiplicity = 1:

    H            2.707733542998     0.345326373087     1.287357798544
    C            2.258075860819     0.740093968106     0.383206541012
    N            0.841961981342     0.457352551813     0.383018176067
    H            2.782533983454     0.307160260122    -0.473270541314
    H            2.418654054876     1.812684730075     0.379827106132
    C            0.548248618520    -0.943575304777     0.619606150149
    C            0.182097625974     0.930179435984    -0.818920168834
    H            0.965916141859    -1.583052492501    -0.164738423959
    H            0.992896105077    -1.244293668599     1.562833300450
    C           -0.956769313010    -1.147088452544     0.680229974372
    H            0.361981642634     1.995360727020    -0.926227724171
    H            0.573341528254     0.435238132684    -1.713550667113
    C           -1.312658254885     0.673794679169    -0.719705630697
    H           -1.198169697147    -2.198485861871     0.765922232543
    H           -1.360177080048    -0.626232314998     1.546751415692
    O           -1.572792313967    -0.682231953718    -0.487956609481
    H           -1.809091085006     0.935501386369    -1.644994181906
    H           -1.733723229973     1.276450470000     0.082979599015

  Mulliken Charges: (a.u.)
   Center  Symbol    Alpha    Beta     Spin     Total
       1     H     0.41663  0.41663  0.00000  0.16674
       2     C     3.13983  3.13983  0.00000 -0.27966
       3     N     3.78868  3.78868  0.00000 -0.57737
       4     H     0.43211  0.43211  0.00000  0.13579
       5     H     0.41547  0.41547  0.00000  0.16906
       6     C     3.06742  3.06742  0.00000 -0.13483
       7     C     3.06746  3.06746  0.00000 -0.13491
       8     H     0.42847  0.42847  0.00000  0.14305
       9     H     0.41685  0.41685  0.00000  0.16631
      10     C     2.99777  2.99777  0.00000  0.00445
      11     H     0.41687  0.41687  0.00000  0.16625
      12     H     0.42828  0.42828  0.00000  0.14343
      13     C     2.99764  2.99764  0.00000  0.00472
      14     H     0.41326  0.41326  0.00000  0.17348
      15     H     0.42398  0.42398  0.00000  0.15204
      16     O     4.31204  4.31204  0.00000 -0.62409
      17     H     0.41324  0.41324  0.00000  0.17352
      18     H     0.42398  0.42398  0.00000  0.15203

   Total alpha = 28.00000, Total beta = 28.00000, Total charge = -0.00000
