                              Psi4 1.0.54 Driver

  ==> Input File <==

--------------------------------------------------------------------------
set {
	reference rhf
	basis cc-pvtz
}

set_num_threads( 4 )
memory 2 gb

molecule MOL {
0 1

H	 3.732902	 -0.035222	 0.806099
O	 2.835823	 -0.215244	 1.043871
C	 2.076458	 -0.067370	 -0.038225
C	 0.626018	 -0.337582	 0.258241
O	 2.529356	 0.240442	 -1.086069
C	 -0.267326	 0.883135	 0.076490
H	 0.325620	 -1.161483	 -0.378003
H	 0.574537	 -0.713685	 1.275261
C	 -1.726822	 0.642622	 0.463839
H	 -0.210803	 1.217591	 -0.953497
H	 0.129920	 1.693110	 0.675679
C	 -2.480891	 -0.340606	 -0.429852
H	 -2.243098	 1.597649	 0.438609
H	 -1.776542	 0.301208	 1.495542
C	 -3.955933	 -0.460128	 -0.060472
H	 -2.393755	 -0.020485	 -1.464726
H	 -2.024244	 -1.323637	 -0.374360
H	 -4.467673	 -1.160944	 -0.709827
H	 -4.458917	 0.497287	 -0.144505
H	 -4.076458	 -0.806900	 0.960497

	symmetry c1
}
set optking {
	frozen_dihedral = ("
		5 3 4 7
	")
}

ee,wfn = optimize('scf', return_wfn=True)
oeprop( wfn, 'DIPOLE', 'QUADRUPOLE', 'MULLIKEN_CHARGES')
f=open( 'psi4out.xyz', 'w' )
f.write( "20  " )
f.write( str(ee) + "\n" )
f.write( MOL.save_string_xyz() )
f.close()
--------------------------------------------------------------------------

    Molecular point group: c1
  Charge       = 0
  Multiplicity = 1
  Basis Set: CC-PVTZ
  Basis Set:
  @DF-RHF Final Energy:  -384.09263873003562
    Total Energy =                       -384.0926387300353326
    Molecular point group: c1
  Basis Set: CC-PVTZ
  Basis Set:
  Basis Set: CC-PVTZ
  Basis Set:
  @DF-RHF Final Energy:  -384.09331858951271
    Total Energy =                       -384.0933185895127053
  Basis Set: CC-PVTZ
  Basis Set:
  Basis Set: CC-PVTZ
  Basis Set:
  @DF-RHF Final Energy:  -384.09332825781132
    Total Energy =                       -384.0933282578109811
  Basis Set: CC-PVTZ
  Basis Set:
  Basis Set: CC-PVTZ
  Basis Set:
  @DF-RHF Final Energy:  -384.09339372390474
    Total Energy =                       -384.0933937239047964
  Basis Set: CC-PVTZ
  Basis Set:
  Basis Set: CC-PVTZ
  Basis Set:
  @DF-RHF Final Energy:  -384.09341784003027
    Total Energy =                       -384.0934178400303836
  Basis Set: CC-PVTZ
  Basis Set:
  Basis Set: CC-PVTZ
  Basis Set:
  @DF-RHF Final Energy:  -384.09341986606682
    Total Energy =                       -384.0934198660665970
  Basis Set: CC-PVTZ
  Basis Set:
  Charge       = 0
  Multiplicity = 1
  Basis Set: CC-PVTZ
  Basis Set:

    Orbital Energies (a.u.)
    -----------------------

    Doubly Occupied:

       1A    -20.605990     2A    -20.537244     3A    -11.372768
       4A    -11.237008     5A    -11.227968     6A    -11.220800
       7A    -11.219001     8A    -11.211082     9A     -1.477676
      10A     -1.367668    11A     -1.099130    12A     -1.042311
      13A     -0.961815    14A     -0.868356    15A     -0.822462
      16A     -0.784152    17A     -0.705233    18A     -0.691368
      19A     -0.655044    20A     -0.633190    21A     -0.617980
      22A     -0.596170    23A     -0.578671    24A     -0.557322
      25A     -0.540036    26A     -0.518928    27A     -0.496802
      28A     -0.486315    29A     -0.472263    30A     -0.469725
      31A     -0.459478    32A     -0.440818

  @DF-RHF Final Energy:  -384.09341989867357

   => Energetics <=

    Nuclear Repulsion Energy =            376.8314491472440295
    One-Electron Energy =               -1269.9001922480820213
    Two-Electron Energy =                 508.9753232021646454
    DFT Exchange-Correlation Energy =       0.0000000000000000
    Empirical Dispersion Energy =           0.0000000000000000
    PCM Polarization Energy =               0.0000000000000000
    EFP Energy =                            0.0000000000000000
    Total Energy =                       -384.0934198986733463
    Molecular point group: c1
  Basis Set: CC-PVTZ
  Basis Set:

  -Total Gradient:
     Atom            X                  Y                   Z
    ------   -----------------  -----------------  -----------------
       1       -0.000024891183    -0.000003310386    -0.000007170378
       2       -0.000009949371    -0.000003047117     0.000025113827
       3       -0.000009095688     0.000258223165    -0.000002420508
       4        0.000073598716    -0.000197841519     0.000101889500
       5       -0.000006878206    -0.000164604853    -0.000019898104
       6        0.000014049741     0.000017843041     0.000018307786
       7       -0.000053905514     0.000093416914    -0.000103941521
       8        0.000005027210     0.000000216064    -0.000004023234
       9       -0.000003997311     0.000006688456    -0.000009873213
      10       -0.000001120205    -0.000000331057     0.000004695497
      11       -0.000000258463     0.000002318928    -0.000002875443
      12        0.000004871135     0.000002878708    -0.000002171381
      13        0.000000731662     0.000000138330     0.000000061648
      14        0.000001360660     0.000001535481    -0.000001910240
      15       -0.000001743792    -0.000003632671     0.000001944718
      16       -0.000001399098     0.000000158319     0.000003681614
      17        0.000012756890    -0.000008996727    -0.000001733524
      18       -0.000000729035    -0.000001200958     0.000001112221
      19        0.000002060069    -0.000000752024    -0.000000619689
      20       -0.000000488210     0.000000299910    -0.000000169577

  **** Optimization is complete! (in 7 steps) ****
    Final optimized geometry and variables:
    Molecular point group: c1

    Geometry (in Angstrom), charge = 0, multiplicity = 1:

    H            3.771645146058    -0.084991076262     0.661416850836
    O            2.894973549315    -0.285469976907     0.954476714347
    C            2.063687233581    -0.112345395293    -0.066934741735
    C            0.627562614301    -0.404035318000     0.280668347355
    O            2.441107994860     0.238318826156    -1.132319168279
    C           -0.253438937336     0.833329460787     0.076699501562
    H            0.311128034856    -1.204218940754    -0.376097784348
    H            0.565671996352    -0.757352550729     1.300406730940
    C           -1.722391070494     0.611727887790     0.437372507554
    H           -0.168700364936     1.157384402576    -0.953596885895
    H            0.136095557855     1.640877523780     0.688794980050
    C           -2.468019301280    -0.368298074608    -0.466556398607
    H           -2.226216852862     1.572968970610     0.395727319490
    H           -1.795592449093     0.277634896517     1.469714853199
    C           -3.950722779600    -0.472160827029    -0.123611759351
    H           -2.357999130208    -0.054322527453    -1.500896478835
    H           -2.021644908060    -1.354971831109    -0.397551183466
    H           -4.455755586861    -1.174238284280    -0.776727418142
    H           -4.444194826158     0.488500944431    -0.225258640556
    H           -4.093442172528    -0.809341989559     0.897730839407

  Mulliken Charges: (a.u.)
   Center  Symbol    Alpha    Beta     Spin     Total
       1     H     0.38066  0.38066  0.00000  0.23868
       2     O     4.15798  4.15798  0.00000 -0.31596
       3     C     2.80775  2.80775  0.00000  0.38450
       4     C     3.09252  3.09252  0.00000 -0.18504
       5     O     4.19926  4.19926  0.00000 -0.39853
       6     C     3.10507  3.10507  0.00000 -0.21015
       7     H     0.44135  0.44135  0.00000  0.11730
       8     H     0.43847  0.43847  0.00000  0.12306
       9     C     3.09775  3.09775  0.00000 -0.19550
      10     H     0.43894  0.43894  0.00000  0.12213
      11     H     0.44387  0.44387  0.00000  0.11225
      12     C     3.08704  3.08704  0.00000 -0.17409
      13     H     0.44618  0.44618  0.00000  0.10764
      14     H     0.45289  0.45289  0.00000  0.09421
      15     C     3.14958  3.14958  0.00000 -0.29916
      16     H     0.45065  0.45065  0.00000  0.09871
      17     H     0.45409  0.45409  0.00000  0.09183
      18     H     0.44732  0.44732  0.00000  0.10537
      19     H     0.45376  0.45376  0.00000  0.09248
      20     H     0.45487  0.45487  0.00000  0.09025

   Total alpha = 32.00000, Total beta = 32.00000, Total charge =  0.00000

*** Psi4 exiting successfully. Buy a developer a beer!
