                              Psi4 1.0.54 Driver

  ==> Input File <==

--------------------------------------------------------------------------
set {
	reference rhf
	basis cc-pvtz
}

set_num_threads( 4 )
memory 2 gb

molecule MOL {
0 1

H	 -2.698799	 -0.000846	 0.036018
C	 -1.694291	 -0.000483	 0.434279
O	 -0.828718	 -0.000608	 -0.655022
H	 -1.576855	 0.881100	 1.056504
H	 -1.576401	 -0.881658	 1.057001
C	 -1.370848	 -0.001135	 -1.952701
C	 -2.163665	 -1.267597	 -2.255661
C	 -2.163945	 1.264922	 -2.256586
H	 -0.493485	 -0.001271	 -2.587409
H	 -1.586287	 -2.145581	 -1.993293
H	 -2.391543	 -1.314041	 -3.314274
H	 -3.103948	 -1.301110	 -1.717769
H	 -1.586743	 2.143229	 -1.994940
H	 -2.391943	 1.310508	 -3.315223
H	 -3.104167	 1.298650	 -1.718640

	symmetry c1
}
set optking {
	frozen_dihedral = ("
		6 3 2 1
	")
}

ee,wfn = optimize('scf', return_wfn=True)
oeprop( wfn, 'DIPOLE', 'QUADRUPOLE', 'MULLIKEN_CHARGES')
f=open( 'psi4out.xyz', 'w' )
f.write( "15  " )
f.write( str(ee) + "\n" )
f.write( MOL.save_string_xyz() )
f.close()
--------------------------------------------------------------------------

    Molecular point group: c1
  Charge       = 0
  Multiplicity = 1
  Basis Set: CC-PVTZ
  Basis Set:
  @DF-RHF Final Energy:  -232.22166427026286
    Total Energy =                       -232.2216642702628633
    Molecular point group: c1
  Basis Set: CC-PVTZ
  Basis Set:
  Basis Set: CC-PVTZ
  Basis Set:
  @DF-RHF Final Energy:  -232.22311069550167
    Total Energy =                       -232.2231106955017026
  Basis Set: CC-PVTZ
  Basis Set:
  Basis Set: CC-PVTZ
  Basis Set:
  @DF-RHF Final Energy:  -232.22381628419799
    Total Energy =                       -232.2238162841978237
  Basis Set: CC-PVTZ
  Basis Set:
  Basis Set: CC-PVTZ
  Basis Set:
  @DF-RHF Final Energy:  -232.22382635842953
    Total Energy =                       -232.2238263584296192
  Basis Set: CC-PVTZ
  Basis Set:
  Charge       = 0
  Multiplicity = 1
  Basis Set: CC-PVTZ
  Basis Set:

    Orbital Energies (a.u.)
    -----------------------

    Doubly Occupied:

       1A    -20.539303     2A    -11.273292     3A    -11.258876
       4A    -11.208586     5A    -11.208570     6A     -1.371099
       7A     -1.051006     8A     -0.940345     9A     -0.931789
      10A     -0.781833    11A     -0.677195    12A     -0.640293
      13A     -0.633664    14A     -0.570223    15A     -0.563649
      16A     -0.552279    17A     -0.538288    18A     -0.501389
      19A     -0.498628    20A     -0.443374    21A     -0.405815

  @DF-RHF Final Energy:  -232.22383179586146

   => Energetics <=

    Nuclear Repulsion Energy =            198.8653167542782683
    One-Electron Energy =                -708.9993094203437067
    Two-Electron Energy =                 277.9101608702038675
    DFT Exchange-Correlation Energy =       0.0000000000000000
    Empirical Dispersion Energy =           0.0000000000000000
    PCM Polarization Energy =               0.0000000000000000
    EFP Energy =                            0.0000000000000000
    Total Energy =                       -232.2238317958615426
    Molecular point group: c1
  Basis Set: CC-PVTZ
  Basis Set:

  -Total Gradient:
     Atom            X                  Y                   Z
    ------   -----------------  -----------------  -----------------
       1        0.000020684741    -0.000000597338    -0.000004196823
       2        0.000043235918    -0.000002114452    -0.000149921034
       3       -0.000143504581     0.000000156330     0.000134708366
       4        0.000023604486    -0.000003719091    -0.000023117307
       5        0.000023805962     0.000003711549    -0.000022763793
       6        0.000045587043     0.000001400889    -0.000010918314
       7       -0.000036101122    -0.000021548831     0.000023962760
       8       -0.000036615994     0.000021694861     0.000021746429
       9        0.000018573177     0.000000004392     0.000008151197
      10       -0.000017413076     0.000004286404    -0.000005402888
      11        0.000011769871     0.000009947247     0.000030547606
      12        0.000025549106    -0.000007676555    -0.000012821362
      13       -0.000017520145    -0.000004081421    -0.000005503487
      14        0.000011922248    -0.000009715477     0.000030967057
      15        0.000026422366     0.000008251492    -0.000015438406

  **** Optimization is complete! (in 5 steps) ****
    Final optimized geometry and variables:
    Molecular point group: c1

    Geometry (in Angstrom), charge = 0, multiplicity = 1:

    H           -1.108024811543     0.000158838760     1.462746851369
    C           -0.066186921986     0.000499187939     1.755822430052
    O            0.809732930411     0.000360946590     0.669307847906
    H            0.110519572547     0.880116744668     2.364117236457
    H            0.110938886940    -0.878646086142     2.364677906104
    C            0.291681507615    -0.000162042710    -0.637388953964
    C           -0.491700250372    -1.269908381411    -0.950567806015
    C           -0.491978338977     1.269185787384    -0.951486828955
    H            1.179469459938    -0.000287077978    -1.257472360771
    H            0.102364508354    -2.143646442211    -0.712796291092
    H           -0.740337091125    -1.303164062638    -2.005129678922
    H           -1.419697821160    -1.326495983001    -0.393358976889
    H            0.101880165123     2.143225820691    -0.714311422474
    H           -0.740586851223     1.301642739884    -2.006079997647
    H           -1.420008189167     1.325956496462    -0.394351625421

  Mulliken Charges: (a.u.)
   Center  Symbol    Alpha    Beta     Spin     Total
       1     H     0.46936  0.46936  0.00000  0.06128
       2     C     3.03813  3.03813  0.00000 -0.07627
       3     O     4.18786  4.18786  0.00000 -0.37572
       4     H     0.45365  0.45365  0.00000  0.09269
       5     H     0.45365  0.45365  0.00000  0.09269
       6     C     2.93956  2.93956  0.00000  0.12088
       7     C     3.15480  3.15480  0.00000 -0.30960
       8     C     3.15479  3.15479  0.00000 -0.30958
       9     H     0.44598  0.44598  0.00000  0.10804
      10     H     0.44494  0.44494  0.00000  0.11012
      11     H     0.45065  0.45065  0.00000  0.09871
      12     H     0.45552  0.45552  0.00000  0.08897
      13     H     0.44494  0.44494  0.00000  0.11012
      14     H     0.45065  0.45065  0.00000  0.09871
      15     H     0.45552  0.45552  0.00000  0.08896

   Total alpha = 21.00000, Total beta = 21.00000, Total charge =  0.00000

*** Psi4 exiting successfully. Buy a developer a beer!
