  ==> Input File <==

--------------------------------------------------------------------------
set {
	reference rhf
	basis 6-31G*
}

set_num_threads( 4 )
memory 2 gb

molecule MOL {
0 1

H	 -2.172150	 0.880146	 0.502514
C	 -2.018062	 -0.000025	 -0.114509
O	 -0.774054	 0.001095	 -0.743181
H	 -2.760490	 0.003458	 -0.901350
H	 -2.173624	 -0.884374	 0.496163
C	 0.401091	 0.178117	 0.027682
C	 1.523781	 0.113578	 -1.005475
C	 0.406762	 1.544487	 0.720640
C	 0.566634	 -0.950487	 1.050405
H	 1.394707	 0.894637	 -1.746230
H	 1.505577	 -0.841973	 -1.517300
H	 2.494449	 0.237368	 -0.536282
H	 0.217323	 2.332170	 -0.000954
H	 1.371964	 1.728481	 1.181218
H	 -0.342696	 1.610169	 1.502019
H	 0.489937	 -1.915449	 0.560490
H	 1.539393	 -0.886170	 1.526994
H	 -0.181717	 -0.905371	 1.834348

	symmetry c1
}
set optking {
	frozen_dihedral = ("
		6 3 2 5
	")
}

ee = optimize('scf')
oeprop('DIPOLE', 'QUADRUPOLE', 'MULLIKEN_CHARGES')
f=open( 'psi4out.xyz', 'w' )
f.write( "18  " )
f.write( str(ee) + "\n" )
f.write( MOL.save_string_xyz() )
f.close()
--------------------------------------------------------------------------

    Molecular point group: c1
  Charge       = 0
  Multiplicity = 1
  Basis Set: 6-31G*
  Basis Set:
  @DF-RHF Final Energy:  -271.17535992480811
    Total Energy =                       -271.1753599248079354
    Molecular point group: c1
  Basis Set: 6-31G*
  Basis Set:
  Basis Set: 6-31G*
  Basis Set:
  @DF-RHF Final Energy:  -271.17508798849155
    Total Energy =                       -271.1750879884915548
  Basis Set: 6-31G*
  Basis Set:
  Basis Set: 6-31G*
  Basis Set:
  @DF-RHF Final Energy:  -271.17544892436899
    Total Energy =                       -271.1754489243687658
  Basis Set: 6-31G*
  Basis Set:
  Basis Set: 6-31G*
  Basis Set:
  @DF-RHF Final Energy:  -271.17544048498752
    Total Energy =                       -271.1754404849874049
  Basis Set: 6-31G*
  Basis Set:
  Basis Set: 6-31G*
  Basis Set:
  @DF-RHF Final Energy:  -271.17545121403447
    Total Energy =                       -271.1754512140346947
  Basis Set: 6-31G*
  Basis Set:
  Basis Set: 6-31G*
  Basis Set:
  @DF-RHF Final Energy:  -271.17545497954501
    Total Energy =                       -271.1754549795450089
  Basis Set: 6-31G*
  Basis Set:
  Charge       = 0
  Multiplicity = 1
  Basis Set: 6-31G*
  Basis Set:

    Orbital Energies (a.u.)
    -----------------------

    Doubly Occupied:

       1A    -20.546807     2A    -11.281296     3A    -11.260640
       4A    -11.209474     5A    -11.207899     6A    -11.203252
       7A     -1.370031     8A     -1.072999     9A     -0.946053
      10A     -0.939523    11A     -0.912461    12A     -0.752333
      13A     -0.655226    14A     -0.644425    15A     -0.637465
      16A     -0.592627    17A     -0.574369    18A     -0.552685
      19A     -0.534296    20A     -0.523924    21A     -0.514669
      22A     -0.487881    23A     -0.486314    24A     -0.438933
      25A     -0.404261

  @DF-RHF Final Energy:  -271.17545475436106

   => Energetics <=

    Nuclear Repulsion Energy =            272.3063915017730210
    One-Electron Energy =                -907.4640101761499409
    Two-Electron Energy =                 363.9821639200156369
    DFT Exchange-Correlation Energy =       0.0000000000000000
    Empirical Dispersion Energy =           0.0000000000000000
    PCM Polarization Energy =               0.0000000000000000
    EFP Energy =                            0.0000000000000000
    Total Energy =                       -271.1754547543612262
    Molecular point group: c1
  Basis Set: 6-31G*
  Basis Set:

  -Total Gradient:
     Atom            X                  Y                   Z
    ------   -----------------  -----------------  -----------------
       1       -0.000022730898    -0.000008136164    -0.000009418593
       2        0.000156970518     0.000372515135     0.000403783951
       3       -0.000025684337    -0.000580330608    -0.000071932560
       4        0.000001942702    -0.000010137183     0.000005662174
       5       -0.000148235154    -0.000160040681    -0.000316839430
       6       -0.000031137314     0.000373564659    -0.000052214351
       7        0.000020289423    -0.000022497341     0.000000806121
       8        0.000016910556     0.000011917124     0.000055162670
       9       -0.000003432265     0.000006144069     0.000000424281
      10       -0.000007405562     0.000014853745     0.000026826416
      11        0.000007381284     0.000007143084    -0.000033526351
      12        0.000004965571    -0.000034949554    -0.000004217006
      13        0.000031051318    -0.000003384967    -0.000021968722
      14       -0.000026307847    -0.000008065366     0.000007800189
      15        0.000003157794     0.000027228738     0.000010288695
      16        0.000000288742     0.000013850681    -0.000007271538
      17        0.000013093947     0.000003232376     0.000010969471
      18        0.000008881523    -0.000002907747    -0.000004335417

  **** Optimization is complete! (in 7 steps) ****
    Final optimized geometry and variables:
    Molecular point group: c1

    Geometry (in Angstrom), charge = 0, multiplicity = 1:

    H           -2.184309014615     0.619604404627     0.597112480732
    C           -2.008467650024    -0.196272810463    -0.097214284414
    O           -0.773512681546    -0.102825122642    -0.737054585610
    H           -2.761911370850    -0.149503066828    -0.872269051370
    H           -2.125050222852    -1.136787537226     0.433315033296
    C            0.405454687265     0.040943256394     0.035172458056
    C            1.528438526199    -0.048935654282    -0.995702250492
    C            0.439489892960     1.408551366655     0.725243299528
    C            0.543521208014    -1.088978420033     1.060007669516
    H            1.414290917461     0.731014571984    -1.740015066540
    H            1.494343422449    -1.006260960464    -1.503454786211
    H            2.500437319622     0.060249687802    -0.525570388958
    H            0.286563986641     2.197925318806    -0.002809258350
    H            1.400540913740     1.566214677169     1.204118329422
    H           -0.322665292002     1.499828388485     1.491485158680
    H            0.448727207253    -2.054023764145     0.573143843058
    H            1.515816180430    -1.043885421426     1.539577987927
    H           -0.207176199970    -1.025416469599     1.840656927719

  Mulliken Charges: (a.u.)
   Center  Symbol    Alpha    Beta     Spin     Total
       1     H     0.43049  0.43049  0.00000  0.13902
       2     C     3.07952  3.07952  0.00000 -0.15903
       3     O     4.31863  4.31863  0.00000 -0.63726
       4     H     0.41293  0.41293  0.00000  0.17414
       5     H     0.42835  0.42835  0.00000  0.14331
       6     C     2.84266  2.84266  0.00000  0.31468
       7     C     3.23301  3.23301  0.00000 -0.46603
       8     C     3.24490  3.24490  0.00000 -0.48981
       9     C     3.24940  3.24940  0.00000 -0.49881
      10     H     0.41380  0.41380  0.00000  0.17240
      11     H     0.41451  0.41451  0.00000  0.17098
      12     H     0.42511  0.42511  0.00000  0.14977
      13     H     0.41328  0.41328  0.00000  0.17344
      14     H     0.42065  0.42065  0.00000  0.15870
      15     H     0.42060  0.42060  0.00000  0.15879
      16     H     0.41350  0.41350  0.00000  0.17301
      17     H     0.41882  0.41882  0.00000  0.16237
      18     H     0.41983  0.41983  0.00000  0.16034

   Total alpha = 25.00000, Total beta = 25.00000, Total charge = -0.00000
