  ==> Input File <==

--------------------------------------------------------------------------
set {
	reference rhf
	basis 6-31G*
}

set_num_threads( 4 )
memory 2 gb

molecule MOL {
0 1

O	 1.806592	 1.365789	 0.272310
C	 1.583676	 0.325937	 0.803473
C	 0.262597	 -0.403671	 0.786500
O	 2.495222	 -0.346415	 1.494966
C	 -0.823008	 0.326187	 0.001381
H	 0.444204	 -1.394613	 0.379355
H	 -0.035754	 -0.559069	 1.819727
C	 -2.149452	 -0.435131	 -0.000098
H	 -0.484641	 0.479860	 -1.018462
H	 -0.965935	 1.315773	 0.423994
C	 -3.368779	 0.488503	 -0.000883
H	 -2.193746	 -1.087250	 -0.871175
H	 -2.195311	 -1.087803	 0.870418
C	 -4.693822	 -0.272754	 -0.001129
H	 -3.325798	 1.139422	 -0.871284
H	 -3.326423	 1.139959	 0.869145
H	 -4.781274	 -0.907928	 -0.878124
H	 -5.538651	 0.408946	 -0.001420
H	 -4.781694	 -0.907783	 0.875984
C	 3.785298	 0.229792	 1.587944
H	 4.221266	 0.345993	 0.606130
H	 4.372587	 -0.455293	 2.179236
H	 3.736560	 1.194926	 2.071314

	symmetry c1
}
set optking {
	frozen_dihedral = ("
		9 5 8 12
	")
}

ee = optimize('scf')
oeprop('DIPOLE', 'QUADRUPOLE', 'MULLIKEN_CHARGES')
f=open( 'psi4out.xyz', 'w' )
f.write( "23  " )
f.write( str(ee) + "\n" )
f.write( MOL.save_string_xyz() )
f.close()
--------------------------------------------------------------------------

    Molecular point group: c1
  Charge       = 0
  Multiplicity = 1
  Basis Set: 6-31G*
  Basis Set:
  @DF-RHF Final Energy:  -422.97290396690909
    Total Energy =                       -422.9729039669091435
    Molecular point group: c1
  Basis Set: 6-31G*
  Basis Set:
  Basis Set: 6-31G*
  Basis Set:
  @DF-RHF Final Energy:  -422.97307941273846
    Total Energy =                       -422.9730794127382296
  Basis Set: 6-31G*
  Basis Set:
  Basis Set: 6-31G*
  Basis Set:
  @DF-RHF Final Energy:  -422.97194456991565
    Total Energy =                       -422.9719445699153084
  Basis Set: 6-31G*
  Basis Set:
  Basis Set: 6-31G*
  Basis Set:
  @DF-RHF Final Energy:  -422.97322574872783
    Total Energy =                       -422.9732257487271454
  Basis Set: 6-31G*
  Basis Set:
  Basis Set: 6-31G*
  Basis Set:
  @DF-RHF Final Energy:  -422.97323913674182
    Total Energy =                       -422.9732391367413129
  Basis Set: 6-31G*
  Basis Set:
  Basis Set: 6-31G*
  Basis Set:
  @DF-RHF Final Energy:  -422.97324209727282
    Total Energy =                       -422.9732420972724185
  Basis Set: 6-31G*
  Basis Set:
  Basis Set: 6-31G*
  Basis Set:
  @DF-RHF Final Energy:  -422.97324320119873
    Total Energy =                       -422.9732432011996934
  Basis Set: 6-31G*
  Basis Set:
  Charge       = 0
  Multiplicity = 1
  Basis Set: 6-31G*
  Basis Set:

    Orbital Energies (a.u.)
    -----------------------

    Doubly Occupied:

       1A    -20.603511     2A    -20.545383     3A    -11.371970
       4A    -11.280773     5A    -11.235409     6A    -11.219280
       7A    -11.217795     8A    -11.216564     9A    -11.209535
      10A     -1.469182    11A     -1.362635    12A     -1.092011
      13A     -1.043443    14A     -0.986480    15A     -0.931540
      16A     -0.843954    17A     -0.794868    18A     -0.767175
      19A     -0.698103    20A     -0.683060    21A     -0.671665
      22A     -0.647433    23A     -0.612825    24A     -0.599057
      25A     -0.571881    26A     -0.559169    27A     -0.555507
      28A     -0.525991    29A     -0.521575    30A     -0.504195
      31A     -0.487424    32A     -0.469933    33A     -0.465037
      34A     -0.459424    35A     -0.454711    36A     -0.434886

  @DF-RHF Final Energy:  -422.97324346912586

   => Energetics <=

    Nuclear Repulsion Energy =            452.2329532384576964
    One-Electron Energy =               -1472.1856309759641590
    Two-Electron Energy =                 596.9794342683809418
    DFT Exchange-Correlation Energy =       0.0000000000000000
    Empirical Dispersion Energy =           0.0000000000000000
    PCM Polarization Energy =               0.0000000000000000
    EFP Energy =                            0.0000000000000000
    Total Energy =                       -422.9732434691255776
    Molecular point group: c1
  Basis Set: 6-31G*
  Basis Set:

  -Total Gradient:
     Atom            X                  Y                   Z
    ------   -----------------  -----------------  -----------------
       1        0.000005840687     0.000008066015     0.000008084934
       2       -0.000004361543    -0.000006097489    -0.000017260360
       3       -0.000005472983    -0.000001244782    -0.000035885528
       4        0.000011281246     0.000001392664     0.000001793306
       5       -0.003100325556     0.005264217757    -0.000737782792
       6        0.000001592365     0.000003105403     0.000008435660
       7       -0.000014606036     0.000006900531     0.000000279361
       8        0.002737164507    -0.004673580858     0.002866596843
       9        0.002188560093    -0.003662263601     0.000180193301
      10        0.000006600295     0.000007328528    -0.000001864985
      11        0.000005377797    -0.000015114916    -0.000005820410
      12       -0.001820727771     0.003087629959    -0.002266712289
      13       -0.000015026469    -0.000013847267     0.000005128314
      14       -0.000001576244    -0.000002074680    -0.000009359186
      15       -0.000002884295     0.000004170868     0.000001805936
      16        0.000007445283    -0.000010053724     0.000000555513
      17        0.000000467603    -0.000002456614     0.000002388970
      18       -0.000000388954     0.000000574267    -0.000003732764
      19        0.000000541051     0.000003407339     0.000001492668
      20        0.000001412937    -0.000000464987     0.000000158271
      21       -0.000000779664    -0.000000351507     0.000000519102
      22       -0.000000495771     0.000000143339     0.000000424039
      23        0.000000361411     0.000000613755     0.000000562095

  **** Optimization is complete! (in 8 steps) ****
    Final optimized geometry and variables:
    Molecular point group: c1

    Geometry (in Angstrom), charge = 0, multiplicity = 1:

    O            1.897445237698     1.213164055011    -0.303426519714
    C            1.677014384677     0.180735782186     0.243244180887
    C            0.346941561063    -0.532057804184     0.270042587415
    O            2.598451042405    -0.494279548906     0.918921615649
    C           -0.754526374012     0.206852640612    -0.488037861603
    H            0.503248744898    -1.527722450832    -0.136777170575
    H            0.077366129481    -0.678188554069     1.312343730136
    C           -2.077923192000    -0.576407559979    -0.495950576355
    H           -0.411317947341     0.360928622412    -1.504987677376
    H           -0.891995617805     1.188148742891    -0.047166519075
    C           -3.306445823354     0.336163339148    -0.558657526121
    H           -2.103900240748    -1.230366657689    -1.364652796668
    H           -2.152702242638    -1.211035585945     0.384377197754
    C           -4.621719702728    -0.436874731989    -0.641002890436
    H           -3.219279779980     0.995529025114    -1.419642639317
    H           -3.319284861297     0.980373011163     0.317759398630
    H           -4.655655965487    -1.060667188479    -1.529830707096
    H           -5.472267386869     0.236688526993    -0.677622275077
    H           -4.750384222745    -1.085138205582     0.221447555175
    C            3.896734456585     0.068330139585     0.972795079763
    H            4.309104336852     0.168519300198    -0.020904474133
    H            4.491231795963    -0.616692059396     1.556996994119
    H            3.870854824000     1.039320957630     1.446116398420

  Mulliken Charges: (a.u.)
   Center  Symbol    Alpha    Beta     Spin     Total
       1     O     4.28615  4.28615  0.00000 -0.57231
       2     C     2.60540  2.60540  0.00000  0.78919
       3     C     3.20982  3.20982  0.00000 -0.41963
       4     O     4.30727  4.30727  0.00000 -0.61455
       5     C     3.15354  3.15354  0.00000 -0.30707
       6     H     0.40052  0.40052  0.00000  0.19896
       7     H     0.40090  0.40090  0.00000  0.19820
       8     C     3.15471  3.15471  0.00000 -0.30941
       9     H     0.40963  0.40963  0.00000  0.18075
      10     H     0.41069  0.41069  0.00000  0.17862
      11     C     3.15298  3.15298  0.00000 -0.30596
      12     H     0.42094  0.42094  0.00000  0.15812
      13     H     0.42316  0.42316  0.00000  0.15369
      14     C     3.23999  3.23999  0.00000 -0.47997
      15     H     0.42063  0.42063  0.00000  0.15874
      16     H     0.42234  0.42234  0.00000  0.15531
      17     H     0.42166  0.42166  0.00000  0.15668
      18     H     0.41849  0.41849  0.00000  0.16301
      19     H     0.42209  0.42209  0.00000  0.15582
      20     C     3.09243  3.09243  0.00000 -0.18486
      21     H     0.40911  0.40911  0.00000  0.18177
      22     H     0.40846  0.40846  0.00000  0.18307
      23     H     0.40909  0.40909  0.00000  0.18181

   Total alpha = 36.00000, Total beta = 36.00000, Total charge =  0.00000
