  ==> Input File <==

--------------------------------------------------------------------------
set {
	reference rhf
	basis cc-pvtz
}

set_num_threads( 4 )
memory 2 gb

molecule MOL {
0 1

H	 -2.498963	 -0.741158	 -0.729149
O	 -2.346257	 -0.289210	 0.080372
C	 -1.183935	 0.486039	 -0.009831
C	 0.062853	 -0.375310	 0.027457
H	 -1.178881	 1.094526	 -0.908634
H	 -1.184406	 1.155156	 0.838676
O	 1.172093	 0.457955	 -0.054438
H	 0.052476	 -1.081302	 -0.804627
H	 0.076323	 -0.955658	 0.947560
C	 2.395283	 -0.200723	 -0.020240
H	 2.497264	 -0.893069	 -0.853026
H	 3.174448	 0.544109	 -0.089633
H	 2.521835	 -0.755778	 0.906268

	symmetry c1
}
set optking {
	frozen_dihedral = ("
		10 7 4 8
	")
}

ee = optimize('scf')
oeprop('DIPOLE', 'QUADRUPOLE', 'MULLIKEN_CHARGES')
f=open( 'psi4out.xyz', 'w' )
f.write( "13  " )
f.write( str(ee) + "\n" )
f.write( MOL.save_string_xyz() )
f.close()
--------------------------------------------------------------------------

    Molecular point group: c1
  Charge       = 0
  Multiplicity = 1
  Basis Set: CC-PVTZ
  Basis Set:
  @DF-RHF Final Energy:  -268.06230979810243
    Total Energy =                       -268.0623097981024898
    Molecular point group: c1
  Basis Set: CC-PVTZ
  Basis Set:
  Charge       = 0
  Multiplicity = 1
  Basis Set: CC-PVTZ
  Basis Set:

    Orbital Energies (a.u.)
    -----------------------

    Doubly Occupied:

       1A    -20.556103     2A    -20.552947     3A    -11.269329
       4A    -11.267851     5A    -11.267560     6A     -1.392108
       7A     -1.369320     8A     -1.019779     9A     -0.914057
      10A     -0.842905    11A     -0.712125    12A     -0.676484
      13A     -0.663238    14A     -0.639516    15A     -0.597671
      16A     -0.571044    17A     -0.547246    18A     -0.491419
      19A     -0.483378    20A     -0.441844    21A     -0.424807

  @DF-RHF Final Energy:  -268.06230992458484

   => Energetics <=

    Nuclear Repulsion Energy =            190.4981179599981544
    One-Electron Energy =                -743.7193966300114880
    Two-Electron Energy =                 285.1589687454284103
    DFT Exchange-Correlation Energy =       0.0000000000000000
    Empirical Dispersion Energy =           0.0000000000000000
    PCM Polarization Energy =               0.0000000000000000
    EFP Energy =                            0.0000000000000000
    Total Energy =                       -268.0623099245849517
    Molecular point group: c1
  Basis Set: CC-PVTZ
  Basis Set:

  -Total Gradient:
     Atom            X                  Y                   Z
    ------   -----------------  -----------------  -----------------
       1        0.000007127247     0.000007984623     0.000002145598
       2       -0.000003040460    -0.000010886973     0.000022637959
       3       -0.000017600546     0.000021103084    -0.000014747364
       4       -0.000093208052     0.000076753655    -0.000180251354
       5        0.000018111333    -0.000005009743     0.000004704244
       6       -0.000021977037     0.000007848854     0.000002617442
       7        0.000014968821    -0.000020784909     0.000179030447
       8        0.000063189034    -0.000080840152     0.000078385128
       9        0.000029414206     0.000016495162    -0.000008864409
      10        0.000002635414    -0.000016095599    -0.000078268527
      11       -0.000005508346     0.000003359424    -0.000001474999
      12       -0.000000990466     0.000001295513    -0.000002684951
      13        0.000006878849    -0.000001222937    -0.000003229214

  **** Optimization is complete! (in 2 steps) ****
    Final optimized geometry and variables:
    Molecular point group: c1

    Geometry (in Angstrom), charge = 0, multiplicity = 1:

    H           -2.499529738484    -0.741861682973    -0.722495647527
    O           -2.346164371286    -0.288636186647     0.086196898206
    C           -1.183931016283     0.486441886005    -0.006405158455
    C            0.062873579711    -0.374909930494     0.030083671837
    H           -1.179918353586     1.094010940570    -0.905831880196
    H           -1.183224161172     1.156394556308     0.841451635068
    O            1.172188710347     0.458290791451    -0.050516456191
    H            0.052982510937    -1.080533920253    -0.802285156998
    H            0.076573085792    -0.956139959921     0.949658627702
    C            2.395251739101    -0.200556724026    -0.015667303583
    H            2.497893327798    -0.892062791118    -0.849050862106
    H            3.174547599381     0.544260390666    -0.083496730949
    H            2.520908131614    -0.756606559512     0.910387404935

  Mulliken Charges: (a.u.)
   Center  Symbol    Alpha    Beta     Spin     Total
       1     H     0.39410  0.39410  0.00000  0.21180
       2     O     4.20208  4.20208  0.00000 -0.40416
       3     C     2.97334  2.97334  0.00000  0.05332
       4     C     2.96510  2.96510  0.00000  0.06980
       5     H     0.46686  0.46686  0.00000  0.06628
       6     H     0.45264  0.45264  0.00000  0.09472
       7     O     4.17539  4.17539  0.00000 -0.35078
       8     H     0.48227  0.48227  0.00000  0.03547
       9     H     0.46944  0.46944  0.00000  0.06112
      10     C     3.03181  3.03181  0.00000 -0.06361
      11     H     0.47121  0.47121  0.00000  0.05758
      12     H     0.44590  0.44590  0.00000  0.10820
      13     H     0.46987  0.46987  0.00000  0.06026

   Total alpha = 21.00000, Total beta = 21.00000, Total charge = -0.00000
