  ==> Input File <==

--------------------------------------------------------------------------
set {
	reference rhf
	basis cc-pvtz
}

set_num_threads( 4 )
memory 2 gb

molecule MOL {
0 1

H	 -2.555405	 -0.339449	 0.428225
N	 -1.851927	 0.161443	 -0.071573
C	 -0.561396	 -0.500007	 0.035200
H	 -1.814092	 1.081360	 0.315283
C	 0.575129	 0.507849	 -0.048832
H	 -0.478089	 -1.200753	 -0.788956
H	 -0.456191	 -1.081816	 0.952176
C	 1.951750	 -0.141983	 0.035101
H	 0.478254	 1.061643	 -0.975981
H	 0.467676	 1.231891	 0.755499
H	 2.101550	 -0.848142	 -0.774949
H	 2.738260	 0.600794	 -0.026526
H	 2.078939	 -0.679792	 0.968824

	symmetry c1
}
set optking {
	frozen_dihedral = ("
		1 2 3 6
	")
}

ee = optimize('scf')
oeprop('DIPOLE', 'QUADRUPOLE', 'MULLIKEN_CHARGES')
f=open( 'psi4out.xyz', 'w' )
f.write( "13  " )
f.write( str(ee) + "\n" )
f.write( MOL.save_string_xyz() )
f.close()
--------------------------------------------------------------------------

    Molecular point group: c1
  Charge       = 0
  Multiplicity = 1
  Basis Set: CC-PVTZ
  Basis Set:
  @DF-RHF Final Energy:  -173.35038856075070
    Total Energy =                       -173.3503885607507868
    Molecular point group: c1
  Basis Set: CC-PVTZ
  Basis Set:
  Basis Set: CC-PVTZ
  Basis Set:
  @DF-RHF Final Energy:  -173.35057178626093
    Total Energy =                       -173.3505717862609856
  Basis Set: CC-PVTZ
  Basis Set:
  Basis Set: CC-PVTZ
  Basis Set:
  @DF-RHF Final Energy:  -173.35059731597417
    Total Energy =                       -173.3505973159741416
  Basis Set: CC-PVTZ
  Basis Set:
  Basis Set: CC-PVTZ
  Basis Set:
  @DF-RHF Final Energy:  -173.35059850345408
    Total Energy =                       -173.3505985034541084
  Basis Set: CC-PVTZ
  Basis Set:
  Charge       = 0
  Multiplicity = 1
  Basis Set: CC-PVTZ
  Basis Set:

    Orbital Energies (a.u.)
    -----------------------

    Doubly Occupied:

       1A    -15.526056     2A    -11.238152     3A    -11.215092
       4A    -11.209398     5A     -1.177953     6A     -1.038441
       7A     -0.900247     8A     -0.804806     9A     -0.648430
      10A     -0.644336    11A     -0.604420    12A     -0.559715
      13A     -0.541793    14A     -0.495480    15A     -0.478382
      16A     -0.469250    17A     -0.385184

  @DF-RHF Final Energy:  -173.35059858688473

   => Energetics <=

    Nuclear Repulsion Energy =            132.0768427619308625
    One-Electron Energy =                -494.9806136318292147
    Two-Electron Energy =                 189.5531722830135664
    DFT Exchange-Correlation Energy =       0.0000000000000000
    Empirical Dispersion Energy =           0.0000000000000000
    PCM Polarization Energy =               0.0000000000000000
    EFP Energy =                            0.0000000000000000
    Total Energy =                       -173.3505985868848143
    Molecular point group: c1
  Basis Set: CC-PVTZ
  Basis Set:

  -Total Gradient:
     Atom            X                  Y                   Z
    ------   -----------------  -----------------  -----------------
       1        0.000569495893     0.001777546336     0.002686736487
       2       -0.000412751831    -0.001725247610    -0.003735052845
       3       -0.001440406196    -0.002159586890     0.002701575360
       4       -0.000012137660     0.000015317364     0.000007492176
       5        0.000003812327     0.000001025746    -0.000002538520
       6        0.001275840225     0.002091768621    -0.001660210915
       7        0.000006550864     0.000002969807    -0.000001974013
       8        0.000010185707    -0.000000504707     0.000001173254
       9       -0.000002634362    -0.000003505893     0.000000539425
      10       -0.000000922879    -0.000001079491    -0.000002795048
      11       -0.000003769549     0.000000746422     0.000001813068
      12        0.000004433079     0.000000855453     0.000002902712
      13        0.000002304382    -0.000000305158     0.000000338860

  **** Optimization is complete! (in 5 steps) ****
    Final optimized geometry and variables:
    Molecular point group: c1

    Geometry (in Angstrom), charge = 0, multiplicity = 1:

    H           -2.575421057614    -0.345158928306     0.386651568649
    N           -1.858631179746     0.151133458993    -0.098818460843
    C           -0.565300381423    -0.505904026765     0.055378314779
    H           -1.833406808105     1.063214936914     0.307790155537
    C            0.573083822741     0.501187981718    -0.032714477578
    H           -0.443619051087    -1.221039929783    -0.752044514239
    H           -0.483990023298    -1.053891884624     0.992533939865
    C            1.949358181095    -0.151928644971     0.020268278434
    H            0.467638373956     1.064089009954    -0.954905928728
    H            0.480722694309     1.216500985691     0.781266849431
    H            2.085672311869    -0.844738088592    -0.803022033349
    H            2.735965160770     0.590828889696    -0.040046984673
    H            2.087561022429    -0.704564719205     0.943609909532

  Mulliken Charges: (a.u.)
   Center  Symbol    Alpha    Beta     Spin     Total
       1     H     0.43173  0.43173  0.00000  0.13654
       2     N     3.68702  3.68702  0.00000 -0.37404
       3     C     3.01505  3.01505  0.00000 -0.03011
       4     H     0.43256  0.43256  0.00000  0.13487
       5     C     3.08354  3.08354  0.00000 -0.16708
       6     H     0.46212  0.46212  0.00000  0.07575
       7     H     0.46878  0.46878  0.00000  0.06243
       8     C     3.15186  3.15186  0.00000 -0.30372
       9     H     0.44894  0.44894  0.00000  0.10212
      10     H     0.46054  0.46054  0.00000  0.07892
      11     H     0.45380  0.45380  0.00000  0.09240
      12     H     0.44779  0.44779  0.00000  0.10442
      13     H     0.45625  0.45625  0.00000  0.08750

   Total alpha = 17.00000, Total beta = 17.00000, Total charge = -0.00000
