  ==> Input File <==

--------------------------------------------------------------------------
set {
	reference rhf
	basis 6-31G*
}

set_num_threads( 1 )
memory 2 gb

molecule MOL {
0 1

O	 -0.988096	 -1.408613	 0.050699
C	 -0.676749	 -0.249230	 -0.009274
C	 -1.746085	 0.827156	 -0.009539
N	 0.623947	 0.147590	 -0.102813
H	 -1.701500	 1.431508	 -0.908902
H	 -2.703425	 0.330732	 0.036390
H	 -1.647323	 1.487769	 0.845106
C	 1.152880	 0.492115	 -1.407960
C	 1.614239	 -0.072960	 0.928170
H	 1.823293	 1.339288	 -1.313823
H	 0.342007	 0.749746	 -2.066786
H	 1.707759	 -0.337390	 -1.840917
H	 2.336201	 0.734661	 0.904556
H	 1.169189	 -0.083826	 1.910385
H	 2.152033	 -1.007902	 0.781632

	symmetry c1
}
set optking {
	frozen_dihedral = ("
		2 4 8 10
	")
}

ee = energy('scf')
oeprop('DIPOLE', 'QUADRUPOLE', 'MULLIKEN_CHARGES')
f=open( 'psi4out.xyz', 'w' )
f.write( "15  " )
f.write( str(ee) + "\n" )
f.write( MOL.save_string_xyz() )
f.close()
--------------------------------------------------------------------------

    Molecular point group: c1

    Geometry (in Angstrom), charge = 0, multiplicity = 1:

       Center              X                  Y                   Z               Mass
    ------------   -----------------  -----------------  -----------------  -----------------
           O         -0.994637248739    -1.364762092781     0.145765583409    15.994914619560
           C         -0.683290248739    -0.205379092781     0.085792583409    12.000000000000
           C         -1.752626248739     0.871006907219     0.085527583409    12.000000000000
           N          0.617405751261     0.191440907219    -0.007746416591    14.003074004780
           H         -1.708041248739     1.475358907219    -0.813835416591     1.007825032070
           H         -2.709966248739     0.374582907219     0.131456583409     1.007825032070
           H         -1.653864248739     1.531619907219     0.940172583409     1.007825032070
           C          1.146338751261     0.535965907219    -1.312893416591    12.000000000000
           C          1.607697751261    -0.029109092781     1.023236583409    12.000000000000
           H          1.816751751261     1.383138907219    -1.218756416591     1.007825032070
           H          0.335465751261     0.793596907219    -1.971719416591     1.007825032070
           H          1.701217751261    -0.293539092781    -1.745850416591     1.007825032070
           H          2.329659751261     0.778511907219     0.999622583409     1.007825032070
           H          1.162647751261    -0.039975092781     2.005451583409     1.007825032070
           H          2.145491751261    -0.964051092781     0.876698583409     1.007825032070

  Charge       = 0
  Multiplicity = 1
  Basis Set: 6-31G*
  Basis Set:

    Orbital Energies (a.u.)
    -----------------------

    Doubly Occupied:

       1A    -20.543211     2A    -15.551417     3A    -11.346987
       4A    -11.259890     5A    -11.256054     6A    -11.225302
       7A     -1.396821     8A     -1.234931     9A     -1.007969
      10A     -0.971556    11A     -0.916061    12A     -0.738967
      13A     -0.675253    14A     -0.657811    15A     -0.644572
      16A     -0.598710    17A     -0.583985    18A     -0.572722
      19A     -0.557463    20A     -0.547911    21A     -0.534979
      22A     -0.484320    23A     -0.423466    24A     -0.352196

  @DF-RHF Final Energy:  -285.99785014045199

   => Energetics <=

    Nuclear Repulsion Energy =            250.9655023970982199
    One-Electron Energy =                -885.7613691193123486
    Two-Electron Energy =                 348.7980165817618854
    DFT Exchange-Correlation Energy =       0.0000000000000000
    Empirical Dispersion Energy =           0.0000000000000000
    PCM Polarization Energy =               0.0000000000000000
    EFP Energy =                            0.0000000000000000
    Total Energy =                       -285.9978501404522149

  Mulliken Charges: (a.u.)
   Center  Symbol    Alpha    Beta     Spin     Total
       1     O     4.25474  4.25474  0.00000 -0.50949
       2     C     2.66481  2.66481  0.00000  0.67038
       3     C     3.27886  3.27886  0.00000 -0.55773
       4     N     3.82546  3.82546  0.00000 -0.65091
       5     H     0.41017  0.41017  0.00000  0.17967
       6     H     0.39925  0.39925  0.00000  0.20149
       7     H     0.40656  0.40656  0.00000  0.18687
       8     C     3.13553  3.13553  0.00000 -0.27107
       9     C     3.13133  3.13133  0.00000 -0.26265
      10     H     0.41696  0.41696  0.00000  0.16608
      11     H     0.41427  0.41427  0.00000  0.17146
      12     H     0.41552  0.41552  0.00000  0.16896
      13     H     0.41740  0.41740  0.00000  0.16520
      14     H     0.41142  0.41142  0.00000  0.17716
      15     H     0.41771  0.41771  0.00000  0.16458

   Total alpha = 24.00000, Total beta = 24.00000, Total charge =  0.00000
