  ==> Input File <==

--------------------------------------------------------------------------
set {
	reference rhf
	basis cc-pvtz
}

set_num_threads( 4 )
memory 2 gb

molecule MOL {
0 1

H	 2.867672	 -0.456275	 0.875795
C	 2.403497	 -0.020426	 0.000000
N	 0.989899	 -0.304564	 0.000000
H	 2.867672	 -0.456275	 -0.875795
H	 2.620366	 1.051270	 0.000000
C	 0.537579	 -0.862401	 -1.257693
C	 0.193480	 0.849506	 0.362501
H	 0.706996	 -0.168353	 -2.086752
H	 1.096228	 -1.767069	 -1.467966
C	 -0.940940	 -1.191164	 -1.179339
H	 0.499652	 1.200919	 1.341017
H	 0.337016	 1.672315	 -0.344696
C	 -1.276198	 0.476757	 0.399226
H	 -1.307499	 -1.521742	 -2.141097
H	 -1.098058	 -1.989811	 -0.457136
O	 -1.689232	 -0.068115	 -0.818831
H	 -1.885094	 1.351815	 0.578514
H	 -1.450664	 -0.235580	 1.203115

	symmetry c1
}
set optking {
	frozen_dihedral = ("
		6 3 2 5
	")
}

ee = optimize('scf')
oeprop('DIPOLE', 'QUADRUPOLE', 'MULLIKEN_CHARGES')
f=open( 'psi4out.xyz', 'w' )
f.write( "18  " )
f.write( str(ee) + "\n" )
f.write( MOL.save_string_xyz() )
f.close()
--------------------------------------------------------------------------

    Molecular point group: c1
  Charge       = 0
  Multiplicity = 1
  Basis Set: CC-PVTZ
  Basis Set:
  @DF-RHF Final Energy:  -325.13991560129585
    Total Energy =                       -325.1399156012956837
    Molecular point group: c1
  Basis Set: CC-PVTZ
  Basis Set:
  Basis Set: CC-PVTZ
  Basis Set:
  @DF-RHF Final Energy:  -325.14048340969936
    Total Energy =                       -325.1404834096991294
  Basis Set: CC-PVTZ
  Basis Set:
  Basis Set: CC-PVTZ
  Basis Set:
  @DF-RHF Final Energy:  -325.14060389876164
    Total Energy =                       -325.1406038987614693
  Basis Set: CC-PVTZ
  Basis Set:
  Basis Set: CC-PVTZ
  Basis Set:
  @DF-RHF Final Energy:  -325.14061169456471
    Total Energy =                       -325.1406116945647682
  Basis Set: CC-PVTZ
  Basis Set:
  Charge       = 0
  Multiplicity = 1
  Basis Set: CC-PVTZ
  Basis Set:

    Orbital Energies (a.u.)
    -----------------------

    Doubly Occupied:

       1A    -20.547049     2A    -15.540428     3A    -11.263652
       4A    -11.263544     5A    -11.242523     6A    -11.242438
       7A    -11.238971     8A     -1.385868     9A     -1.229468
      10A     -1.039009    11A     -0.981181    12A     -0.883915
      13A     -0.870287    14A     -0.773145    15A     -0.684432
      16A     -0.645938    17A     -0.644590    18A     -0.632986
      19A     -0.627447    20A     -0.572373    21A     -0.558714
      22A     -0.545681    23A     -0.527796    24A     -0.500010
      25A     -0.486344    26A     -0.453531    27A     -0.410000
      28A     -0.347172

  @DF-RHF Final Energy:  -325.14061223180312

   => Energetics <=

    Nuclear Repulsion Energy =            341.3878773214029820
    One-Electron Energy =               -1118.7799949449556607
    Two-Electron Energy =                 452.2515053917494470
    DFT Exchange-Correlation Energy =       0.0000000000000000
    Empirical Dispersion Energy =           0.0000000000000000
    PCM Polarization Energy =               0.0000000000000000
    EFP Energy =                            0.0000000000000000
    Total Energy =                       -325.1406122318031748
    Molecular point group: c1
  Basis Set: CC-PVTZ
  Basis Set:

  -Total Gradient:
     Atom            X                  Y                   Z
    ------   -----------------  -----------------  -----------------
       1       -0.000004568876     0.000003679815    -0.000007526850
       2        0.000416425629    -0.001082077247    -0.003928056670
       3       -0.000644795174     0.003375186231    -0.000422234754
       4       -0.000016309109    -0.000007390206     0.000009613404
       5       -0.000166776838     0.000087008219     0.003378330947
       6        0.000401910677    -0.002378463573     0.000968332138
       7        0.000026510694     0.000019308301     0.000011025866
       8       -0.000003900348    -0.000003467002     0.000005135518
       9       -0.000007492998    -0.000003267816    -0.000009327698
      10       -0.000019283404     0.000000775196     0.000005370079
      11       -0.000006573729     0.000008406292     0.000004149240
      12        0.000004690474    -0.000001778140    -0.000001722813
      13        0.000000381298    -0.000030832653     0.000003381775
      14       -0.000011119958     0.000006836329     0.000003658635
      15        0.000014010701    -0.000008099220    -0.000003926140
      16        0.000013681428     0.000016092024    -0.000022262502
      17        0.000001198460    -0.000006510936    -0.000010646296
      18        0.000002011066     0.000004594387     0.000016706122

  **** Optimization is complete! (in 5 steps) ****
    Final optimized geometry and variables:
    Molecular point group: c1

    Geometry (in Angstrom), charge = 0, multiplicity = 1:

    H            2.812439583438    -0.277434962287     1.295592233113
    C            2.389042218583     0.122603285332     0.379850125164
    N            0.961146674452    -0.123114859176     0.323490814136
    H            2.897248213405    -0.347623869807    -0.451825360964
    H            2.621925792085     1.185218494124     0.361233652799
    C            0.498317343746    -0.701866138680    -0.918732634613
    C            0.159711911055     1.011555012596     0.721619424364
    H            0.647366016412    -0.024782599955    -1.766044216614
    H            1.056015189451    -1.608472963854    -1.120700577613
    C           -0.976606564498    -1.040172533636    -0.811092865443
    H            0.475731097983     1.346615960263     1.703198563345
    H            0.282664489035     1.852023265940     0.031201189247
    C           -1.305111870884     0.621736116090     0.775077956490
    H           -1.358939082274    -1.377941006630    -1.764314632577
    H           -1.113403760223    -1.836740830176    -0.082259610755
    O           -1.726795062028     0.078309674460    -0.440545668866
    H           -1.921770506927     1.488845453921     0.966752381597
    H           -1.461222353822    -0.096915269247     1.577257370148

  Mulliken Charges: (a.u.)
   Center  Symbol    Alpha    Beta     Spin     Total
       1     H     0.44980  0.44980  0.00000  0.10040
       2     C     3.09100  3.09100  0.00000 -0.18200
       3     N     3.61893  3.61893  0.00000 -0.23785
       4     H     0.45663  0.45663  0.00000  0.08674
       5     H     0.46349  0.46349  0.00000  0.07302
       6     C     3.04038  3.04038  0.00000 -0.08077
       7     C     3.04118  3.04118  0.00000 -0.08237
       8     H     0.46945  0.46945  0.00000  0.06111
       9     H     0.45404  0.45404  0.00000  0.09192
      10     C     2.98423  2.98423  0.00000  0.03153
      11     H     0.45390  0.45390  0.00000  0.09220
      12     H     0.46899  0.46899  0.00000  0.06203
      13     C     2.98427  2.98427  0.00000  0.03147
      14     H     0.45011  0.45011  0.00000  0.09978
      15     H     0.46856  0.46856  0.00000  0.06289
      16     O     4.18642  4.18642  0.00000 -0.37283
      17     H     0.45017  0.45017  0.00000  0.09965
      18     H     0.46846  0.46846  0.00000  0.06309

   Total alpha = 28.00000, Total beta = 28.00000, Total charge = -0.00000
