  ==> Input File <==

--------------------------------------------------------------------------
set {
	reference rhf
	basis cc-pvtz
}

set_num_threads( 4 )
memory 2 gb

molecule MOL {
0 1

H	 -2.818099	 -0.829047	 -0.059803
N	 -1.880174	 -0.699048	 0.253992
C	 -1.339220	 0.558568	 -0.227582
H	 -1.337041	 -1.460330	 -0.094510
C	 0.084840	 0.738926	 0.245884
H	 -1.354502	 0.649582	 -1.312952
H	 -1.935512	 1.369897	 0.175199
O	 0.881195	 -0.248324	 -0.336237
H	 0.446298	 1.726413	 -0.037647
H	 0.122216	 0.660531	 1.330036
C	 2.208068	 -0.234417	 0.074171
H	 2.725499	 -1.027054	 -0.446768
H	 2.688377	 0.712084	 -0.164856
H	 2.295137	 -0.403407	 1.144883

	symmetry c1
}
set optking {
	frozen_dihedral = ("
		5 8 11 13
	")
}

ee = optimize('scf')
oeprop('DIPOLE', 'QUADRUPOLE', 'MULLIKEN_CHARGES')
f=open( 'psi4out.xyz', 'w' )
f.write( "14  " )
f.write( str(ee) + "\n" )
f.write( MOL.save_string_xyz() )
f.close()
--------------------------------------------------------------------------

    Molecular point group: c1
  Charge       = 0
  Multiplicity = 1
  Basis Set: CC-PVTZ
  Basis Set:

    Orbital Energies (a.u.)
    -----------------------

    Doubly Occupied:

       1A    -20.550807     2A    -15.523575     3A    -11.263963
       4A    -11.263666     5A    -11.239929     6A     -1.384663
       7A     -1.176054     8A     -1.000619     9A     -0.907677
      10A     -0.815803    11A     -0.685532    12A     -0.676163
      13A     -0.647396    14A     -0.612263    15A     -0.607621
      16A     -0.542207    17A     -0.530362    18A     -0.498036
      19A     -0.474560    20A     -0.420258    21A     -0.383936

  @DF-RHF Final Energy:  -248.22619587543969

   => Energetics <=

    Nuclear Repulsion Energy =            194.6992144283643995
    One-Electron Energy =                -723.4406380226041620
    Two-Electron Energy =                 280.5152277187998493
    DFT Exchange-Correlation Energy =       0.0000000000000000
    Empirical Dispersion Energy =           0.0000000000000000
    PCM Polarization Energy =               0.0000000000000000
    EFP Energy =                            0.0000000000000000
    Total Energy =                       -248.2261958754399416
    Molecular point group: c1
  Basis Set: CC-PVTZ
  Basis Set:

  -Total Gradient:
     Atom            X                  Y                   Z
    ------   -----------------  -----------------  -----------------
       1       -0.000020224610     0.000025908360    -0.000002383297
       2       -0.000023569892    -0.000005195771     0.000031098089
       3        0.000065785867     0.000039413869    -0.000085993451
       4        0.000036195286     0.000002443061     0.000000616262
       5       -0.000031843474     0.000025363530     0.000001025540
       6       -0.000024057297    -0.000004083136    -0.000003297370
       7        0.000003778042    -0.000032004927     0.000020430690
       8       -0.000019148409    -0.000073667438     0.000048801528
       9       -0.000023973338     0.000002466606    -0.000006831241
      10        0.000016572162     0.000001375196     0.000011542320
      11        0.000008913460     0.000028281986    -0.000012305037
      12        0.000011040821     0.000007694190    -0.000014770357
      13       -0.000008104215     0.000015270086     0.000021209364
      14        0.000008635599    -0.000033265612    -0.000009143040

  **** Optimization is complete! (in 1 steps) ****
    Final optimized geometry and variables:
    Molecular point group: c1

    Geometry (in Angstrom), charge = 0, multiplicity = 1:

    H           -2.818759270641    -0.834452676685    -0.057485380258
    N           -1.880834270641    -0.704453676685     0.256309619742
    C           -1.339880270641     0.553162323315    -0.225264380258
    H           -1.337701270641    -1.465735676685    -0.092192380258
    C            0.084179729359     0.733520323315     0.248201619742
    H           -1.355162270641     0.644176323315    -1.310634380258
    H           -1.936172270641     1.364491323315     0.177516619742
    O            0.880534729359    -0.253729676685    -0.333919380258
    H            0.445637729359     1.721007323315    -0.035329380258
    H            0.121555729359     0.655125323315     1.332353619742
    C            2.207407729359    -0.239822676685     0.076488619742
    H            2.724838729359    -1.032459676685    -0.444450380258
    H            2.687716729359     0.706678323315    -0.162538380258
    H            2.294476729359    -0.408812676685     1.147200619742

  Mulliken Charges: (a.u.)
   Center  Symbol    Alpha    Beta     Spin     Total
       1     H     0.43022  0.43022  0.00000  0.13956
       2     N     3.69419  3.69419  0.00000 -0.38838
       3     C     3.02194  3.02194  0.00000 -0.04387
       4     H     0.42248  0.42248  0.00000  0.15503
       5     C     2.96936  2.96936  0.00000  0.06128
       6     H     0.46453  0.46453  0.00000  0.07094
       7     H     0.45869  0.45869  0.00000  0.08262
       8     O     4.17996  4.17996  0.00000 -0.35992
       9     H     0.46964  0.46964  0.00000  0.06072
      10     H     0.46865  0.46865  0.00000  0.06270
      11     C     3.03186  3.03186  0.00000 -0.06371
      12     H     0.44759  0.44759  0.00000  0.10482
      13     H     0.47126  0.47126  0.00000  0.05747
      14     H     0.46963  0.46963  0.00000  0.06074

   Total alpha = 21.00000, Total beta = 21.00000, Total charge = -0.00000
