  ==> Input File <==

--------------------------------------------------------------------------
set {
	reference rhf
	basis 6-31G*
}

set_num_threads( 1 )
memory 2 gb

molecule MOL {
0 1

H	 -2.798360	 -0.862255	 -0.071053
N	 -1.863561	 -0.715187	 0.256814
C	 -1.344686	 0.554728	 -0.219830
H	 -1.300452	 -1.461917	 -0.101532
C	 0.081427	 0.741154	 0.254071
H	 -1.362155	 0.656231	 -1.305829
H	 -1.952773	 1.354456	 0.191809
O	 0.874168	 -0.245412	 -0.342030
H	 0.444037	 1.730782	 -0.023037
H	 0.121165	 0.653424	 1.337565
C	 2.125591	 0.198329	 -0.759888
H	 2.641522	 -0.643416	 -1.201450
H	 2.039742	 0.987684	 -1.504555
H	 2.713375	 0.574056	 0.075066

	symmetry c1
}
set optking {
	frozen_dihedral = ("
		8 5 3 6,
		6 3 2 4,
		5 8 11 13
	")
}

ee = energy('scf')
oeprop('DIPOLE', 'QUADRUPOLE', 'MULLIKEN_CHARGES')
f=open( 'psi4out.xyz', 'w' )
f.write( "14  " )
f.write( str(ee) + "\n" )
f.write( MOL.save_string_xyz() )
f.close()
--------------------------------------------------------------------------

    Molecular point group: c1

    Geometry (in Angstrom), charge = 0, multiplicity = 1:

       Center              X                  Y                   Z               Mass
    ------------   -----------------  -----------------  -----------------  -----------------
           H         -2.782175006191    -0.955540651489     0.104862584134     1.007825032070
           N         -1.847376006191    -0.808472651489     0.432729584134    14.003074004780
           C         -1.328501006191     0.461442348511    -0.043914415866    12.000000000000
           H         -1.284267006191    -1.555202651489     0.074383584134     1.007825032070
           C          0.097611993809     0.647868348511     0.429986584134    12.000000000000
           H         -1.345970006191     0.562945348511    -1.129913415866     1.007825032070
           H         -1.936588006191     1.261170348511     0.367724584134     1.007825032070
           O          0.890352993809    -0.338697651489    -0.166114415866    15.994914619560
           H          0.460221993809     1.637496348511     0.152878584134     1.007825032070
           H          0.137349993809     0.560138348511     1.513480584134     1.007825032070
           C          2.141775993809     0.105043348511    -0.583972415866    12.000000000000
           H          2.657706993809    -0.736701651489    -1.025534415866     1.007825032070
           H          2.055926993809     0.894398348511    -1.328639415866     1.007825032070
           H          2.729559993809     0.480770348511     0.250981584134     1.007825032070

  Charge       = 0
  Multiplicity = 1
  Basis Set: 6-31G*
  Basis Set:

    Orbital Energies (a.u.)
    -----------------------

    Doubly Occupied:

       1A    -20.555685     2A    -15.528109     3A    -11.267851
       4A    -11.265055     5A    -11.239715     6A     -1.381238
       7A     -1.173239     8A     -0.997892     9A     -0.910185
      10A     -0.814405    11A     -0.681743    12A     -0.676575
      13A     -0.642964    14A     -0.613178    15A     -0.603418
      16A     -0.540343    17A     -0.531912    18A     -0.497967
      19A     -0.474905    20A     -0.413658    21A     -0.379119

  @DF-RHF Final Energy:  -248.12164682483365

   => Energetics <=

    Nuclear Repulsion Energy =            194.7734719177034890
    One-Electron Energy =                -723.4119023983180341
    Two-Electron Energy =                 280.5167836557805572
    DFT Exchange-Correlation Energy =       0.0000000000000000
    Empirical Dispersion Energy =           0.0000000000000000
    PCM Polarization Energy =               0.0000000000000000
    EFP Energy =                            0.0000000000000000
    Total Energy =                       -248.1216468248339311

  Mulliken Charges: (a.u.)
   Center  Symbol    Alpha    Beta     Spin     Total
       1     H     0.33287  0.33287  0.00000  0.33426
       2     N     3.92506  3.92506  0.00000 -0.85011
       3     C     3.06536  3.06536  0.00000 -0.13072
       4     H     0.32328  0.32328  0.00000  0.35344
       5     C     2.99256  2.99256  0.00000  0.01487
       6     H     0.43041  0.43041  0.00000  0.13917
       7     H     0.42244  0.42244  0.00000  0.15513
       8     O     4.30946  4.30946  0.00000 -0.61893
       9     H     0.43093  0.43093  0.00000  0.13815
      10     H     0.41704  0.41704  0.00000  0.16592
      11     C     3.08006  3.08006  0.00000 -0.16012
      12     H     0.41289  0.41289  0.00000  0.17422
      13     H     0.42956  0.42956  0.00000  0.14088
      14     H     0.42808  0.42808  0.00000  0.14383

   Total alpha = 21.00000, Total beta = 21.00000, Total charge =  0.00000
