  ==> Input File <==

--------------------------------------------------------------------------
set {
	reference rhf
	basis 6-31G*
}

set_num_threads( 4 )
memory 2 gb

molecule MOL {
0 1

O	 0.571236	 1.204702	 -1.284442
C	 -0.324277	 1.199666	 -0.503224
C	 -1.242653	 2.361293	 -0.235728
O	 -0.632575	 0.154573	 0.251549
H	 -1.177961	 2.646504	 0.808024
H	 -0.966246	 3.194295	 -0.864651
H	 -2.267877	 2.070569	 -0.433596
C	 0.160891	 -1.019931	 0.106212
C	 1.589627	 -0.672828	 0.480843
H	 0.089836	 -1.367806	 -0.916050
H	 -0.238459	 -1.792301	 0.749618
C	 2.246377	 0.346236	 -0.452210
H	 2.163194	 -1.597435	 0.473358
H	 1.604769	 -0.303424	 1.502885
C	 3.691736	 0.652107	 -0.061850
H	 2.219579	 -0.032311	 -1.472055
H	 1.666466	 1.263317	 -0.447249
H	 4.134505	 1.377213	 -0.737283
H	 4.305508	 -0.243868	 -0.089969
H	 3.748266	 1.059562	 0.943567

	symmetry c1
}
set optking {
	frozen_dihedral = ("
		2 4 8 10
	")
}

ee = optimize('scf')
oeprop('DIPOLE', 'QUADRUPOLE', 'MULLIKEN_CHARGES')
f=open( 'psi4out.xyz', 'w' )
f.write( "20  " )
f.write( str(ee) + "\n" )
f.write( MOL.save_string_xyz() )
f.close()
--------------------------------------------------------------------------

    Molecular point group: c1
  Charge       = 0
  Multiplicity = 1
  Basis Set: 6-31G*
  Basis Set:
  @DF-RHF Final Energy:  -383.83089442113874
    Total Energy =                       -383.8308944211388507
    Molecular point group: c1
  Basis Set: 6-31G*
  Basis Set:
  Basis Set: 6-31G*
  Basis Set:
  @DF-RHF Final Energy:  -383.88240961648125
    Total Energy =                       -383.8824096164813682
  Basis Set: 6-31G*
  Basis Set:
  Basis Set: 6-31G*
  Basis Set:
  @DF-RHF Final Energy:  -383.90644225734883
    Total Energy =                       -383.9064422573488855
  Basis Set: 6-31G*
  Basis Set:
  Basis Set: 6-31G*
  Basis Set:
  @DF-RHF Final Energy:  -383.92194287047107
    Total Energy =                       -383.9219428704712982
  Basis Set: 6-31G*
  Basis Set:
  @DF-RHF Final Energy:  -383.93084439908068
    Total Energy =                       -383.9308443990802289
  @DF-RHF Final Energy:  -383.93405758162919
    Total Energy =                       -383.9340575816296450
  @DF-RHF Final Energy:  -383.93587195685450
    Total Energy =                       -383.9358719568547258
  @DF-RHF Final Energy:  -383.93741466343113
    Total Energy =                       -383.9374146634310137
  @DF-RHF Final Energy:  -383.93759745477672
    Total Energy =                       -383.9375974547771193
  @DF-RHF Final Energy:  -383.93771297644332
    Total Energy =                       -383.9377129764433221
  @DF-RHF Final Energy:  -383.93775277499202
    Total Energy =                       -383.9377527749916226
  @DF-RHF Final Energy:  -383.93776433316020
    Total Energy =                       -383.9377643331598620
  @DF-RHF Final Energy:  -383.93778535606356
    Total Energy =                       -383.9377853560637277
  @DF-RHF Final Energy:  -383.93779614054972
    Total Energy =                       -383.9377961405493807
  Basis Set: 6-31G*
  Basis Set:
  @DF-RHF Final Energy:  -383.93757752462801
    Total Energy =                       -383.9375775246282956
  Basis Set: 6-31G*
  Basis Set:
  Basis Set: 6-31G*
  Basis Set:
  @DF-RHF Final Energy:  -383.93780218371410
    Total Energy =                       -383.9378021837138704
  Basis Set: 6-31G*
  Basis Set:
  Basis Set: 6-31G*
  Basis Set:
  @DF-RHF Final Energy:  -383.93780547132002
    Total Energy =                       -383.9378054713198480
  Basis Set: 6-31G*
  Basis Set:
  Charge       = 0
  Multiplicity = 1
  Basis Set: 6-31G*
  Basis Set:

    Orbital Energies (a.u.)
    -----------------------

    Doubly Occupied:

       1A    -20.600820     2A    -20.544075     3A    -11.375474
       4A    -11.286199     5A    -11.232984     6A    -11.224916
       7A    -11.209807     8A    -11.206803     9A     -1.465710
      10A     -1.362836    11A     -1.079023    12A     -1.027304
      13A     -0.979145    14A     -0.890124    15A     -0.808419
      16A     -0.756949    17A     -0.692366    18A     -0.682528
      19A     -0.663903    20A     -0.623021    21A     -0.600405
      22A     -0.593310    23A     -0.569091    24A     -0.552807
      25A     -0.541433    26A     -0.525375    27A     -0.512154
      28A     -0.491457    29A     -0.467750    30A     -0.461395
      31A     -0.443945    32A     -0.433184

  @DF-RHF Final Energy:  -383.93780619958505

   => Energetics <=

    Nuclear Repulsion Energy =            393.4964287612015710
    One-Electron Energy =               -1303.0590461168458205
    Two-Electron Energy =                 525.6248111560591951
    DFT Exchange-Correlation Energy =       0.0000000000000000
    Empirical Dispersion Energy =           0.0000000000000000
    PCM Polarization Energy =               0.0000000000000000
    EFP Energy =                            0.0000000000000000
    Total Energy =                       -383.9378061995851112
    Molecular point group: c1
  Basis Set: 6-31G*
  Basis Set:

  -Total Gradient:
     Atom            X                  Y                   Z
    ------   -----------------  -----------------  -----------------
       1        0.000031108010     0.000028957955    -0.000023375884
       2        0.003446291311     0.002741971982     0.004220416407
       3       -0.000034990555    -0.000032558010    -0.000048714829
       4       -0.006473463866    -0.005421971877    -0.005534635745
       5        0.000022106209     0.000012864816     0.000002029736
       6        0.000004215309     0.000004253263     0.000003580619
       7        0.000009499021     0.000004545651     0.000018674915
       8        0.007513859973     0.007815503744    -0.000644120830
       9        0.000036076497    -0.000220303157     0.000041704404
      10       -0.004443761160    -0.004974624718     0.001994347768
      11       -0.000111436812     0.000027614051    -0.000018619635
      12       -0.000046607941     0.000025345363    -0.000006258414
      13       -0.000012601787     0.000005106365    -0.000016298019
      14        0.000018530385     0.000007255051     0.000001959145
      15        0.000050878748    -0.000020090559     0.000018706447
      16       -0.000003821379    -0.000003035150    -0.000008204619
      17       -0.000006159419    -0.000000899438    -0.000002655324
      18       -0.000001488781     0.000003165414     0.000000815023
      19        0.000003479711    -0.000002615183    -0.000001340626
      20       -0.000001713466    -0.000000485570     0.000001989463

  **** Optimization is complete! (in 18 steps) ****
    Final optimized geometry and variables:
    Molecular point group: c1

    Geometry (in Angstrom), charge = 0, multiplicity = 1:

    O           -0.659985269650     0.892717645443    -1.265129037971
    C           -1.382905565903     0.726028775558    -0.336837143897
    C           -2.414735446489     1.716204730964     0.133272700297
    O           -1.404408530093    -0.371674042713     0.402779504804
    H           -2.180277387833     2.033033408147     1.143346706844
    H           -2.425450996243     2.570266289784    -0.527326683147
    H           -3.391549681941     1.247862101942     0.155238988404
    C           -0.413539990336    -1.386991634834     0.239994325100
    C            0.992913124775    -1.044873910208     0.727011165126
    H           -0.448762107482    -1.764750708727    -0.773684345630
    H           -0.798004360160    -2.174987653424     0.872985159567
    C            1.940712902009    -0.300243009903    -0.218774401248
    H            1.450037364087    -2.001709511764     0.974025436310
    H            0.901532252734    -0.508350735290     1.668854545591
    C            3.369982374652    -0.279751369821     0.324829133995
    H            1.928258917821    -0.782276882774    -1.192525461183
    H            1.599213479623     0.711923122673    -0.381081498695
    H            4.032526667689     0.259436786798    -0.344823266979
    H            3.765907697265    -1.284965148790     0.442888215667
    H            3.415821280552     0.207623019805     1.295277800050

  Mulliken Charges: (a.u.)
   Center  Symbol    Alpha    Beta     Spin     Total
       1     O     4.28265  4.28265  0.00000 -0.56531
       2     C     2.61920  2.61920  0.00000  0.76160
       3     C     3.28162  3.28162  0.00000 -0.56324
       4     O     4.31091  4.31091  0.00000 -0.62183
       5     H     0.40140  0.40140  0.00000  0.19721
       6     H     0.39742  0.39742  0.00000  0.20517
       7     H     0.39984  0.39984  0.00000  0.20031
       8     C     2.99874  2.99874  0.00000  0.00252
       9     C     3.17438  3.17438  0.00000 -0.34877
      10     H     0.40871  0.40871  0.00000  0.18258
      11     H     0.40939  0.40939  0.00000  0.18122
      12     C     3.14924  3.14924  0.00000 -0.29849
      13     H     0.41971  0.41971  0.00000  0.16059
      14     H     0.41513  0.41513  0.00000  0.16974
      15     C     3.24295  3.24295  0.00000 -0.48591
      16     H     0.41980  0.41980  0.00000  0.16040
      17     H     0.40456  0.40456  0.00000  0.19088
      18     H     0.41698  0.41698  0.00000  0.16605
      19     H     0.42407  0.42407  0.00000  0.15186
      20     H     0.42330  0.42330  0.00000  0.15340

   Total alpha = 32.00000, Total beta = 32.00000, Total charge =  0.00000
