                              Psi4 1.0.54 Driver

  ==> Input File <==

--------------------------------------------------------------------------
set {
	reference rhf
	basis cc-pvtz
}

set_num_threads( 4 )
memory 2 gb

molecule MOL {
0 1

H	 -0.052599	 -0.614145	 -1.984436
C	 0.223769	 0.429819	 -1.782941
C	 0.062554	 0.862911	 -0.350953
O	 0.619949	 1.116728	 -2.659497
C	 -1.339253	 0.577611	 0.196911
H	 0.311071	 1.913867	 -0.278662
H	 0.793795	 0.304131	 0.228810
C	 -1.813142	 -0.849710	 -0.061612
H	 -2.032833	 1.276441	 -0.256032
H	 -1.357249	 0.782269	 1.263793
H	 -1.839268	 -1.063526	 -1.124230
H	 -2.810118	 -1.001930	 0.334000
H	 -1.159274	 -1.579980	 0.402282

	symmetry c1
}
set optking {
	frozen_dihedral = ("
		6 3 5 9
	")
}

ee,wfn = optimize('scf', return_wfn=True)
oeprop( wfn, 'DIPOLE', 'QUADRUPOLE', 'MULLIKEN_CHARGES')
f=open( 'psi4out.xyz', 'w' )
f.write( "13  " )
f.write( str(ee) + "\n" )
f.write( MOL.save_string_xyz() )
f.close()
--------------------------------------------------------------------------

    Molecular point group: c1
  Charge       = 0
  Multiplicity = 1
  Basis Set: CC-PVTZ
  Basis Set:
  @DF-RHF Final Energy:  -231.06625425251434
    Total Energy =                       -231.0662542525142840
    Molecular point group: c1
  Basis Set: CC-PVTZ
  Basis Set:
  Basis Set: CC-PVTZ
  Basis Set:
  @DF-RHF Final Energy:  -231.06683283206794
    Total Energy =                       -231.0668328320678881
  Basis Set: CC-PVTZ
  Basis Set:
  Basis Set: CC-PVTZ
  Basis Set:
  @DF-RHF Final Energy:  -231.06809503682777
    Total Energy =                       -231.0680950368278559
  Basis Set: CC-PVTZ
  Basis Set:
  Basis Set: CC-PVTZ
  Basis Set:
  @DF-RHF Final Energy:  -231.06835053454660
    Total Energy =                       -231.0683505345464255
  Basis Set: CC-PVTZ
  Basis Set:
  @DF-RHF Final Energy:  -231.06754009579208
    Total Energy =                       -231.0675400957920829
  @DF-RHF Final Energy:  -231.06849930998649
    Total Energy =                       -231.0684993099866347
  Basis Set: CC-PVTZ
  Basis Set:
  @DF-RHF Final Energy:  -231.06855499828069
    Total Energy =                       -231.0685549982807743
  Basis Set: CC-PVTZ
  Basis Set:
  Basis Set: CC-PVTZ
  Basis Set:
  @DF-RHF Final Energy:  -231.06859064973207
    Total Energy =                       -231.0685906497322435
  Basis Set: CC-PVTZ
  Basis Set:
  Basis Set: CC-PVTZ
  Basis Set:
  @DF-RHF Final Energy:  -231.06859268517834
    Total Energy =                       -231.0685926851784018
  Basis Set: CC-PVTZ
  Basis Set:
  Charge       = 0
  Multiplicity = 1
  Basis Set: CC-PVTZ
  Basis Set:

    Orbital Energies (a.u.)
    -----------------------

    Doubly Occupied:

       1A    -20.552074     2A    -11.320516     3A    -11.237018
       4A    -11.234215     5A    -11.223347     6A     -1.406443
       7A     -1.085979     8A     -0.974238     9A     -0.856745
      10A     -0.778269    11A     -0.683611    12A     -0.646477
      13A     -0.611145    14A     -0.604801    15A     -0.566977
      16A     -0.536394    17A     -0.510505    18A     -0.493966
      19A     -0.482804    20A     -0.410684

  @DF-RHF Final Energy:  -231.06859279859424

   => Energetics <=

    Nuclear Repulsion Energy =            173.9156960510515546
    One-Electron Energy =                -657.5361649238626569
    Two-Electron Energy =                 252.5518760742167785
    DFT Exchange-Correlation Energy =       0.0000000000000000
    Empirical Dispersion Energy =           0.0000000000000000
    PCM Polarization Energy =               0.0000000000000000
    EFP Energy =                            0.0000000000000000
    Total Energy =                       -231.0685927985943238
    Molecular point group: c1
  Basis Set: CC-PVTZ
  Basis Set:

  -Total Gradient:
     Atom            X                  Y                   Z
    ------   -----------------  -----------------  -----------------
       1       -0.000003249632    -0.000010268840    -0.000005176967
       2        0.000004650862     0.000037533861     0.000005828282
       3        0.001329253294    -0.000371804587     0.002780686938
       4       -0.000001629713    -0.000025837930     0.000015547473
       5       -0.000880064664    -0.001443743373    -0.002583045598
       6       -0.000961690595     0.000529381327    -0.001933616916
       7        0.000002562447     0.000002139108    -0.000011792992
       8       -0.000000665366     0.000006024733     0.000003393118
       9        0.000509853354     0.001273542388     0.001725985503
      10       -0.000000817870    -0.000003854692    -0.000000699817
      11        0.000001820869     0.000000329364     0.000002491982
      12        0.000002319911     0.000003302612     0.000000381237
      13       -0.000002342897     0.000003256030     0.000000017757

  **** Optimization is complete! (in 10 steps) ****
    Final optimized geometry and variables:
    Molecular point group: c1

    Geometry (in Angstrom), charge = 0, multiplicity = 1:

    H            0.729921833038    -0.989934784242    -1.214029146832
    C            0.705361564122     0.062017921742    -0.908456994340
    C            0.657850163825     0.322098377938     0.575006962906
    O            0.712655340733     0.913239983845    -1.730205611432
    C           -0.728975599324     0.061808635441     1.184818671812
    H            0.933364725897     1.357607534718     0.723214277642
    H            1.394934454539    -0.314544672963     1.056448980560
    C           -1.301611912115    -1.329787125518     0.929292186881
    H           -1.415294384203     0.821648763763     0.827468213749
    H           -0.646341239388     0.217329225550     2.254967898859
    H           -1.510721251125    -1.498687376085    -0.120518147457
    H           -2.231971506098    -1.458983638427     1.468504466943
    H           -0.617920929636    -2.104220636808     1.261538675316

  Mulliken Charges: (a.u.)
   Center  Symbol    Alpha    Beta     Spin     Total
       1     H     0.46137  0.46137  0.00000  0.07727
       2     C     2.90611  2.90611  0.00000  0.18778
       3     C     3.09084  3.09084  0.00000 -0.18168
       4     O     4.16577  4.16577  0.00000 -0.33155
       5     C     3.09325  3.09325  0.00000 -0.18651
       6     H     0.43869  0.43869  0.00000  0.12261
       7     H     0.44987  0.44987  0.00000  0.10026
       8     C     3.15487  3.15487  0.00000 -0.30974
       9     H     0.44486  0.44486  0.00000  0.11029
      10     H     0.44743  0.44743  0.00000  0.10515
      11     H     0.45098  0.45098  0.00000  0.09805
      12     H     0.44305  0.44305  0.00000  0.11390
      13     H     0.45291  0.45291  0.00000  0.09417

   Total alpha = 20.00000, Total beta = 20.00000, Total charge =  0.00000

*** Psi4 exiting successfully. Buy a developer a beer!
