  ==> Input File <==

--------------------------------------------------------------------------
set {
	reference rhf
	basis 6-31G*
}

set_num_threads( 4 )
memory 2 gb

molecule MOL {
0 1

H	 3.276176	 0.174363	 -0.109463
N	 2.434251	 -0.367735	 -0.081097
C	 1.267428	 0.496480	 0.024474
H	 2.501951	 -0.965776	 0.720575
C	 -0.016086	 -0.325158	 -0.029487
H	 1.288818	 1.183521	 -0.816092
H	 1.267576	 1.109062	 0.929528
C	 -1.282277	 0.529072	 0.046735
H	 -0.012495	 -0.908639	 -0.945788
H	 -0.015903	 -1.041248	 0.791956
C	 -1.329739	 1.411639	 1.293541
H	 -2.155880	 -0.119462	 0.032292
H	 -1.352864	 1.155538	 -0.840122
H	 -1.296367	 0.812219	 2.198693
H	 -2.238862	 2.004265	 1.322021
H	 -0.487117	 2.096814	 1.320815

	symmetry c1
}
set optking {
	frozen_dihedral = ("
		12 8 5 9
	")
}

ee = optimize('scf')
oeprop('DIPOLE', 'QUADRUPOLE', 'MULLIKEN_CHARGES')
f=open( 'psi4out.xyz', 'w' )
f.write( "16  " )
f.write( str(ee) + "\n" )
f.write( MOL.save_string_xyz() )
f.close()
--------------------------------------------------------------------------

    Molecular point group: c1
  Charge       = 0
  Multiplicity = 1
  Basis Set: 6-31G*
  Basis Set:
  @DF-RHF Final Energy:  -212.31358754046525
    Total Energy =                       -212.3135875404653348
    Molecular point group: c1
  Basis Set: 6-31G*
  Basis Set:
  Basis Set: 6-31G*
  Basis Set:
  @DF-RHF Final Energy:  -212.31424537281069
    Total Energy =                       -212.3142453728104897
  Basis Set: 6-31G*
  Basis Set:
  Basis Set: 6-31G*
  Basis Set:
  @DF-RHF Final Energy:  -212.31491363087196
    Total Energy =                       -212.3149136308720131
  Basis Set: 6-31G*
  Basis Set:
  Basis Set: 6-31G*
  Basis Set:
  @DF-RHF Final Energy:  -212.31495979801852
    Total Energy =                       -212.3149597980186059
  Basis Set: 6-31G*
  Basis Set:
  Basis Set: 6-31G*
  Basis Set:
  @DF-RHF Final Energy:  -212.31496299253675
    Total Energy =                       -212.3149629925366071
  Basis Set: 6-31G*
  Basis Set:
  Charge       = 0
  Multiplicity = 1
  Basis Set: 6-31G*
  Basis Set:

    Orbital Energies (a.u.)
    -----------------------

    Doubly Occupied:

       1A    -15.532359     2A    -11.239199     3A    -11.215559
       4A    -11.209985     5A    -11.208883     6A     -1.176354
       7A     -1.058484     8A     -0.954964     9A     -0.859084
      10A     -0.779346    11A     -0.654617    12A     -0.638553
      13A     -0.621743    14A     -0.567346    15A     -0.560044
      16A     -0.535252    17A     -0.502333    18A     -0.466522
      19A     -0.465029    20A     -0.459754    21A     -0.380419

  @DF-RHF Final Energy:  -212.31496330978189

   => Energetics <=

    Nuclear Repulsion Energy =            188.7609715556558285
    One-Electron Energy =                -659.9802152754143663
    Two-Electron Energy =                 258.9042804099767068
    DFT Exchange-Correlation Energy =       0.0000000000000000
    Empirical Dispersion Energy =           0.0000000000000000
    PCM Polarization Energy =               0.0000000000000000
    EFP Energy =                            0.0000000000000000
    Total Energy =                       -212.3149633097818310
    Molecular point group: c1
  Basis Set: 6-31G*
  Basis Set:

  -Total Gradient:
     Atom            X                  Y                   Z
    ------   -----------------  -----------------  -----------------
       1        0.000009619617    -0.000004766778    -0.000002335997
       2        0.000012776329    -0.000002664738     0.000014604564
       3       -0.000007351685     0.000004708629    -0.000019356716
       4        0.000010758699    -0.000005644851     0.000000824986
       5       -0.001046221226    -0.001578091893     0.001376321546
       6       -0.000004084049     0.000006712399     0.000003162090
       7        0.000002135113     0.000001410082     0.000003201918
       8        0.000186248323     0.000361825734    -0.002267860247
       9        0.000833204312     0.001282996813    -0.000813089535
      10       -0.000009892121     0.000004992475    -0.000006444635
      11        0.000010128977     0.000005220891    -0.000005487354
      12       -0.000012029062    -0.000074073717     0.001712079835
      13        0.000012803581    -0.000006606475     0.000008591069
      14        0.000004406163    -0.000001405658    -0.000008614261
      15       -0.000003600505    -0.000004319782    -0.000000080967
      16        0.000001097537     0.000009706869     0.000004483703

  **** Optimization is complete! (in 6 steps) ****
    Final optimized geometry and variables:
    Molecular point group: c1

    Geometry (in Angstrom), charge = 0, multiplicity = 1:

    H            3.045165182871    -0.237032038117    -0.446419059692
    N            2.188648553770    -0.756352048456    -0.424459402407
    C            1.053785638605     0.132493344558    -0.210836884629
    H            2.267768782400    -1.410203205445     0.331489250395
    C           -0.249977956333    -0.661729208837    -0.248009521045
    H            1.050651099837     0.862338465552    -1.015540077053
    H            1.127427768794     0.692525291933     0.722004227035
    C           -1.523322415433     0.190609815024    -0.209705078351
    H           -0.240223403530    -1.247995190844    -1.161643180115
    H           -0.262194663331    -1.368073011454     0.581501442626
    C           -1.660271515891     1.089336681046     1.022286138850
    H           -2.379136545951    -0.479024818826    -0.236795899090
    H           -1.577932060435     0.799853673663    -1.109075104334
    H           -1.570349883585     0.512571813039     1.939188635203
    H           -2.629985128797     1.577358200208     1.034662185983
    H           -0.905333597370     1.868118223936     1.046357256286

  Mulliken Charges: (a.u.)
   Center  Symbol    Alpha    Beta     Spin     Total
       1     H     0.33263  0.33263  0.00000  0.33474
       2     N     3.92163  3.92163  0.00000 -0.84326
       3     C     3.06301  3.06301  0.00000 -0.12602
       4     H     0.33553  0.33553  0.00000  0.32893
       5     C     3.15317  3.15317  0.00000 -0.30633
       6     H     0.42154  0.42154  0.00000  0.15692
       7     H     0.43185  0.43185  0.00000  0.13629
       8     C     3.15562  3.15562  0.00000 -0.31123
       9     H     0.41068  0.41068  0.00000  0.17863
      10     H     0.42808  0.42808  0.00000  0.14384
      11     C     3.24222  3.24222  0.00000 -0.48444
      12     H     0.41991  0.41991  0.00000  0.16018
      13     H     0.42189  0.42189  0.00000  0.15622
      14     H     0.42262  0.42262  0.00000  0.15475
      15     H     0.41895  0.41895  0.00000  0.16211
      16     H     0.42067  0.42067  0.00000  0.15867

   Total alpha = 21.00000, Total beta = 21.00000, Total charge =  0.00000
