  ==> Input File <==

--------------------------------------------------------------------------
set {
	reference rhf
	basis 6-31G*
}

set_num_threads( 4 )
memory 2 gb

molecule MOL {
0 1

O	 0.391030	 1.298905	 0.000133
C	 0.503002	 0.111612	 0.000005
C	 -0.702327	 -0.811998	 -0.000075
C	 1.863306	 -0.554493	 0.000030
C	 -2.030333	 -0.082755	 -0.163647
H	 -0.562345	 -1.543589	 -0.793770
H	 -0.685843	 -1.382586	 0.926706
H	 -2.059302	 0.466057	 -1.097020
H	 -2.853115	 -0.790029	 -0.156522
H	 -2.183896	 0.628485	 0.638709
H	 1.974395	 -1.189404	 -0.874166
H	 2.638695	 0.198920	 -0.000196
H	 1.974487	 -1.188655	 0.874727

	symmetry c1
}
set optking {
	frozen_dihedral = ("
		6 3 2 1
	")
}

ee = optimize('scf')
oeprop('DIPOLE', 'QUADRUPOLE', 'MULLIKEN_CHARGES')
f=open( 'psi4out.xyz', 'w' )
f.write( "13  " )
f.write( str(ee) + "\n" )
f.write( MOL.save_string_xyz() )
f.close()
--------------------------------------------------------------------------

    Molecular point group: c1
  Charge       = 0
  Multiplicity = 1
  Basis Set: 6-31G*
  Basis Set:
  @DF-RHF Final Energy:  -230.99772430773120
    Total Energy =                       -230.9977243077310618
    Molecular point group: c1
  Basis Set: 6-31G*
  Basis Set:
  Basis Set: 6-31G*
  Basis Set:
  @DF-RHF Final Energy:  -230.99727518481620
    Total Energy =                       -230.9972751848163739
  Basis Set: 6-31G*
  Basis Set:
  Basis Set: 6-31G*
  Basis Set:
  @DF-RHF Final Energy:  -230.99775599289998
    Total Energy =                       -230.9977559928998403
  Basis Set: 6-31G*
  Basis Set:
  Basis Set: 6-31G*
  Basis Set:
  @DF-RHF Final Energy:  -230.99776611061287
    Total Energy =                       -230.9977661106129290
  Basis Set: 6-31G*
  Basis Set:
  Basis Set: 6-31G*
  Basis Set:
  @DF-RHF Final Energy:  -230.99777272336939
    Total Energy =                       -230.9977727233693940
  Basis Set: 6-31G*
  Basis Set:
  Basis Set: 6-31G*
  Basis Set:
  @DF-RHF Final Energy:  -230.99777791594462
    Total Energy =                       -230.9977779159447664
  Basis Set: 6-31G*
  Basis Set:
  Charge       = 0
  Multiplicity = 1
  Basis Set: 6-31G*
  Basis Set:

    Orbital Energies (a.u.)
    -----------------------

    Doubly Occupied:

       1A    -20.551319     2A    -11.326984     3A    -11.235076
       4A    -11.229214     5A    -11.214227     6A     -1.396754
       7A     -1.061549     8A     -1.000368     9A     -0.878196
      10A     -0.729992    11A     -0.658851    12A     -0.640379
      13A     -0.621690    14A     -0.583431    15A     -0.570383
      16A     -0.520659    17A     -0.512653    18A     -0.508163
      19A     -0.485297    20A     -0.403150

  @DF-RHF Final Energy:  -230.99777870777390

   => Energetics <=

    Nuclear Repulsion Energy =            176.9470452234765219
    One-Electron Energy =                -663.6329760717828776
    Two-Electron Energy =                 255.6881521405323952
    DFT Exchange-Correlation Energy =       0.0000000000000000
    Empirical Dispersion Energy =           0.0000000000000000
    PCM Polarization Energy =               0.0000000000000000
    EFP Energy =                            0.0000000000000000
    Total Energy =                       -230.9977787077739890
    Molecular point group: c1
  Basis Set: 6-31G*
  Basis Set:

  -Total Gradient:
     Atom            X                  Y                   Z
    ------   -----------------  -----------------  -----------------
       1       -0.000006983737    -0.000002230924     0.000220445892
       2        0.000039327442    -0.000020074606    -0.000278160063
       3       -0.000121433427     0.000149560704    -0.000072349905
       4        0.000000010378     0.000010664546     0.000004482334
       5        0.000001262901    -0.000000927717    -0.000007497760
       6        0.000097878940    -0.000123414522     0.000143249211
       7       -0.000001162076    -0.000000089542     0.000001183629
       8       -0.000003624534     0.000003077518    -0.000002767841
       9        0.000000593408    -0.000001081745    -0.000000837410
      10        0.000002815491    -0.000002008771    -0.000000239444
      11       -0.000004797308    -0.000005585790    -0.000002173437
      12       -0.000001808460    -0.000002124135    -0.000001871650
      13       -0.000002079020    -0.000005765019    -0.000003463555

  **** Optimization is complete! (in 7 steps) ****
    Final optimized geometry and variables:
    Molecular point group: c1

    Geometry (in Angstrom), charge = 0, multiplicity = 1:

    O            0.391116916158     1.300418228876    -0.005037966572
    C            0.502117582971     0.113439499916     0.027402990467
    C           -0.703744455853    -0.808837543436     0.052620933787
    C            1.861712076752    -0.553557583379     0.047096044414
    C           -2.032651877196    -0.082299659465    -0.115267363413
    H           -0.571541031377    -1.565160871537    -0.718396784882
    H           -0.678850606277    -1.350880596613     0.996752536053
    H           -2.072490741588     0.440739426988    -1.063386520474
    H           -2.856256342219    -0.787686743112    -0.079671366163
    H           -2.174887985062     0.650770512486     0.668815770358
    H            2.015318954031    -1.105508017470    -0.876107495988
    H            2.634826518559     0.195515962563     0.146943843327
    H            1.932659500502    -1.265342026826     0.863879263004

  Mulliken Charges: (a.u.)
   Center  Symbol    Alpha    Beta     Spin     Total
       1     O     4.26040  4.26040  0.00000 -0.52079
       2     C     2.73659  2.73659  0.00000  0.52682
       3     C     3.20791  3.20791  0.00000 -0.41582
       4     C     3.28722  3.28722  0.00000 -0.57445
       5     C     3.23522  3.23522  0.00000 -0.47043
       6     H     0.41064  0.41064  0.00000  0.17871
       7     H     0.40820  0.40820  0.00000  0.18359
       8     H     0.41192  0.41192  0.00000  0.17617
       9     H     0.41986  0.41986  0.00000  0.16029
      10     H     0.40872  0.40872  0.00000  0.18255
      11     H     0.40712  0.40712  0.00000  0.18575
      12     H     0.39631  0.39631  0.00000  0.20738
      13     H     0.40989  0.40989  0.00000  0.18023

   Total alpha = 20.00000, Total beta = 20.00000, Total charge = -0.00000
