                              Psi4 1.0.54 Driver

  ==> Input File <==

--------------------------------------------------------------------------
set {
	reference rhf
	basis cc-pvtz
}

set_num_threads( 4 )
memory 2 gb

molecule MOL {
0 1

O	 1.026833	 -0.195625	 -0.575843
C	 0.029490	 0.077183	 0.000078
C	 -1.232113	 -0.748027	 0.000015
O	 -0.108609	 1.167971	 0.735158
C	 -2.501422	 0.088592	 -0.000052
H	 -1.188777	 -1.400384	 -0.865133
H	 -1.188857	 -1.400312	 0.865225
H	 -2.548170	 0.725504	 -0.873205
H	 -3.371613	 -0.556398	 -0.000040
H	 -2.548215	 0.725571	 0.873047
C	 1.003174	 2.036207	 0.823164
H	 1.850788	 1.527335	 1.257714
H	 0.694403	 2.852245	 1.456069
H	 1.276819	 2.405240	 -0.154169

	symmetry c1
}
set optking {
	frozen_dihedral = ("
		4 2 3 6
	")
}

ee,wfn = optimize('scf', return_wfn=True)
oeprop( wfn, 'DIPOLE', 'QUADRUPOLE', 'MULLIKEN_CHARGES')
f=open( 'psi4out.xyz', 'w' )
f.write( "14  " )
f.write( str(ee) + "\n" )
f.write( MOL.save_string_xyz() )
f.close()
--------------------------------------------------------------------------

    Molecular point group: c1
  Charge       = 0
  Multiplicity = 1
  Basis Set: CC-PVTZ
  Basis Set:
  @DF-RHF Final Energy:  -305.98507499513755
    Total Energy =                       -305.9850749951374382
    Molecular point group: c1
  Basis Set: CC-PVTZ
  Basis Set:
  Basis Set: CC-PVTZ
  Basis Set:
  @DF-RHF Final Energy:  -305.98291879087395
    Total Energy =                       -305.9829187908738959
  Basis Set: CC-PVTZ
  Basis Set:
  Basis Set: CC-PVTZ
  Basis Set:
  @DF-RHF Final Energy:  -305.98561831876998
    Total Energy =                       -305.9856183187698093
  Basis Set: CC-PVTZ
  Basis Set:
  Basis Set: CC-PVTZ
  Basis Set:
  @DF-RHF Final Energy:  -305.98541656045455
    Total Energy =                       -305.9854165604545528
  Basis Set: CC-PVTZ
  Basis Set:
  Basis Set: CC-PVTZ
  Basis Set:
  @DF-RHF Final Energy:  -305.98566771980109
    Total Energy =                       -305.9856677198009720
  Basis Set: CC-PVTZ
  Basis Set:
  Basis Set: CC-PVTZ
  Basis Set:
  @DF-RHF Final Energy:  -305.98567563857557
    Total Energy =                       -305.9856756385755716
  Basis Set: CC-PVTZ
  Basis Set:
  Charge       = 0
  Multiplicity = 1
  Basis Set: CC-PVTZ
  Basis Set:

    Orbital Energies (a.u.)
    -----------------------

    Doubly Occupied:

       1A    -20.598946     2A    -20.532269     3A    -11.365046
       4A    -11.279781     5A    -11.237169     6A    -11.221211
       7A     -1.473648     8A     -1.365369     9A     -1.067733
      10A     -0.976165    11A     -0.887702    12A     -0.776994
      13A     -0.697679    14A     -0.684463    15A     -0.676481
      16A     -0.622126    17A     -0.587759    18A     -0.565513
      19A     -0.547468    20A     -0.523014    21A     -0.516184
      22A     -0.500023    23A     -0.460137    24A     -0.437301

  @DF-RHF Final Energy:  -305.98567585139062

   => Energetics <=

    Nuclear Repulsion Energy =            248.8195952768117252
    One-Electron Energy =                -910.4101862923621411
    Two-Electron Energy =                 355.6049151641599906
    DFT Exchange-Correlation Energy =       0.0000000000000000
    Empirical Dispersion Energy =           0.0000000000000000
    PCM Polarization Energy =               0.0000000000000000
    EFP Energy =                            0.0000000000000000
    Total Energy =                       -305.9856758513904538
    Molecular point group: c1
  Basis Set: CC-PVTZ
  Basis Set:

  -Total Gradient:
     Atom            X                  Y                   Z
    ------   -----------------  -----------------  -----------------
       1       -0.000004924986    -0.000010532906     0.000001652857
       2        0.000113465747    -0.000295144642     0.000615663265
       3        0.000256369123    -0.000522947744     0.000405915190
       4       -0.000095250048     0.000320590785    -0.000520696455
       5       -0.000011169242    -0.000000792462    -0.000005057818
       6       -0.000251040171     0.000511424929    -0.000481775831
       7       -0.000004263638    -0.000000927188    -0.000006589845
       8        0.000003307898    -0.000001488355     0.000000829271
       9       -0.000003007821     0.000002029903    -0.000001018784
      10        0.000003846677    -0.000010840888    -0.000004652736
      11        0.000001449893     0.000012391279    -0.000014493981
      12       -0.000004898618    -0.000002923123     0.000000252656
      13       -0.000005042362    -0.000001961981     0.000002749024
      14        0.000001157547     0.000001122397     0.000007223187

  **** Optimization is complete! (in 7 steps) ****
    Final optimized geometry and variables:
    Molecular point group: c1

    Geometry (in Angstrom), charge = 0, multiplicity = 1:

    O            1.282498108405    -0.829091522531    -0.546329480825
    C            0.277770564435    -0.375615913723    -0.113457867012
    C           -1.061526610760    -1.067096134017    -0.193510261761
    O            0.222218474943     0.783897872978     0.517517664296
    C           -2.263616826452    -0.147026268824    -0.382077724945
    H           -0.987794592608    -1.782008343093    -1.000118656331
    H           -1.167753541537    -1.633812143151     0.726643249297
    H           -2.167411733403     0.443124792001    -1.285759785350
    H           -3.167253570923    -0.737965176071    -0.465772569316
    H           -2.377239181302     0.532348925583     0.450504596025
    C            1.434481610580     1.493539561603     0.677365169695
    H            2.143118750930     0.912370265579     1.248370117556
    H            1.181878406840     2.398242680633     1.206100599822
    H            1.865931282740     1.730377108058    -0.283623211589

  Mulliken Charges: (a.u.)
   Center  Symbol    Alpha    Beta     Spin     Total
       1     O     4.20048  4.20048  0.00000 -0.40096
       2     C     2.80502  2.80502  0.00000  0.38996
       3     C     3.08729  3.08729  0.00000 -0.17457
       4     O     4.14637  4.14637  0.00000 -0.29275
       5     C     3.14441  3.14441  0.00000 -0.28882
       6     H     0.43530  0.43530  0.00000  0.12941
       7     H     0.44646  0.44646  0.00000  0.10707
       8     H     0.45146  0.45146  0.00000  0.09707
       9     H     0.44890  0.44890  0.00000  0.10219
      10     H     0.44649  0.44649  0.00000  0.10702
      11     C     3.03457  3.03457  0.00000 -0.06914
      12     H     0.45349  0.45349  0.00000  0.09302
      13     H     0.44613  0.44613  0.00000  0.10773
      14     H     0.45361  0.45361  0.00000  0.09278

   Total alpha = 24.00000, Total beta = 24.00000, Total charge =  0.00000

*** Psi4 exiting successfully. Buy a developer a beer!
