  ==> Input File <==

--------------------------------------------------------------------------
set {
	reference rhf
	basis 6-31G*
}

set_num_threads( 1 )
memory 2 gb

molecule MOL {
0 1

O	 3.225979	 0.970355	 -0.599647
C	 2.701189	 0.057885	 -0.047330
C	 1.245376	 -0.013843	 0.345420
O	 3.347903	 -1.046386	 0.304773
C	 0.483105	 -1.122576	 -0.376917
H	 1.212029	 -0.132855	 1.423341
H	 0.807184	 0.959667	 0.140572
C	 -1.017873	 -1.141681	 -0.068381
H	 0.922690	 -2.082964	 -0.124849
H	 0.624572	 -0.999966	 -1.445269
C	 -1.374826	 -1.492659	 1.378861
H	 -1.488058	 -1.867422	 -0.727890
H	 -1.452792	 -0.176434	 -0.323631
C	 -2.883200	 -1.606437	 1.608775
H	 -0.898353	 -2.434573	 1.646424
H	 -0.972003	 -0.743244	 2.056418
C	 -3.251887	 -1.951690	 3.052728
H	 -3.292373	 -2.364622	 0.943216
H	 -3.361527	 -0.668419	 1.331241
C	 -4.759807	 -2.067223	 3.273022
H	 -2.773912	 -2.888266	 3.332027
H	 -2.847475	 -1.192645	 3.719123
H	 -4.989286	 -2.312531	 4.305384
H	 -5.189351	 -2.843042	 2.645492
H	 -5.263445	 -1.134513	 3.034958
C	 4.728119	 -1.109107	 -0.004993
H	 4.882018	 -1.033965	 -1.071845
H	 5.068212	 -2.067527	 0.355250
H	 5.265056	 -0.311663	 0.488280

	symmetry c1
}
set optking {
	frozen_dihedral = ("
		21 17 14 11,
		17 14 11 15,
		15 11 8 5,
		6 3 5 9,
		11 8 5 9,
		2 4 26 27,
		1 2 4 26
	")
}

ee = energy('scf')
oeprop('DIPOLE', 'QUADRUPOLE', 'MULLIKEN_CHARGES')
f=open( 'psi4out.xyz', 'w' )
f.write( "29  " )
f.write( str(ee) + "\n" )
f.write( MOL.save_string_xyz() )
f.close()
--------------------------------------------------------------------------

    Molecular point group: c1

    Geometry (in Angstrom), charge = 0, multiplicity = 1:

       Center              X                  Y                   Z               Mass
    ------------   -----------------  -----------------  -----------------  -----------------
           O          2.962041286603     1.925698862164    -1.403513788434    15.994914619560
           C          2.437251286603     1.013228862164    -0.851196788434    12.000000000000
           C          0.981438286603     0.941500862164    -0.458446788434    12.000000000000
           O          3.083965286603    -0.091042137836    -0.499093788434    15.994914619560
           C          0.219167286603    -0.167232137836    -1.180783788434    12.000000000000
           H          0.948091286603     0.822488862164     0.619474211566     1.007825032070
           H          0.543246286603     1.915010862164    -0.663294788434     1.007825032070
           C         -1.281810713397    -0.186337137836    -0.872247788434    12.000000000000
           H          0.658752286603    -1.127620137836    -0.928715788434     1.007825032070
           H          0.360634286603    -0.044622137836    -2.249135788434     1.007825032070
           C         -1.638763713397    -0.537315137836     0.574994211566    12.000000000000
           H         -1.751995713397    -0.912078137836    -1.531756788434     1.007825032070
           H         -1.716729713397     0.778909862164    -1.127497788434     1.007825032070
           C         -3.147137713397    -0.651093137836     0.804908211566    12.000000000000
           H         -1.162290713397    -1.479229137836     0.842557211566     1.007825032070
           H         -1.235940713397     0.212099862164     1.252551211566     1.007825032070
           C         -3.515824713397    -0.996346137836     2.248861211566    12.000000000000
           H         -3.556310713397    -1.409278137836     0.139349211566     1.007825032070
           H         -3.625464713397     0.286924862164     0.527374211566     1.007825032070
           C         -5.023744713397    -1.111879137836     2.469155211566    12.000000000000
           H         -3.037849713397    -1.932922137836     2.528160211566     1.007825032070
           H         -3.111412713397    -0.237301137836     2.915256211566     1.007825032070
           H         -5.253223713397    -1.357187137836     3.501517211566     1.007825032070
           H         -5.453288713397    -1.887698137836     1.841625211566     1.007825032070
           H         -5.527382713397    -0.179169137836     2.231091211566     1.007825032070
           C          4.464181286603    -0.153763137836    -0.808859788434    12.000000000000
           H          4.618080286603    -0.078621137836    -1.875711788434     1.007825032070
           H          4.804274286603    -1.112183137836    -0.448616788434     1.007825032070
           H          5.001118286603     0.643680862164    -0.315586788434     1.007825032070

  Charge       = 0
  Multiplicity = 1
  Basis Set: 6-31G*
  Basis Set:

    Orbital Energies (a.u.)
    -----------------------

    Doubly Occupied:

       1A    -20.603678     2A    -20.543776     3A    -11.370705
       4A    -11.280527     5A    -11.233089     6A    -11.227928
       7A    -11.221632     8A    -11.218170     9A    -11.217127
      10A    -11.216111    11A    -11.210023    12A     -1.468560
      13A     -1.361221    14A     -1.101631    15A     -1.069356
      16A     -1.019903    17A     -0.974817    18A     -0.931038
      19A     -0.865429    20A     -0.800655    21A     -0.791513
      22A     -0.772958    23A     -0.697295    24A     -0.679138
      25A     -0.672229    26A     -0.652623    27A     -0.627835
      28A     -0.607173    29A     -0.589835    30A     -0.576145
      31A     -0.572203    32A     -0.549791    33A     -0.538000
      34A     -0.533208    35A     -0.517900    36A     -0.516154
      37A     -0.500999    38A     -0.479814    39A     -0.473483
      40A     -0.464474    41A     -0.461649    42A     -0.453903
      43A     -0.447643    44A     -0.427037

  @DF-RHF Final Energy:  -501.04254627559646

   => Energetics <=

    Nuclear Repulsion Energy =            613.3182147130154362
    One-Electron Energy =               -1897.6449354220794703
    Two-Electron Energy =                 783.2841744334672285
    DFT Exchange-Correlation Energy =       0.0000000000000000
    Empirical Dispersion Energy =           0.0000000000000000
    PCM Polarization Energy =               0.0000000000000000
    EFP Energy =                            0.0000000000000000
    Total Energy =                       -501.0425462755966919

  Mulliken Charges: (a.u.)
   Center  Symbol    Alpha    Beta     Spin     Total
       1     O     4.28526  4.28526  0.00000 -0.57052
       2     C     2.61577  2.61577  0.00000  0.76846
       3     C     3.19827  3.19827  0.00000 -0.39654
       4     O     4.30188  4.30188  0.00000 -0.60376
       5     C     3.16445  3.16445  0.00000 -0.32890
       6     H     0.40271  0.40271  0.00000  0.19458
       7     H     0.40056  0.40056  0.00000  0.19889
       8     C     3.15535  3.15535  0.00000 -0.31071
       9     H     0.40863  0.40863  0.00000  0.18273
      10     H     0.41264  0.41264  0.00000  0.17472
      11     C     3.15494  3.15494  0.00000 -0.30988
      12     H     0.41835  0.41835  0.00000  0.16329
      13     H     0.42088  0.42088  0.00000  0.15823
      14     C     3.15065  3.15065  0.00000 -0.30129
      15     H     0.42223  0.42223  0.00000  0.15554
      16     H     0.42247  0.42247  0.00000  0.15507
      17     C     3.15158  3.15158  0.00000 -0.30316
      18     H     0.42350  0.42350  0.00000  0.15300
      19     H     0.42334  0.42334  0.00000  0.15331
      20     C     3.23944  3.23944  0.00000 -0.47888
      21     H     0.42282  0.42282  0.00000  0.15437
      22     H     0.42301  0.42301  0.00000  0.15399
      23     H     0.41899  0.41899  0.00000  0.16202
      24     H     0.42162  0.42162  0.00000  0.15677
      25     H     0.42152  0.42152  0.00000  0.15696
      26     C     3.09230  3.09230  0.00000 -0.18461
      27     H     0.40902  0.40902  0.00000  0.18197
      28     H     0.40894  0.40894  0.00000  0.18212
      29     H     0.40888  0.40888  0.00000  0.18224

   Total alpha = 44.00000, Total beta = 44.00000, Total charge = -0.00000
