                              Psi4 1.0.54 Driver

  ==> Input File <==

--------------------------------------------------------------------------
set {
	reference rhf
	basis cc-pvtz
}

set_num_threads( 4 )
memory 2 gb

molecule MOL {
0 1

O	 -2.440701	 -0.934798	 -0.415053
C	 -1.922978	 0.063265	 -0.045005
C	 -2.632749	 1.372204	 0.158357
O	 -0.637375	 0.157174	 0.243149
H	 -2.187724	 2.129143	 -0.474664
H	 -3.677681	 1.257276	 -0.079438
H	 -2.516788	 1.693160	 1.185542
C	 0.162530	 -1.009518	 0.097799
C	 1.587210	 -0.664190	 0.477086
H	 0.096803	 -1.356267	 -0.924704
H	 -0.233803	 -1.785900	 0.736810
C	 2.256770	 0.342732	 -0.454344
H	 2.154716	 -1.590834	 0.479041
H	 1.598751	 -0.289614	 1.496104
C	 3.531875	 -0.201370	 -1.089697
H	 1.556385	 0.625741	 -1.235667
H	 2.484428	 1.247225	 0.097840
H	 3.983845	 0.531061	 -1.748221
H	 3.330599	 -1.092551	 -1.675082
H	 4.264779	 -0.462476	 -0.333593

	symmetry c1
}
set optking {
	frozen_dihedral = ("
		16 12 9 8
	")
}

ee,wfn = optimize('scf', return_wfn=True)
oeprop( wfn, 'DIPOLE', 'QUADRUPOLE', 'MULLIKEN_CHARGES')
f=open( 'psi4out.xyz', 'w' )
f.write( "20  " )
f.write( str(ee) + "\n" )
f.write( MOL.save_string_xyz() )
f.close()
--------------------------------------------------------------------------

    Molecular point group: c1
  Charge       = 0
  Multiplicity = 1
  Basis Set: CC-PVTZ
  Basis Set:
  @DF-RHF Final Energy:  -384.08208144252728
    Total Energy =                       -384.0820814425273966
    Molecular point group: c1
  Basis Set: CC-PVTZ
  Basis Set:
  Basis Set: CC-PVTZ
  Basis Set:
  @DF-RHF Final Energy:  -384.08231103362499
    Total Energy =                       -384.0823110336250465
  Basis Set: CC-PVTZ
  Basis Set:
  Basis Set: CC-PVTZ
  Basis Set:
  @DF-RHF Final Energy:  -384.08222842289103
    Total Energy =                       -384.0822284228913759
  Basis Set: CC-PVTZ
  Basis Set:
  Basis Set: CC-PVTZ
  Basis Set:
  @DF-RHF Final Energy:  -384.08238825528588
    Total Energy =                       -384.0823882552853092
  Basis Set: CC-PVTZ
  Basis Set:
  Charge       = 0
  Multiplicity = 1
  Basis Set: CC-PVTZ
  Basis Set:

    Orbital Energies (a.u.)
    -----------------------

    Doubly Occupied:

       1A    -20.594231     2A    -20.532664     3A    -11.366613
       4A    -11.280356     5A    -11.231575     6A    -11.223206
       7A    -11.219307     8A    -11.212259     9A     -1.470946
      10A     -1.365126    11A     -1.085232    12A     -1.028647
      13A     -0.982112    14A     -0.882027    15A     -0.813731
      16A     -0.774491    17A     -0.692284    18A     -0.690270
      19A     -0.669495    20A     -0.627468    21A     -0.603617
      22A     -0.590235    23A     -0.573745    24A     -0.559036
      25A     -0.544424    26A     -0.530745    27A     -0.512527
      28A     -0.485767    29A     -0.476276    30A     -0.468691
      31A     -0.451526    32A     -0.441736

  @DF-RHF Final Energy:  -384.08238852013568

   => Energetics <=

    Nuclear Repulsion Energy =            386.1517542833786933
    One-Electron Energy =               -1288.5075596195495109
    Two-Electron Energy =                 518.2734168160353647
    DFT Exchange-Correlation Energy =       0.0000000000000000
    Empirical Dispersion Energy =           0.0000000000000000
    PCM Polarization Energy =               0.0000000000000000
    EFP Energy =                            0.0000000000000000
    Total Energy =                       -384.0823885201353960
    Molecular point group: c1
  Basis Set: CC-PVTZ
  Basis Set:

  -Total Gradient:
     Atom            X                  Y                   Z
    ------   -----------------  -----------------  -----------------
       1       -0.000054943495    -0.000097480334    -0.000041897581
       2        0.000000386841     0.000041033023    -0.000098798164
       3        0.000015036231    -0.000025417418     0.000046267352
       4        0.000094578336     0.000073506555    -0.000069648899
       5        0.000023442549     0.000029282938    -0.000026853710
       6       -0.000015657793    -0.000025476845    -0.000006739647
       7       -0.000000606715     0.000035024781     0.000051826922
       8        0.000092545038    -0.000494169811    -0.000032186532
       9       -0.000268745576     0.000863830866     0.000401381355
      10       -0.000049322620     0.000034644726    -0.000066426088
      11        0.000067757956    -0.000015720610    -0.000049650465
      12        0.000378767523    -0.000951454848    -0.000598073465
      13        0.000051744779     0.000009059989    -0.000022279447
      14       -0.000010437092     0.000025465728    -0.000006208543
      15        0.000023694139    -0.000079446984     0.000004564409
      16       -0.000327250649     0.000586559871     0.000475517948
      17       -0.000009661489    -0.000012813258     0.000033008577
      18       -0.000026039146     0.000012567935     0.000012014521
      19        0.000006305621    -0.000006399206    -0.000005446500
      20        0.000008405564    -0.000002597096    -0.000000372044

  **** Optimization is complete! (in 5 steps) ****
    Final optimized geometry and variables:
    Molecular point group: c1

    Geometry (in Angstrom), charge = 0, multiplicity = 1:

    O           -2.414782546971    -0.813867374087    -0.313967064282
    C           -1.896877883467     0.176979562248     0.074868744358
    C           -2.599127460752     1.490681302007     0.271364225323
    O           -0.617033758460     0.257046834747     0.391803860917
    H           -2.132517617476     2.247769911574    -0.345764643660
    H           -3.639408741560     1.387040470677     0.009050096223
    H           -2.503497973267     1.803121737484     1.303275346133
    C            0.175211781728    -0.916284409164     0.257807202819
    C            1.601115367023    -0.569658319467     0.629023885675
    H            0.106671467391    -1.272228029646    -0.761423177356
    H           -0.223733100123    -1.684219946105     0.905559052802
    C            2.271671309483     0.447328268068    -0.315974627705
    H            2.160731136125    -1.499826987279     0.627895175233
    H            1.614193439639    -0.206908443715     1.650215732317
    C            3.556447820175    -0.074848959554    -0.951811247742
    H            1.574849147317     0.734236930521    -1.095613509950
    H            2.490224461676     1.358900787239     0.227808954142
    H            4.000518396993     0.667933595450    -1.604456279295
    H            3.367093875579    -0.964866287133    -1.543110336877
    H            4.290326732979    -0.332541729320    -0.195336127243

  Mulliken Charges: (a.u.)
   Center  Symbol    Alpha    Beta     Spin     Total
       1     O     4.19730  4.19730  0.00000 -0.39459
       2     C     2.80880  2.80880  0.00000  0.38241
       3     C     3.13808  3.13808  0.00000 -0.27615
       4     O     4.15388  4.15388  0.00000 -0.30777
       5     H     0.44604  0.44604  0.00000  0.10792
       6     H     0.43807  0.43807  0.00000  0.12385
       7     H     0.44571  0.44571  0.00000  0.10858
       8     C     2.99334  2.99334  0.00000  0.01332
       9     C     3.08988  3.08988  0.00000 -0.17976
      10     H     0.45103  0.45103  0.00000  0.09795
      11     H     0.44470  0.44470  0.00000  0.11060
      12     C     3.08683  3.08683  0.00000 -0.17366
      13     H     0.45171  0.45171  0.00000  0.09658
      14     H     0.44797  0.44797  0.00000  0.10406
      15     C     3.14779  3.14779  0.00000 -0.29558
      16     H     0.45173  0.45173  0.00000  0.09654
      17     H     0.44887  0.44887  0.00000  0.10225
      18     H     0.44853  0.44853  0.00000  0.10294
      19     H     0.45537  0.45537  0.00000  0.08926
      20     H     0.45438  0.45438  0.00000  0.09125

   Total alpha = 32.00000, Total beta = 32.00000, Total charge = -0.00000

*** Psi4 exiting successfully. Buy a developer a beer!
