                              Psi4 1.0.54 Driver

  ==> Input File <==

--------------------------------------------------------------------------
set {
	reference rhf
	basis cc-pvtz
}

set_num_threads( 4 )
memory 2 gb

molecule MOL {
0 1

H	 2.342730	 0.877684	 -1.045694
C	 2.360424	 0.000000	 -0.411793
C	 1.173749	 0.000000	 0.526870
H	 3.286567	 0.000000	 0.151574
H	 2.342730	 -0.877684	 -1.045694
O	 0.000000	 0.000000	 -0.223739
H	 1.203779	 0.876757	 1.172538
H	 1.203779	 -0.876757	 1.172538
C	 -1.173749	 0.000000	 0.526870
C	 -2.189111	 0.899102	 -0.143907
H	 -0.970034	 0.350007	 1.538051
H	 -1.563967	 -1.013621	 0.609301
H	 -1.811307	 1.911389	 -0.214692
H	 -3.112338	 0.914408	 0.424021
H	 -2.405867	 0.546320	 -1.144424

	symmetry c1
}
set optking {
	frozen_dihedral = ("
		11 9 6 3
	")
}

ee,wfn = optimize('scf', return_wfn=True)
oeprop( wfn, 'DIPOLE', 'QUADRUPOLE', 'MULLIKEN_CHARGES')
f=open( 'psi4out.xyz', 'w' )
f.write( "15  " )
f.write( str(ee) + "\n" )
f.write( MOL.save_string_xyz() )
f.close()
--------------------------------------------------------------------------

    Molecular point group: c1
  Charge       = 0
  Multiplicity = 1
  Basis Set: CC-PVTZ
  Basis Set:
  @DF-RHF Final Energy:  -232.23078250219399
    Total Energy =                       -232.2307825021939038
    Molecular point group: c1
  Basis Set: CC-PVTZ
  Basis Set:
  Basis Set: CC-PVTZ
  Basis Set:
  @DF-RHF Final Energy:  -232.23094881187194
    Total Energy =                       -232.2309488118718264
  Basis Set: CC-PVTZ
  Basis Set:
  Basis Set: CC-PVTZ
  Basis Set:
  @DF-RHF Final Energy:  -232.23101575373315
    Total Energy =                       -232.2310157537331179
  Basis Set: CC-PVTZ
  Basis Set:
  Charge       = 0
  Multiplicity = 1
  Basis Set: CC-PVTZ
  Basis Set:

    Orbital Energies (a.u.)
    -----------------------

    Doubly Occupied:

       1A    -20.543128     2A    -11.266797     3A    -11.265873
       4A    -11.207337     5A    -11.206946     6A     -1.378082
       7A     -1.044424     8A     -0.983787     9A     -0.849688
      10A     -0.824953    11A     -0.674937    12A     -0.666280
      13A     -0.621563    14A     -0.585760    15A     -0.550349
      16A     -0.535019    17A     -0.522829    18A     -0.498287
      19A     -0.486284    20A     -0.465696    21A     -0.409081

  @DF-RHF Final Energy:  -232.23101635272809

   => Energetics <=

    Nuclear Repulsion Energy =            191.3177169095762906
    One-Electron Energy =                -693.9232673266278653
    Two-Electron Energy =                 270.3745340643235977
    DFT Exchange-Correlation Energy =       0.0000000000000000
    Empirical Dispersion Energy =           0.0000000000000000
    PCM Polarization Energy =               0.0000000000000000
    EFP Energy =                            0.0000000000000000
    Total Energy =                       -232.2310163527279769
    Molecular point group: c1
  Basis Set: CC-PVTZ
  Basis Set:

  -Total Gradient:
     Atom            X                  Y                   Z
    ------   -----------------  -----------------  -----------------
       1       -0.000001635289    -0.000006289370     0.000004513866
       2        0.000019746257     0.000006094413     0.000016267082
       3        0.000076418780     0.002115218257    -0.000000806338
       4        0.000033062985     0.000003336792    -0.000006234325
       5       -0.000009248725     0.000010285569     0.000014594878
       6        0.000021163095    -0.003765051886     0.000213439791
       7       -0.000015082628    -0.000007555485    -0.000016888409
       8       -0.000006208808     0.000013623583    -0.000006091170
       9       -0.000531193254     0.004132290713    -0.001002824699
      10       -0.000028471575    -0.000017273480    -0.000005003527
      11        0.000441658794    -0.002479180196     0.000766996060
      12       -0.000015048750     0.000011572377    -0.000005746333
      13        0.000015803170    -0.000022712131     0.000010625278
      14       -0.000000521572    -0.000003309958     0.000002934714
      15       -0.000000442479     0.000008950802     0.000014223132

  **** Optimization is complete! (in 4 steps) ****
    Final optimized geometry and variables:
    Molecular point group: c1

    Geometry (in Angstrom), charge = 0, multiplicity = 1:

    H            2.307212044958     0.686230640046    -1.108345117997
    C            2.329687658003    -0.189524152172    -0.471769453940
    C            1.152516445125    -0.183597608561     0.478601257789
    H            3.261514554762    -0.189914295985     0.082528678969
    H            2.303733922906    -1.069028205551    -1.102889254075
    O           -0.027545448728    -0.174414848308    -0.263460283586
    H            1.193452691356     0.692724266946     1.123279601016
    H            1.188180958465    -1.061067456816     1.123200674995
    C           -1.215165081092    -0.169137099772     0.473525128809
    C           -2.241808610463     0.706011386381    -0.213335651036
    H           -1.030625715747     0.175446372386     1.487828992209
    H           -1.589149086633    -1.187585764158     0.557317434648
    H           -1.899766784622     1.732739765044    -0.260380925421
    H           -3.183310237133     0.678869235352     0.324219994514
    H           -2.414490275986     0.359902382992    -1.224830845097

  Mulliken Charges: (a.u.)
   Center  Symbol    Alpha    Beta     Spin     Total
       1     H     0.45174  0.45174  0.00000  0.09651
       2     C     3.13687  3.13687  0.00000 -0.27374
       3     C     2.96468  2.96468  0.00000  0.07064
       4     H     0.45919  0.45919  0.00000  0.08163
       5     H     0.45142  0.45142  0.00000  0.09715
       6     O     4.18273  4.18273  0.00000 -0.36547
       7     H     0.47376  0.47376  0.00000  0.05248
       8     H     0.47329  0.47329  0.00000  0.05341
       9     C     2.97118  2.97118  0.00000  0.05764
      10     C     3.13388  3.13388  0.00000 -0.26775
      11     H     0.47314  0.47314  0.00000  0.05371
      12     H     0.46402  0.46402  0.00000  0.07195
      13     H     0.45444  0.45444  0.00000  0.09112
      14     H     0.45903  0.45903  0.00000  0.08194
      15     H     0.45061  0.45061  0.00000  0.09878

   Total alpha = 21.00000, Total beta = 21.00000, Total charge = -0.00000

*** Psi4 exiting successfully. Buy a developer a beer!
