  ==> Input File <==

--------------------------------------------------------------------------
set {
	reference rhf
	basis cc-pvtz
}

set_num_threads( 4 )
memory 2 gb

molecule MOL {
0 1

H	 3.535154	 -1.382112	 -3.283796
C	 2.951285	 -1.590123	 -2.395012
C	 1.687946	 -0.737392	 -2.356590
H	 2.709756	 -2.647801	 -2.399557
H	 3.582777	 -1.399820	 -1.533607
C	 0.837058	 -0.997276	 -1.122322
H	 1.085543	 -0.923384	 -3.238794
H	 1.962731	 0.314370	 -2.386040
N	 -0.364475	 -0.191031	 -1.127019
H	 0.541154	 -2.041927	 -1.104587
H	 1.440874	 -0.832875	 -0.224846
C	 -1.215959	 -0.382435	 0.027143
H	 -0.122305	 0.774193	 -1.210775
C	 -2.451944	 0.502410	 -0.038737
H	 -1.521868	 -1.424094	 0.050475
H	 -0.686430	 -0.195796	 0.966208
C	 -3.752217	 -0.292550	 0.005776
H	 -2.407325	 1.093801	 -0.946480
H	 -2.431979	 1.206234	 0.790023
H	 -3.817783	 -0.982946	 -0.828547
H	 -4.612613	 0.364348	 -0.042306
H	 -3.830160	 -0.871666	 0.919868

	symmetry c1
}
set optking {
	frozen_dihedral = ("
		15 12 14 18
	")
}

ee = optimize('scf')
oeprop('DIPOLE', 'QUADRUPOLE', 'MULLIKEN_CHARGES')
f=open( 'psi4out.xyz', 'w' )
f.write( "22  " )
f.write( str(ee) + "\n" )
f.write( MOL.save_string_xyz() )
f.close()
--------------------------------------------------------------------------

    Molecular point group: c1
  Charge       = 0
  Multiplicity = 1
  Basis Set: CC-PVTZ
  Basis Set:
  @DF-RHF Final Energy:  -290.48397788177363
    Total Energy =                       -290.4839778817737397
    Molecular point group: c1
  Basis Set: CC-PVTZ
  Basis Set:
  Basis Set: CC-PVTZ
  Basis Set:
  @DF-RHF Final Energy:  -290.48424923468536
    Total Energy =                       -290.4842492346851373
  Basis Set: CC-PVTZ
  Basis Set:
  Basis Set: CC-PVTZ
  Basis Set:
  @DF-RHF Final Energy:  -290.48432987099375
    Total Energy =                       -290.4843298709937471
  Basis Set: CC-PVTZ
  Basis Set:
  Charge       = 0
  Multiplicity = 1
  Basis Set: CC-PVTZ
  Basis Set:

    Orbital Energies (a.u.)
    -----------------------

    Doubly Occupied:

       1A    -15.528967     2A    -11.236248     3A    -11.236017
       4A    -11.211953     5A    -11.211534     6A    -11.207636
       7A    -11.205858     8A     -1.207088     9A     -1.058416
      10A     -1.025473    11A     -0.927808    12A     -0.869486
      13A     -0.812302    14A     -0.794542    15A     -0.664037
      16A     -0.632137    17A     -0.615654    18A     -0.609279
      19A     -0.573986    20A     -0.563262    21A     -0.538894
      22A     -0.526207    23A     -0.510093    24A     -0.487511
      25A     -0.476672    26A     -0.475140    27A     -0.465790
      28A     -0.451144    29A     -0.360681

  @DF-RHF Final Energy:  -290.48433053465408

   => Energetics <=

    Nuclear Repulsion Energy =            314.3034663058493834
    One-Electron Energy =               -1014.6079771296374474
    Two-Electron Energy =                 409.8201802891337593
    DFT Exchange-Correlation Energy =       0.0000000000000000
    Empirical Dispersion Energy =           0.0000000000000000
    PCM Polarization Energy =               0.0000000000000000
    EFP Energy =                            0.0000000000000000
    Total Energy =                       -290.4843305346543048
    Molecular point group: c1
  Basis Set: CC-PVTZ
  Basis Set:

  -Total Gradient:
     Atom            X                  Y                   Z
    ------   -----------------  -----------------  -----------------
       1        0.000012091595    -0.000007375550    -0.000001849365
       2        0.000016396878     0.000006341415    -0.000024644494
       3        0.000025688200    -0.000033217663     0.000007244029
       4       -0.000001496724     0.000002671549     0.000000018915
       5       -0.000003576596     0.000001109649    -0.000001412422
       6       -0.000016996174     0.000043241705    -0.000031049044
       7        0.000002514275    -0.000001186833     0.000003138081
       8       -0.000000002936    -0.000002033970     0.000004520632
       9       -0.000033642769    -0.000045300777     0.000110476825
      10        0.000008461713     0.000002093370    -0.000002948179
      11        0.000006497533    -0.000011293540     0.000003626860
      12        0.000092930597     0.000150929704    -0.000725269483
      13       -0.000024556630    -0.000019254836     0.000012470661
      14       -0.000377906452    -0.000511375574    -0.000179725838
      15       -0.000003290104     0.000012498569     0.000527660543
      16        0.000011005697    -0.000011549447     0.000020567047
      17        0.000016140811     0.000026597604     0.000014406586
      18        0.000273208093     0.000399998390     0.000253781960
      19       -0.000005976614    -0.000001002784    -0.000002342736
      20        0.000011410387    -0.000000128378     0.000008940901
      21       -0.000002184555     0.000002990210    -0.000005543319
      22       -0.000006716222    -0.000004752811     0.000007931837

  **** Optimization is complete! (in 4 steps) ****
    Final optimized geometry and variables:
    Molecular point group: c1

    Geometry (in Angstrom), charge = 0, multiplicity = 1:

    H            3.867392034422    -0.852952291878    -2.288395847991
    C            3.285449069812    -1.057834120520    -1.397595939914
    C            2.018858030993    -0.209816778521    -1.362617059174
    H            3.047974777920    -2.116431828380    -1.395366920552
    H            3.917216406076    -0.859767461954    -0.538148988835
    C            1.169852040698    -0.466482430587    -0.126242920957
    H            1.416593508699    -0.402951130929    -2.243352742357
    H            2.289612114133     0.842810126651    -1.397797253667
    N           -0.035689814096     0.333538502061    -0.134980164432
    H            0.878998365119    -1.512505498799    -0.101957496565
    H            1.773168170899    -0.294013621078     0.770086289531
    C           -0.882540746376     0.142940783844     1.025834111765
    H            0.203501533972     1.299517233293    -0.220096320400
    C           -2.135269807263     1.034429651890     0.972703686910
    H           -1.176525401119    -0.900854708066     1.050076810200
    H           -0.338776991712     0.322869272265     1.956118001214
    C           -3.442408652627     0.248973729859     1.004144641765
    H           -2.099404649393     1.627024243765     0.065674078880
    H           -2.122759233792     1.737253016032     1.799133540427
    H           -3.503173308219    -0.431181117994     0.161666349266
    H           -4.299701841143     0.911189587601     0.961736262854
    H           -3.524209128544    -0.339513749287     1.912196655042

  Mulliken Charges: (a.u.)
   Center  Symbol    Alpha    Beta     Spin     Total
       1     H     0.44770  0.44770  0.00000  0.10459
       2     C     3.15359  3.15359  0.00000 -0.30718
       3     C     3.08029  3.08029  0.00000 -0.16059
       4     H     0.45473  0.45473  0.00000  0.09054
       5     H     0.45614  0.45614  0.00000  0.08772
       6     C     3.02138  3.02138  0.00000 -0.04275
       7     H     0.44914  0.44914  0.00000  0.10172
       8     H     0.45971  0.45971  0.00000  0.08058
       9     N     3.63840  3.63840  0.00000 -0.27680
      10     H     0.45932  0.45932  0.00000  0.08135
      11     H     0.47438  0.47438  0.00000  0.05123
      12     C     3.03046  3.03046  0.00000 -0.06092
      13     H     0.44438  0.44438  0.00000  0.11124
      14     C     3.08546  3.08546  0.00000 -0.17092
      15     H     0.45991  0.45991  0.00000  0.08018
      16     H     0.47056  0.47056  0.00000  0.05889
      17     C     3.14978  3.14978  0.00000 -0.29956
      18     H     0.45436  0.45436  0.00000  0.09128
      19     H     0.45236  0.45236  0.00000  0.09527
      20     H     0.45171  0.45171  0.00000  0.09659
      21     H     0.45038  0.45038  0.00000  0.09925
      22     H     0.45586  0.45586  0.00000  0.08827

   Total alpha = 29.00000, Total beta = 29.00000, Total charge = -0.00000
