                              Psi4 1.0.54 Driver

  ==> Input File <==

--------------------------------------------------------------------------
set {
	reference rhf
	basis cc-pvtz
}

set_num_threads( 4 )
memory 2 gb

molecule MOL {
0 1

O	 2.356797	 2.144438	 0.053464
C	 1.265877	 2.601940	 0.156878
C	 0.020950	 1.738252	 0.151131
C	 1.046413	 4.090846	 0.302549
C	 0.288398	 0.247429	 0.000314
H	 -0.522505	 1.941220	 1.071201
H	 -0.622840	 2.097195	 -0.648681
C	 -0.993089	 -0.581367	 -0.000217
H	 0.938696	 -0.080093	 0.803406
H	 0.838409	 0.076067	 -0.917976
C	 -2.258482	 0.271340	 0.000669
H	 -1.002280	 -1.233920	 -0.870484
H	 -1.002061	 -1.235367	 0.868958
C	 -3.544441	 -0.550271	 -0.000253
H	 -2.250545	 0.925250	 -0.867923
H	 -2.250598	 0.923423	 0.870642
C	 -4.804551	 0.308747	 0.000556
H	 -3.553737	 -1.201524	 -0.870151
H	 -3.553831	 -1.203282	 0.868313
H	 -4.842050	 0.949078	 -0.874436
H	 -5.698404	 -0.304480	 -0.000254
H	 -4.842277	 0.947103	 0.876982
H	 0.524148	 4.303123	 1.228954
H	 1.995963	 4.603378	 0.295027
H	 0.426751	 4.458418	 -0.507977

	symmetry c1
}
set optking {
	frozen_dihedral = ("
		9 5 8 12
	")
}

ee,wfn = optimize('scf', return_wfn=True)
oeprop( wfn, 'DIPOLE', 'QUADRUPOLE', 'MULLIKEN_CHARGES')
f=open( 'psi4out.xyz', 'w' )
f.write( "25  " )
f.write( str(ee) + "\n" )
f.write( MOL.save_string_xyz() )
f.close()
--------------------------------------------------------------------------

    Molecular point group: c1
  Charge       = 0
  Multiplicity = 1
  Basis Set: CC-PVTZ
  Basis Set:
  @DF-RHF Final Energy:  -387.25911714453719
    Total Energy =                       -387.2591171445367308
    Molecular point group: c1
  Basis Set: CC-PVTZ
  Basis Set:
  Basis Set: CC-PVTZ
  Basis Set:
  @DF-RHF Final Energy:  -387.25429892391651
    Total Energy =                       -387.2542989239162807
  Basis Set: CC-PVTZ
  Basis Set:
  Basis Set: CC-PVTZ
  Basis Set:
  @DF-RHF Final Energy:  -387.26342466168234
    Total Energy =                       -387.2634246616823930
  Basis Set: CC-PVTZ
  Basis Set:
  Basis Set: CC-PVTZ
  Basis Set:
  @DF-RHF Final Energy:  -387.26424247284660
    Total Energy =                       -387.2642424728463766
  Basis Set: CC-PVTZ
  Basis Set:
  @DF-RHF Final Energy:  -387.26423941793377
    Total Energy =                       -387.2642394179338226
  Basis Set: CC-PVTZ
  Basis Set:
  @DF-RHF Final Energy:  -387.26251001040993
    Total Energy =                       -387.2625100104103240
  Basis Set: CC-PVTZ
  Basis Set:
  Basis Set: CC-PVTZ
  Basis Set:
  @DF-RHF Final Energy:  -387.26436504310516
    Total Energy =                       -387.2643650431053857
  Basis Set: CC-PVTZ
  Basis Set:
  Basis Set: CC-PVTZ
  Basis Set:
  @DF-RHF Final Energy:  -387.26437521078492
    Total Energy =                       -387.2643752107846922
  Basis Set: CC-PVTZ
  Basis Set:
  Charge       = 0
  Multiplicity = 1
  Basis Set: CC-PVTZ
  Basis Set:

    Orbital Energies (a.u.)
    -----------------------

    Doubly Occupied:

       1A    -20.538456     2A    -11.320014     3A    -11.229399
       4A    -11.226179     5A    -11.216009     6A    -11.215568
       7A    -11.215263     8A    -11.214845     9A    -11.209370
      10A     -1.398566    11A     -1.093539    12A     -1.056670
      13A     -1.013905    14A     -0.968703    15A     -0.900635
      16A     -0.818312    17A     -0.786775    18A     -0.727545
      19A     -0.662601    20A     -0.656625    21A     -0.633609
      22A     -0.623902    23A     -0.596470    24A     -0.585001
      25A     -0.569395    26A     -0.560542    27A     -0.544029
      28A     -0.526359    29A     -0.524290    30A     -0.494603
      31A     -0.494328    32A     -0.477584    33A     -0.460756
      34A     -0.451045    35A     -0.448402    36A     -0.402547

  @DF-RHF Final Energy:  -387.26437521821208

   => Energetics <=

    Nuclear Repulsion Energy =            446.4914630637649680
    One-Electron Energy =               -1409.7879957598138390
    Two-Electron Energy =                 576.0321574778367903
    DFT Exchange-Correlation Energy =       0.0000000000000000
    Empirical Dispersion Energy =           0.0000000000000000
    PCM Polarization Energy =               0.0000000000000000
    EFP Energy =                            0.0000000000000000
    Total Energy =                       -387.2643752182120807
    Molecular point group: c1
  Basis Set: CC-PVTZ
  Basis Set:

  -Total Gradient:
     Atom            X                  Y                   Z
    ------   -----------------  -----------------  -----------------
       1        0.000022994117     0.000006271817    -0.000001144449
       2       -0.000031552884     0.000017102745     0.000008487477
       3        0.000030120080     0.000008610972     0.000002416200
       4        0.000002619360    -0.000001431054     0.000007410383
       5        0.000864462218    -0.001347520290    -0.001820524484
       6       -0.000028570335    -0.000003118228    -0.000002031543
       7        0.000025438629     0.000001688144     0.000009399361
       8        0.000921236888    -0.001485922857     0.001624267064
       9       -0.000881430443     0.001361973394     0.001275028452
      10       -0.000005981630     0.000000028045     0.000016719809
      11       -0.000005767341    -0.000003767231    -0.000077105836
      12       -0.000922039804     0.001477030977    -0.001081981212
      13       -0.000006403391    -0.000013415948    -0.000008921430
      14        0.000001820466     0.000001888912     0.000026728421
      15       -0.000032441028    -0.000035117387     0.000006925597
      16        0.000028266560     0.000026487562     0.000013206371
      17        0.000002628518     0.000000138579     0.000006648615
      18        0.000003002829     0.000011596541     0.000004212294
      19       -0.000001158198    -0.000008704201     0.000002231647
      20        0.000001982445     0.000000992598    -0.000000816154
      21        0.000006617781     0.000002312293    -0.000000613464
      22       -0.000001332487    -0.000003227711    -0.000000807487
      23        0.000002117445    -0.000009860303    -0.000011495582
      24        0.000004737573    -0.000005874346    -0.000002942261
      25       -0.000001367373     0.000001836976     0.000004702212

  **** Optimization is complete! (in 9 steps) ****
    Final optimized geometry and variables:
    Molecular point group: c1

    Geometry (in Angstrom), charge = 0, multiplicity = 1:

    O            3.185171315693     0.915015122267     0.002601337399
    C            2.138496970526     1.465600160661     0.108793410632
    C            0.818013973644     0.720486778823     0.095559472405
    C            2.052633677600     2.967478310081     0.266210999040
    C            0.971596204090    -0.788972189968    -0.067180750845
    H            0.302318669482     0.970780772102     1.018196271954
    H            0.216617411192     1.151970998796    -0.698678978503
    C           -0.336827628241    -1.623579918856    -0.080384253660
    H            1.603471830553    -1.134191366882     0.740482250816
    H            1.529596177633    -0.972458092852    -0.975435235442
    C           -1.666662004394    -0.866646305022    -0.091599325370
    H           -0.324391429101    -2.261461419307    -0.957845861938
    H           -0.336997580020    -2.290130005380     0.775344313851
    C           -2.868595567945    -1.807846564887    -0.112241516648
    H           -1.718695636373    -0.215523277529    -0.959891982012
    H           -1.743146985191    -0.222977038230     0.779808632519
    C           -4.205078282347    -1.073351300891    -0.124583326237
    H           -2.804433182122    -2.452772901174    -0.984193784022
    H           -2.825953972887    -2.462861508458     0.753567876750
    H           -4.293621490342    -0.435368436619    -0.997769591948
    H           -5.035613549441    -1.769654210903    -0.139441051293
    H           -4.315875474433    -0.446243531322     0.753931524146
    H            1.547949380549     3.218579922970     1.192579353923
    H            3.044414050847     3.392777115932     0.266012633641
    H            1.471955687726     3.395743566685    -0.543353478005

  Mulliken Charges: (a.u.)
   Center  Symbol    Alpha    Beta     Spin     Total
       1     O     4.17063  4.17063  0.00000 -0.34126
       2     C     2.86333  2.86333  0.00000  0.27334
       3     C     3.11661  3.11661  0.00000 -0.23322
       4     C     3.15107  3.15107  0.00000 -0.30215
       5     C     3.09009  3.09009  0.00000 -0.18018
       6     H     0.44433  0.44433  0.00000  0.11135
       7     H     0.44357  0.44357  0.00000  0.11287
       8     C     3.09937  3.09937  0.00000 -0.19874
       9     H     0.44271  0.44271  0.00000  0.11457
      10     H     0.44257  0.44257  0.00000  0.11487
      11     C     3.09061  3.09061  0.00000 -0.18122
      12     H     0.44941  0.44941  0.00000  0.10118
      13     H     0.44963  0.44963  0.00000  0.10075
      14     C     3.08409  3.08409  0.00000 -0.16818
      15     H     0.45443  0.45443  0.00000  0.09114
      16     H     0.45440  0.45440  0.00000  0.09120
      17     C     3.15006  3.15006  0.00000 -0.30012
      18     H     0.45351  0.45351  0.00000  0.09298
      19     H     0.45388  0.45388  0.00000  0.09223
      20     H     0.45556  0.45556  0.00000  0.08888
      21     H     0.44767  0.44767  0.00000  0.10466
      22     H     0.45574  0.45574  0.00000  0.08852
      23     H     0.45086  0.45086  0.00000  0.09829
      24     H     0.43509  0.43509  0.00000  0.12983
      25     H     0.45078  0.45078  0.00000  0.09843

   Total alpha = 36.00000, Total beta = 36.00000, Total charge = -0.00000

*** Psi4 exiting successfully. Buy a developer a beer!
