  ==> Input File <==

--------------------------------------------------------------------------
set {
	reference rhf
	basis 6-31G*
}

set_num_threads( 4 )
memory 2 gb

molecule MOL {
0 1

H	 -1.170201	 0.191129	 -0.994127
C	 -0.790252	 0.431209	 0.000000
N	 0.538815	 0.649616	 0.000000
O	 -1.507160	 0.484090	 0.955226
C	 1.521968	 -0.411503	 0.000000
H	 0.852804	 1.592852	 0.000000
H	 2.150599	 -0.357004	 -0.881901
H	 0.999455	 -1.354525	 0.000000
H	 2.150599	 -0.357004	 0.881901

	symmetry c1
}
set optking {
	frozen_dihedral = ("
		1 2 3 6
	")
}

ee = optimize('scf')
oeprop('DIPOLE', 'QUADRUPOLE', 'MULLIKEN_CHARGES')
f=open( 'psi4out.xyz', 'w' )
f.write( "9  " )
f.write( str(ee) + "\n" )
f.write( MOL.save_string_xyz() )
f.close()
--------------------------------------------------------------------------

    Molecular point group: c1
  Charge       = 0
  Multiplicity = 1
  Basis Set: 6-31G*
  Basis Set:
  @DF-RHF Final Energy:  -207.91812917305984
    Total Energy =                       -207.9181291730597820
    Molecular point group: c1
  Basis Set: 6-31G*
  Basis Set:
  Basis Set: 6-31G*
  Basis Set:
  @DF-RHF Final Energy:  -207.92230158436439
    Total Energy =                       -207.9223015843644475
  Basis Set: 6-31G*
  Basis Set:
  Basis Set: 6-31G*
  Basis Set:
  @DF-RHF Final Energy:  -207.92448618378921
    Total Energy =                       -207.9244861837893268
  Basis Set: 6-31G*
  Basis Set:
  Basis Set: 6-31G*
  Basis Set:
  @DF-RHF Final Energy:  -207.92786888632676
    Total Energy =                       -207.9278688863268201
  Basis Set: 6-31G*
  Basis Set:
  @DF-RHF Final Energy:  -207.93015475845738
    Total Energy =                       -207.9301547584573200
  @DF-RHF Final Energy:  -207.93033314628173
    Total Energy =                       -207.9303331462816686
  @DF-RHF Final Energy:  -207.93073190684663
    Total Energy =                       -207.9307319068466313
  @DF-RHF Final Energy:  -207.93174637016395
    Total Energy =                       -207.9317463701639781
  @DF-RHF Final Energy:  -207.93266410668468
    Total Energy =                       -207.9326641066846832
  @DF-RHF Final Energy:  -207.93475731226920
    Total Energy =                       -207.9347573122691983
  @DF-RHF Final Energy:  -207.93520262771551
    Total Energy =                       -207.9352026277154550
  @DF-RHF Final Energy:  -207.93556903108902
    Total Energy =                       -207.9355690310890168
  @DF-RHF Final Energy:  -207.93632725654118
    Total Energy =                       -207.9363272565411762
  @DF-RHF Final Energy:  -207.93667979637272
    Total Energy =                       -207.9366797963726867
  @DF-RHF Final Energy:  -207.93710617578148
    Total Energy =                       -207.9371061757814800
  @DF-RHF Final Energy:  -207.93741232246376
    Total Energy =                       -207.9374123224638140
  @DF-RHF Final Energy:  -207.93742767586048
    Total Energy =                       -207.9374276758604196
  @DF-RHF Final Energy:  -207.93742674953549
    Total Energy =                       -207.9374267495356037
  @DF-RHF Final Energy:  -207.93742618901041
    Total Energy =                       -207.9374261890103526
  @DF-RHF Final Energy:  -207.93668236697630
    Total Energy =                       -207.9366823669763278
  @DF-RHF Final Energy:  -207.93742575423249
    Total Energy =                       -207.9374257542324358
  @DF-RHF Final Energy:  -207.93742585527923
    Total Energy =                       -207.9374258552792298
  @DF-RHF Final Energy:  -207.93742554234109
    Total Energy =                       -207.9374255423411455
  @DF-RHF Final Energy:  -207.93742530963459
    Total Energy =                       -207.9374253096345342
  @DF-RHF Final Energy:  -207.93742477943363
    Total Energy =                       -207.9374247794335702
  @DF-RHF Final Energy:  -207.93742540450529
    Total Energy =                       -207.9374254045053760
  @DF-RHF Final Energy:  -207.93742527374985
    Total Energy =                       -207.9374252737499091
  @DF-RHF Final Energy:  -207.93742532713617
    Total Energy =                       -207.9374253271360544
  @DF-RHF Final Energy:  -207.93742521741666
    Total Energy =                       -207.9374252174166031
  @DF-RHF Final Energy:  -207.93742491585579
    Total Energy =                       -207.9374249158557859
  @DF-RHF Final Energy:  -207.93742521251042
    Total Energy =                       -207.9374252125103908
  @DF-RHF Final Energy:  -207.93742520355221
    Total Energy =                       -207.9374252035522375
  @DF-RHF Final Energy:  -207.93742516745345
    Total Energy =                       -207.9374251674533980
  @DF-RHF Final Energy:  -207.93742524390819
    Total Energy =                       -207.9374252439082227
  @DF-RHF Final Energy:  -207.93742527298116
    Total Energy =                       -207.9374252729811019
  @DF-RHF Final Energy:  -207.93742507079622
    Total Energy =                       -207.9374250707962801
  Basis Set: 6-31G*
  Basis Set:
  @DF-RHF Final Energy:  -207.93742510902683
    Total Energy =                       -207.9374251090268899
  Basis Set: 6-31G*
  Basis Set:
  Basis Set: 6-31G*
  Basis Set:
  @DF-RHF Final Energy:  -207.93742496913467
    Total Energy =                       -207.9374249691346961
  Basis Set: 6-31G*
  Basis Set:
  Basis Set: 6-31G*
  Basis Set:
  @DF-RHF Final Energy:  -207.93742485995438
    Total Energy =                       -207.9374248599544046
  Basis Set: 6-31G*
  Basis Set:
  Charge       = 0
  Multiplicity = 1
  Basis Set: 6-31G*
  Basis Set:

    Orbital Energies (a.u.)
    -----------------------

    Doubly Occupied:

       1A    -20.559489     2A    -15.577336     3A    -11.353746
       4A    -11.266162     5A     -1.413947     6A     -1.232650
       7A     -0.947959     8A     -0.830179     9A     -0.707742
      10A     -0.672963    11A     -0.644947    12A     -0.582786
      13A     -0.563376    14A     -0.529124    15A     -0.442204
      16A     -0.404512

  @DF-RHF Final Energy:  -207.93742475088715

   => Energetics <=

    Nuclear Repulsion Energy =            120.0419951706404049
    One-Electron Energy =                -520.5005956553006854
    Two-Electron Energy =                 192.5211757337733047
    DFT Exchange-Correlation Energy =       0.0000000000000000
    Empirical Dispersion Energy =           0.0000000000000000
    PCM Polarization Energy =               0.0000000000000000
    EFP Energy =                            0.0000000000000000
    Total Energy =                       -207.9374247508869757
    Molecular point group: c1
  Basis Set: 6-31G*
  Basis Set:

  -Total Gradient:
     Atom            X                  Y                   Z
    ------   -----------------  -----------------  -----------------
       1        0.001070408435     0.010052797549    -0.004386484289
       2       -0.001038119379    -0.013366999840     0.003747182539
       3       -0.004985558052     0.007003209845     0.010141476207
       4        0.000287992981    -0.000414721804    -0.000167403397
       5        0.000345871994    -0.000243094986     0.000880653389
       6        0.004275648175    -0.002956219362    -0.009883405104
       7        0.000014239650     0.000109119809    -0.000253903532
       8        0.000026636302    -0.000045444315     0.000083981965
       9        0.000002879897    -0.000138646896    -0.000162097778

    Molecular point group: c1

    Geometry (in Angstrom), charge = 0, multiplicity = 1:

    H           -0.705990570213    -0.354881144434    -1.257860206507
    C           -0.655214225354     0.081210983829    -0.255016048397
    N            0.630378231369     0.162152144659     0.296394193559
    O           -1.619596303279     0.543955787654     0.250882103190
    C            1.589380760875    -0.792899281497    -0.243502470690
    H            0.984754689756     1.093222821182     0.192486821442
    H            1.706642157908    -0.734319860269    -1.326215897327
    H            1.283786784966    -1.799411634842     0.012938065084
    H            2.553318734050    -0.616631328817     0.214540038640

  Mulliken Charges: (a.u.)
   Center  Symbol    Alpha    Beta     Spin     Total
       1     H     0.43126  0.43126  0.00000  0.13748
       2     C     2.76196  2.76196  0.00000  0.47609
       3     N     3.85691  3.85691  0.00000 -0.71383
       4     O     4.23965  4.23965  0.00000 -0.47930
       5     C     3.16336  3.16336  0.00000 -0.32672
       6     H     0.31227  0.31227  0.00000  0.37547
       7     H     0.42373  0.42373  0.00000  0.15254
       8     H     0.40622  0.40622  0.00000  0.18756
       9     H     0.40465  0.40465  0.00000  0.19070

   Total alpha = 16.00000, Total beta = 16.00000, Total charge = -0.00000
