  ==> Input File <==

--------------------------------------------------------------------------
set {
	reference rhf
	basis 6-31G*
}

set_num_threads( 4 )
memory 2 gb

molecule MOL {
0 1

H	 -2.569587	 -1.522340	 0.326811
O	 -2.310168	 -0.871793	 -0.309793
C	 -2.026376	 0.340750	 0.341611
C	 -0.673256	 0.843270	 -0.132153
H	 -2.792215	 1.080697	 0.115987
H	 -2.013526	 0.200402	 1.421792
C	 0.486613	 -0.083066	 0.235839
H	 -0.715586	 0.970948	 -1.210718
H	 -0.508072	 1.829858	 0.297090
C	 1.840406	 0.433480	 -0.254303
H	 0.300215	 -1.068318	 -0.178947
H	 0.519509	 -0.203625	 1.318070
C	 3.000220	 -0.489290	 0.118523
H	 1.809207	 0.553576	 -1.335192
H	 2.021860	 1.424500	 0.157276
H	 2.864959	 -1.479103	 -0.307933
H	 3.946603	 -0.099227	 -0.243630
H	 3.080049	 -0.602997	 1.196117

	symmetry c1
}
set optking {
	frozen_dihedral = ("
		1 2 3 4
	")
}

ee = optimize('scf')
oeprop('DIPOLE', 'QUADRUPOLE', 'MULLIKEN_CHARGES')
f=open( 'psi4out.xyz', 'w' )
f.write( "18  " )
f.write( str(ee) + "\n" )
f.write( MOL.save_string_xyz() )
f.close()
--------------------------------------------------------------------------

    Molecular point group: c1
  Charge       = 0
  Multiplicity = 1
  Basis Set: 6-31G*
  Basis Set:
  @DF-RHF Final Energy:  -271.17809088992851
    Total Energy =                       -271.1780908899283986
    Molecular point group: c1
  Basis Set: 6-31G*
  Basis Set:
  Basis Set: 6-31G*
  Basis Set:
  @DF-RHF Final Energy:  -271.17827654936679
    Total Energy =                       -271.1782765493667853
  Basis Set: 6-31G*
  Basis Set:
  Basis Set: 6-31G*
  Basis Set:
  @DF-RHF Final Energy:  -271.17835387108619
    Total Energy =                       -271.1783538710863013
  Basis Set: 6-31G*
  Basis Set:
  Charge       = 0
  Multiplicity = 1
  Basis Set: 6-31G*
  Basis Set:

    Orbital Energies (a.u.)
    -----------------------

    Doubly Occupied:

       1A    -20.551933     2A    -11.268354     3A    -11.212945
       4A    -11.211644     5A    -11.209778     6A    -11.206711
       7A     -1.358182     8A     -1.076547     9A     -1.009707
      10A     -0.915600    11A     -0.820745    12A     -0.785514
      13A     -0.705382    14A     -0.635629    15A     -0.629676
      16A     -0.581062    17A     -0.571346    18A     -0.565477
      19A     -0.523449    20A     -0.498833    21A     -0.479197
      22A     -0.475892    23A     -0.461627    24A     -0.459348
      25A     -0.422035

  @DF-RHF Final Energy:  -271.17835344123921

   => Energetics <=

    Nuclear Repulsion Energy =            248.8406569132042989
    One-Electron Energy =                -860.7647955562731568
    Two-Electron Energy =                 340.7457852018297899
    DFT Exchange-Correlation Energy =       0.0000000000000000
    Empirical Dispersion Energy =           0.0000000000000000
    PCM Polarization Energy =               0.0000000000000000
    EFP Energy =                            0.0000000000000000
    Total Energy =                       -271.1783534412390964
    Molecular point group: c1
  Basis Set: 6-31G*
  Basis Set:

  -Total Gradient:
     Atom            X                  Y                   Z
    ------   -----------------  -----------------  -----------------
       1        0.000791146514    -0.000177396940     0.000014864416
       2       -0.000924850534     0.000234870201     0.000097099987
       3       -0.000076131674     0.000277407876    -0.000348811751
       4        0.000246173238    -0.000285305950     0.000258108916
       5        0.000030365886    -0.000022679743     0.000001487024
       6       -0.000021898751    -0.000018496867     0.000007970516
       7       -0.000024975955    -0.000013275665     0.000020757850
       8        0.000003355313    -0.000013786149    -0.000042074306
       9       -0.000034996409    -0.000047673373    -0.000034488930
      10        0.000030166208     0.000040984693     0.000058980638
      11        0.000001766930     0.000023375800    -0.000068863291
      12       -0.000012089827    -0.000008437232     0.000004086307
      13       -0.000001998843     0.000010340118     0.000008373432
      14       -0.000017100292    -0.000024047837     0.000030727788
      15        0.000015756040     0.000024508622    -0.000003256366
      16       -0.000006731384    -0.000004589818     0.000001756138
      17       -0.000005356840    -0.000001911813    -0.000006808193
      18        0.000007400385     0.000006114077     0.000000089825

  **** Optimization is complete! (in 4 steps) ****
    Final optimized geometry and variables:
    Molecular point group: c1

    Geometry (in Angstrom), charge = 0, multiplicity = 1:

    H           -2.613786925058    -1.520828551351     0.314000834604
    O           -2.352859224045    -0.866018800017    -0.314495198410
    C           -2.025057391652     0.338210836594     0.339757669926
    C           -0.672950386708     0.844647698978    -0.138351222224
    H           -2.793825763081     1.075286678204     0.126395694624
    H           -2.005070157014     0.195029202820     1.418003130341
    C            0.489242898787    -0.076637802628     0.231727128880
    H           -0.716181971898     0.965990173725    -1.217816357798
    H           -0.510069825463     1.835203757972     0.283362787240
    C            1.843895228119     0.438738952259    -0.257269858222
    H            0.304872822335    -1.062352980671    -0.184698248614
    H            0.522916046779    -0.196688270110     1.314598559962
    C            3.003203793517    -0.484171424680     0.116587583736
    H            1.812773088281     0.558201548276    -1.338008514109
    H            2.024976567759     1.429815792738     0.154044397128
    H            2.867145756845    -1.474851216397    -0.307843335013
    H            3.949402423947    -0.095549823222    -0.247296117981
    H            3.084238610157    -0.595533589081     1.194356639544

  Mulliken Charges: (a.u.)
   Center  Symbol    Alpha    Beta     Spin     Total
       1     H     0.27917  0.27917  0.00000  0.44166
       2     O     4.37201  4.37201  0.00000 -0.74401
       3     C     2.99907  2.99907  0.00000  0.00185
       4     C     3.15755  3.15755  0.00000 -0.31510
       5     H     0.42229  0.42229  0.00000  0.15542
       6     H     0.43258  0.43258  0.00000  0.13483
       7     C     3.15478  3.15478  0.00000 -0.30955
       8     H     0.41481  0.41481  0.00000  0.17037
       9     H     0.42546  0.42546  0.00000  0.14909
      10     C     3.15127  3.15127  0.00000 -0.30254
      11     H     0.41258  0.41258  0.00000  0.17483
      12     H     0.42931  0.42931  0.00000  0.14138
      13     C     3.23909  3.23909  0.00000 -0.47817
      14     H     0.42168  0.42168  0.00000  0.15663
      15     H     0.42453  0.42453  0.00000  0.15095
      16     H     0.42124  0.42124  0.00000  0.15752
      17     H     0.41970  0.41970  0.00000  0.16059
      18     H     0.42287  0.42287  0.00000  0.15426

   Total alpha = 25.00000, Total beta = 25.00000, Total charge = -0.00000
