  ==> Input File <==

--------------------------------------------------------------------------
set {
	reference rhf
	basis 6-31G*
}

set_num_threads( 4 )
memory 2 gb

molecule MOL {
0 1

H	 4.987567	 2.680562	 0.059915
C	 4.627447	 1.684961	 -0.180116
C	 3.209974	 1.468064	 0.347997
H	 4.662213	 1.572015	 -1.259642
H	 5.322286	 0.969043	 0.250534
C	 2.673661	 0.070033	 0.032258
H	 2.549505	 2.214389	 -0.081401
H	 3.200481	 1.621987	 1.425916
C	 1.262966	 -0.182852	 0.564474
H	 2.679007	 -0.087857	 -1.040442
H	 3.340408	 -0.672362	 0.465085
C	 0.169600	 0.576866	 -0.172154
H	 1.020228	 -1.240518	 0.473964
H	 1.202132	 0.042678	 1.626835
C	 -1.181045	 0.701995	 0.511084
O	 0.353628	 1.044293	 -1.255691
C	 -2.285934	 -0.139295	 -0.145128
H	 -1.449051	 1.751551	 0.493206
H	 -1.071135	 0.403303	 1.551943
C	 -3.651768	 0.085446	 0.506485
H	 -2.346596	 0.110469	 -1.202272
H	 -2.034737	 -1.195320	 -0.088721
C	 -4.759797	 -0.746382	 -0.137905
H	 -3.908762	 1.140117	 0.445781
H	 -3.588286	 -0.154158	 1.565709
H	 -4.868882	 -0.505166	 -1.191300
H	 -4.548009	 -1.809175	 -0.062213
H	 -5.715422	 -0.564821	 0.343442

	symmetry c1
}
set optking {
	frozen_dihedral = ("
		16 12 15 17
	")
}

ee = optimize('scf')
oeprop('DIPOLE', 'QUADRUPOLE', 'MULLIKEN_CHARGES')
f=open( 'psi4out.xyz', 'w' )
f.write( "28  " )
f.write( str(ee) + "\n" )
f.write( MOL.save_string_xyz() )
f.close()
--------------------------------------------------------------------------

    Molecular point group: c1
  Charge       = 0
  Multiplicity = 1
  Basis Set: 6-31G*
  Basis Set:
  @DF-RHF Final Energy:  -426.16864473547014
    Total Energy =                       -426.1686447354696838
    Molecular point group: c1
  Basis Set: 6-31G*
  Basis Set:
  Basis Set: 6-31G*
  Basis Set:
  @DF-RHF Final Energy:  -426.16928066929665
    Total Energy =                       -426.1692806692961994
  Basis Set: 6-31G*
  Basis Set:
  Basis Set: 6-31G*
  Basis Set:
  @DF-RHF Final Energy:  -426.16824796113474
    Total Energy =                       -426.1682479611351937
  Basis Set: 6-31G*
  Basis Set:
  Basis Set: 6-31G*
  Basis Set:
  @DF-RHF Final Energy:  -426.16971563260176
    Total Energy =                       -426.1697156326015374
  Basis Set: 6-31G*
  Basis Set:
  @DF-RHF Final Energy:  -426.16960889022732
    Total Energy =                       -426.1696088902267547
  Basis Set: 6-31G*
  Basis Set:
  @DF-RHF Final Energy:  -426.16962904968602
    Total Energy =                       -426.1696290496861366
  Basis Set: 6-31G*
  Basis Set:
  Basis Set: 6-31G*
  Basis Set:
  @DF-RHF Final Energy:  -426.16975752042867
    Total Energy =                       -426.1697575204289024
  Basis Set: 6-31G*
  Basis Set:
  Basis Set: 6-31G*
  Basis Set:
  @DF-RHF Final Energy:  -426.16975965836195
    Total Energy =                       -426.1697596583619543
  Basis Set: 6-31G*
  Basis Set:
  Charge       = 0
  Multiplicity = 1
  Basis Set: 6-31G*
  Basis Set:

    Orbital Energies (a.u.)
    -----------------------

    Doubly Occupied:

       1A    -20.547850     2A    -11.322972     3A    -11.231312
       4A    -11.228832     5A    -11.227493     6A    -11.223221
       7A    -11.216331     8A    -11.213602     9A    -11.210332
      10A    -11.204622    11A     -1.393707    12A     -1.091361
      13A     -1.077386    14A     -1.022050    15A     -0.990804
      16A     -0.908841    17A     -0.868462    18A     -0.806952
      19A     -0.795713    20A     -0.724953    21A     -0.670259
      22A     -0.650611    23A     -0.629273    24A     -0.615168
      25A     -0.607044    26A     -0.589283    27A     -0.574926
      28A     -0.570529    29A     -0.541620    30A     -0.532348
      31A     -0.522142    32A     -0.508648    33A     -0.497389
      34A     -0.480772    35A     -0.475787    36A     -0.474604
      37A     -0.468391    38A     -0.464113    39A     -0.454412
      40A     -0.391926

  @DF-RHF Final Energy:  -426.16976003258264

   => Energetics <=

    Nuclear Repulsion Energy =            529.7125703090248408
    One-Electron Energy =               -1627.7125811122064079
    Two-Electron Energy =                 671.8302507705991502
    DFT Exchange-Correlation Energy =       0.0000000000000000
    Empirical Dispersion Energy =           0.0000000000000000
    PCM Polarization Energy =               0.0000000000000000
    EFP Energy =                            0.0000000000000000
    Total Energy =                       -426.1697600325824169
    Molecular point group: c1
  Basis Set: 6-31G*
  Basis Set:

  -Total Gradient:
     Atom            X                  Y                   Z
    ------   -----------------  -----------------  -----------------
       1        0.000000012144     0.000006046162    -0.000016793756
       2        0.000002606966     0.000008104520    -0.000012376258
       3        0.000002197622     0.000001210429    -0.000002706041
       4        0.000013896286    -0.000010211392    -0.000012927558
       5       -0.000001334630     0.000009441621     0.000001016741
       6       -0.000009668007     0.000032656140     0.000045390570
       7       -0.000009633631    -0.000024900996     0.000031794927
       8        0.000016682718    -0.000005922005     0.000004338916
       9       -0.000041907679    -0.000000015483    -0.000031854313
      10        0.000007686242     0.000006084065    -0.000006637106
      11       -0.000000207204    -0.000008853432     0.000009816628
      12       -0.000069756097    -0.000388388210    -0.000157117127
      13       -0.000000160377    -0.000015034062     0.000002360941
      14        0.000014889611     0.000003798727    -0.000015855817
      15       -0.000046994479     0.000323289524    -0.000103805215
      16        0.000073127511     0.000229404937     0.000152407344
      17        0.000042099608    -0.000148569991     0.000097425077
      18       -0.000016494786     0.000002479654     0.000011508244
      19        0.000012462267    -0.000000204870    -0.000012349656
      20        0.000007205325    -0.000007540828     0.000003700109
      21       -0.000003660816    -0.000014467610    -0.000011452128
      22        0.000002872746    -0.000000065934     0.000026379674
      23       -0.000002901958     0.000014183951    -0.000009717349
      24        0.000011921999    -0.000001849163     0.000010807675
      25       -0.000003714384    -0.000014688442     0.000000317019
      26        0.000001871833    -0.000003716006    -0.000004919472
      27       -0.000001781688     0.000001574268     0.000005453603
      28       -0.000001317142     0.000006154426    -0.000004205671

  **** Optimization is complete! (in 9 steps) ****
    Final optimized geometry and variables:
    Molecular point group: c1

    Geometry (in Angstrom), charge = 0, multiplicity = 1:

    H            5.122806074803     1.912092392207    -0.303766218704
    C            4.629560516091     0.955968963681    -0.448975545611
    C            3.262738380404     0.930701989331     0.233903655526
    H            4.533833243718     0.792795389941    -1.518430974149
    H            5.283079099624     0.183165724433    -0.053091252356
    C            2.543514271095    -0.408546319085     0.055902752445
    H            2.645330456190     1.727539119283    -0.165212188518
    H            3.388781699164     1.130566078145     1.296898012763
    C            1.173678895449    -0.467921047211     0.729982645605
    H            2.427262798393    -0.620303955855    -1.001894783220
    H            3.163401796526    -1.200910556580     0.469516387055
    C            0.078267985314     0.311900365645     0.026894492414
    H            0.825486842988    -1.498443407618     0.799956311908
    H            1.231276415164    -0.115401138200     1.758666101035
    C           -1.302575868376     0.294837199180     0.663715588886
    O            0.261515163400     0.892226633130    -1.000772672316
    C           -2.281622193101    -0.556833034618    -0.157447069157
    H           -1.656808362382     1.320265437730     0.699813338263
    H           -1.251100113185    -0.075237281986     1.683370214027
    C           -3.695494743659    -0.557375388434     0.425315907329
    H           -2.301139933412    -0.177736959837    -1.174142868956
    H           -1.915968986554    -1.580841708191    -0.213009867096
    C           -4.672764247881    -1.397483137987    -0.395956029221
    H           -4.058942533206     0.466050288658     0.483787735842
    H           -3.666835123423    -0.931241671517     1.446587340607
    H           -4.746910118698    -1.027583471571    -1.414350099059
    H           -4.354624740951    -2.435068976368    -0.443628714818
    H           -5.667662047160    -1.376349602795     0.037477743324

  Mulliken Charges: (a.u.)
   Center  Symbol    Alpha    Beta     Spin     Total
       1     H     0.41940  0.41940  0.00000  0.16120
       2     C     3.24030  3.24030  0.00000 -0.48061
       3     C     3.15612  3.15612  0.00000 -0.31224
       4     H     0.41874  0.41874  0.00000  0.16252
       5     H     0.42413  0.42413  0.00000  0.15174
       6     C     3.14912  3.14912  0.00000 -0.29824
       7     H     0.40668  0.40668  0.00000  0.18664
       8     H     0.42812  0.42812  0.00000  0.14376
       9     C     3.21338  3.21338  0.00000 -0.42676
      10     H     0.40930  0.40930  0.00000  0.18139
      11     H     0.42195  0.42195  0.00000  0.15610
      12     C     2.73344  2.73344  0.00000  0.53311
      13     H     0.40667  0.40667  0.00000  0.18666
      14     H     0.40883  0.40883  0.00000  0.18233
      15     C     3.19831  3.19831  0.00000 -0.39661
      16     O     4.26887  4.26887  0.00000 -0.53774
      17     C     3.15915  3.15915  0.00000 -0.31830
      18     H     0.40218  0.40218  0.00000  0.19565
      19     H     0.41595  0.41595  0.00000  0.16810
      20     C     3.15223  3.15223  0.00000 -0.30446
      21     H     0.40486  0.40486  0.00000  0.19027
      22     H     0.42139  0.42139  0.00000  0.15722
      23     C     3.24017  3.24017  0.00000 -0.48034
      24     H     0.41998  0.41998  0.00000  0.16005
      25     H     0.42278  0.42278  0.00000  0.15444
      26     H     0.41889  0.41889  0.00000  0.16223
      27     H     0.42120  0.42120  0.00000  0.15759
      28     H     0.41785  0.41785  0.00000  0.16430

   Total alpha = 40.00000, Total beta = 40.00000, Total charge =  0.00000
