  ==> Input File <==

--------------------------------------------------------------------------
set {
	reference rhf
	basis 6-31G*
}

set_num_threads( 1 )
memory 2 gb

molecule MOL {
0 1

H	 2.219521	 -1.321221	 -0.107201
O	 1.540229	 -0.742315	 -0.422034
C	 1.135793	 0.118896	 0.612333
C	 0.031547	 1.023609	 0.088541
H	 1.971634	 0.730580	 0.947150
H	 0.788987	 -0.452178	 1.470646
C	 -1.134819	 0.293262	 -0.585751
H	 0.474374	 1.714721	 -0.623187
H	 -0.338529	 1.620940	 0.920081
C	 -1.917817	 -0.639439	 0.339494
H	 -0.758119	 -0.268455	 -1.433105
H	 -1.813832	 1.041889	 -0.986690
H	 -2.777680	 -1.057197	 -0.174994
H	 -1.310268	 -1.471279	 0.680599
H	 -2.283753	 -0.111424	 1.216626

	symmetry c1
}
set optking {
	frozen_dihedral = ("
		8 4 7 11,
		1 2 3 4
	")
}

ee = energy('scf')
oeprop('DIPOLE', 'QUADRUPOLE', 'MULLIKEN_CHARGES')
f=open( 'psi4out.xyz', 'w' )
f.write( "15  " )
f.write( str(ee) + "\n" )
f.write( MOL.save_string_xyz() )
f.close()
--------------------------------------------------------------------------

    Molecular point group: c1

    Geometry (in Angstrom), charge = 0, multiplicity = 1:

       Center              X                  Y                   Z               Mass
    ------------   -----------------  -----------------  -----------------  -----------------
           H          2.244433358656    -1.295737862598    -0.115704436141     1.007825032070
           O          1.565141358656    -0.716831862598    -0.430537436141    15.994914619560
           C          1.160705358656     0.144379137402     0.603829563859    12.000000000000
           C          0.056459358656     1.049092137402     0.080037563859    12.000000000000
           H          1.996546358656     0.756063137402     0.938646563859     1.007825032070
           H          0.813899358656    -0.426694862598     1.462142563859     1.007825032070
           C         -1.109906641344     0.318745137402    -0.594254436141    12.000000000000
           H          0.499286358656     1.740204137402    -0.631690436141     1.007825032070
           H         -0.313616641344     1.646423137402     0.911577563859     1.007825032070
           C         -1.892904641344    -0.613955862598     0.330990563859    12.000000000000
           H         -0.733206641344    -0.242971862598    -1.441608436141     1.007825032070
           H         -1.788919641344     1.067372137402    -0.995193436141     1.007825032070
           H         -2.752767641344    -1.031713862598    -0.183497436141     1.007825032070
           H         -1.285355641344    -1.445795862598     0.672095563859     1.007825032070
           H         -2.258840641344    -0.085940862598     1.208122563859     1.007825032070

  Charge       = 0
  Multiplicity = 1
  Basis Set: 6-31G*
  Basis Set:

    Orbital Energies (a.u.)
    -----------------------

    Doubly Occupied:

       1A    -20.553799     2A    -11.267633     3A    -11.212291
       4A    -11.207481     5A    -11.203270     6A     -1.360447
       7A     -1.062705     8A     -0.969692     9A     -0.867668
      10A     -0.773259    11A     -0.704144    12A     -0.649138
      13A     -0.606876    14A     -0.570674    15A     -0.563985
      16A     -0.531121    17A     -0.508519    18A     -0.473379
      19A     -0.464702    20A     -0.451970    21A     -0.430736

  @DF-RHF Final Energy:  -232.14363634634623

   => Energetics <=

    Nuclear Repulsion Energy =            192.4416234957666916
    One-Electron Energy =                -696.3036114784033543
    Two-Electron Energy =                 271.7183516362902651
    DFT Exchange-Correlation Energy =       0.0000000000000000
    Empirical Dispersion Energy =           0.0000000000000000
    PCM Polarization Energy =               0.0000000000000000
    EFP Energy =                            0.0000000000000000
    Total Energy =                       -232.1436363463463977

  Mulliken Charges: (a.u.)
   Center  Symbol    Alpha    Beta     Spin     Total
       1     H     0.28048  0.28048  0.00000  0.43903
       2     O     4.36984  4.36984  0.00000 -0.73968
       3     C     2.99861  2.99861  0.00000  0.00277
       4     C     3.16208  3.16208  0.00000 -0.32415
       5     H     0.42897  0.42897  0.00000  0.14206
       6     H     0.43079  0.43079  0.00000  0.13841
       7     C     3.15224  3.15224  0.00000 -0.30449
       8     H     0.41572  0.41572  0.00000  0.16856
       9     H     0.42442  0.42442  0.00000  0.15117
      10     C     3.24314  3.24314  0.00000 -0.48629
      11     H     0.40639  0.40639  0.00000  0.18722
      12     H     0.42363  0.42363  0.00000  0.15274
      13     H     0.41949  0.41949  0.00000  0.16103
      14     H     0.41866  0.41866  0.00000  0.16268
      15     H     0.42553  0.42553  0.00000  0.14894

   Total alpha = 21.00000, Total beta = 21.00000, Total charge = -0.00000
