  ==> Input File <==

--------------------------------------------------------------------------
set {
	reference rhf
	basis 6-31G*
}

set_num_threads( 4 )
memory 2 gb

molecule MOL {
0 1

H	 -0.216825	 0.021369	 -3.357402
C	 0.374198	 0.036393	 -2.447010
C	 -0.521757	 -0.028637	 -1.217342
H	 0.969602	 0.942322	 -2.434777
H	 1.053364	 -0.811668	 -2.481329
N	 0.263400	 0.031178	 0.000000
H	 -1.199035	 0.820290	 -1.219355
H	 -1.147901	 -0.924895	 -1.265384
C	 -0.521757	 -0.028637	 1.217342
H	 0.935769	 -0.712709	 0.000000
C	 -1.328978	 1.248496	 1.408059
H	 -1.198404	 -0.874215	 1.136502
H	 0.095710	 -0.209210	 2.102650
H	 -1.978564	 1.417117	 0.556609
H	 -1.938843	 1.190375	 2.304181
H	 -0.676561	 2.112074	 1.509229

	symmetry c1
}
set optking {
	frozen_dihedral = ("
		12 9 6 3
	")
}

ee = optimize('scf')
oeprop('DIPOLE', 'QUADRUPOLE', 'MULLIKEN_CHARGES')
f=open( 'psi4out.xyz', 'w' )
f.write( "16  " )
f.write( str(ee) + "\n" )
f.write( MOL.save_string_xyz() )
f.close()
--------------------------------------------------------------------------

    Molecular point group: c1
  Charge       = 0
  Multiplicity = 1
  Basis Set: 6-31G*
  Basis Set:
  @DF-RHF Final Energy:  -212.30912232577222
    Total Energy =                       -212.3091223257723072
    Molecular point group: c1
  Basis Set: 6-31G*
  Basis Set:
  Basis Set: 6-31G*
  Basis Set:
  @DF-RHF Final Energy:  -212.31129673518706
    Total Energy =                       -212.3112967351869429
  Basis Set: 6-31G*
  Basis Set:
  Basis Set: 6-31G*
  Basis Set:
  @DF-RHF Final Energy:  -212.31194362386159
    Total Energy =                       -212.3119436238615663
  Basis Set: 6-31G*
  Basis Set:
  Basis Set: 6-31G*
  Basis Set:
  @DF-RHF Final Energy:  -212.31197066736553
    Total Energy =                       -212.3119706673655855
  Basis Set: 6-31G*
  Basis Set:
  Charge       = 0
  Multiplicity = 1
  Basis Set: 6-31G*
  Basis Set:

    Orbital Energies (a.u.)
    -----------------------

    Doubly Occupied:

       1A    -15.534134     2A    -11.241090     3A    -11.240027
       4A    -11.208902     5A    -11.204626     6A     -1.203740
       7A     -1.024563     8A     -0.966417     9A     -0.847108
      10A     -0.799539    11A     -0.661884    12A     -0.627052
      13A     -0.615629    14A     -0.583812    15A     -0.536820
      16A     -0.525395    17A     -0.510269    18A     -0.492758
      19A     -0.482010    20A     -0.467191    21A     -0.359327

  @DF-RHF Final Energy:  -212.31197227922058

   => Energetics <=

    Nuclear Repulsion Energy =            191.1857343059269851
    One-Electron Energy =                -664.7308238448138127
    Two-Electron Energy =                 261.2331172596661304
    DFT Exchange-Correlation Energy =       0.0000000000000000
    Empirical Dispersion Energy =           0.0000000000000000
    PCM Polarization Energy =               0.0000000000000000
    EFP Energy =                            0.0000000000000000
    Total Energy =                       -212.3119722792206971
    Molecular point group: c1
  Basis Set: 6-31G*
  Basis Set:

  -Total Gradient:
     Atom            X                  Y                   Z
    ------   -----------------  -----------------  -----------------
       1        0.000001587397    -0.000003655680     0.000008127318
       2       -0.000016644281     0.000008319643     0.000001517892
       3       -0.000045255511     0.000467558304     0.000036002747
       4       -0.000003695038     0.000001680320     0.000004502153
       5       -0.000005222994    -0.000004469471     0.000008880098
       6        0.000178712622    -0.000731963184     0.000079830373
       7       -0.000015102693    -0.000003707110    -0.000007206396
       8        0.000010365938    -0.000001237235    -0.000003717646
       9       -0.000542465118     0.000549585152    -0.000339448931
      10       -0.000016074097     0.000011884293     0.000023813066
      11        0.000058357861     0.000018886331    -0.000007126562
      12        0.000400762984    -0.000367227826     0.000216582756
      13       -0.000001438449     0.000022092354    -0.000008540708
      14        0.000011409127    -0.000009837665     0.000002255634
      15       -0.000004004450    -0.000000292973    -0.000019966196
      16       -0.000011293297     0.000042384748     0.000004494402

  **** Optimization is complete! (in 5 steps) ****
    Final optimized geometry and variables:
    Molecular point group: c1

    Geometry (in Angstrom), charge = 0, multiplicity = 1:

    H            0.217459658486    -0.279543546316    -3.170749281318
    C            0.776929285953    -0.248013566393    -2.241154785147
    C           -0.162183457312    -0.266376514022    -1.042174903198
    H            1.384439397739     0.649950887444    -2.233031320008
    H            1.444612478363    -1.105882880100    -2.229214662417
    N            0.588480678740    -0.186591274479     0.197294315514
    H           -0.827075990990     0.587713367250    -1.101314333241
    H           -0.795325692197    -1.158290915425    -1.084417666791
    C           -0.202870889210    -0.277601827825     1.412905459860
    H            1.282024692872    -0.908869143831     0.204586560950
    C           -0.992398138682     0.996204939730     1.695844871557
    H           -0.883573687266    -1.134192995202     1.398526666290
    H            0.487770859977    -0.444064515255     2.233322326058
    H           -1.756696869831     1.177051281669     0.947697628859
    H           -1.490255671425     0.924244571084     2.658274448751
    H           -0.327745571896     1.852918832376     1.713729801819

  Mulliken Charges: (a.u.)
   Center  Symbol    Alpha    Beta     Spin     Total
       1     H     0.41976  0.41976  0.00000  0.16049
       2     C     3.24298  3.24298  0.00000 -0.48596
       3     C     3.05578  3.05578  0.00000 -0.11156
       4     H     0.41184  0.41184  0.00000  0.17631
       5     H     0.42507  0.42507  0.00000  0.14985
       6     N     3.84848  3.84848  0.00000 -0.69696
       7     H     0.41847  0.41847  0.00000  0.16307
       8     H     0.43556  0.43556  0.00000  0.12888
       9     C     3.05780  3.05780  0.00000 -0.11559
      10     H     0.33319  0.33319  0.00000  0.33362
      11     C     3.23964  3.23964  0.00000 -0.47929
      12     H     0.43452  0.43452  0.00000  0.13095
      13     H     0.42002  0.42002  0.00000  0.15995
      14     H     0.42109  0.42109  0.00000  0.15782
      15     H     0.42228  0.42228  0.00000  0.15544
      16     H     0.41352  0.41352  0.00000  0.17297

   Total alpha = 21.00000, Total beta = 21.00000, Total charge = -0.00000
