                              Psi4 1.0.54 Driver

  ==> Input File <==

--------------------------------------------------------------------------
set {
	reference rhf
	basis cc-pvtz
}

set_num_threads( 4 )
memory 2 gb

molecule MOL {
0 1

H	 -0.888005	 -1.969804	 4.261306
C	 -0.329999	 -1.678413	 3.393069
C	 -0.589291	 -2.261103	 2.160562
C	 0.654029	 -0.721540	 3.482277
H	 -1.353616	 -3.009718	 2.071587
C	 0.123238	 -1.890742	 1.045592
H	 0.868990	 -0.259473	 4.427250
C	 1.383217	 -0.335720	 2.366106
H	 -0.069235	 -2.334736	 0.088778
C	 1.117052	 -0.922463	 1.142600
H	 2.142356	 0.411704	 2.468705
O	 1.760432	 -0.625184	 0.000000
C	 2.773565	 0.334879	 0.000000
H	 2.728295	 0.960928	 -0.884150
H	 3.706387	 -0.206610	 0.000000
H	 2.728295	 0.960928	 0.884150

	symmetry c1
}
set optking {
	frozen_dihedral = ("
		10 12 13 14
	")
}

ee,wfn = optimize('scf', return_wfn=True)
oeprop( wfn, 'DIPOLE', 'QUADRUPOLE', 'MULLIKEN_CHARGES')
f=open( 'psi4out.xyz', 'w' )
f.write( "16  " )
f.write( str(ee) + "\n" )
f.write( MOL.save_string_xyz() )
f.close()
--------------------------------------------------------------------------

    Molecular point group: c1
  Charge       = 0
  Multiplicity = 1
  Basis Set: CC-PVTZ
  Basis Set:
  @DF-RHF Final Energy:  -344.69655802617666
    Total Energy =                       -344.6965580261767172
    Molecular point group: c1
  Basis Set: CC-PVTZ
  Basis Set:
  Basis Set: CC-PVTZ
  Basis Set:
  @DF-RHF Final Energy:  -344.69697709769457
    Total Energy =                       -344.6969770976945711
  Basis Set: CC-PVTZ
  Basis Set:
  Basis Set: CC-PVTZ
  Basis Set:
  @DF-RHF Final Energy:  -344.59643255959594
    Total Energy =                       -344.5964325595959963
  Basis Set: CC-PVTZ
  Basis Set:
  Basis Set: CC-PVTZ
  Basis Set:
  @DF-RHF Final Energy:  -344.60452713264363
    Total Energy =                       -344.6045271326433976
  Basis Set: CC-PVTZ
  Basis Set:
  @DF-RHF Final Energy:  -344.62710803890843
    Total Energy =                       -344.6271080389083181
  @DF-RHF Final Energy:  -344.67777424374549
    Total Energy =                       -344.6777742437454890
  @DF-RHF Final Energy:  -344.69891418708153
    Total Energy =                       -344.6989141870817548
  @DF-RHF Final Energy:  -344.69513472072487
    Total Energy =                       -344.6951347207246954
  @DF-RHF Final Energy:  -344.69989262424679
    Total Energy =                       -344.6998926242466723
  @DF-RHF Final Energy:  -344.70046489529733
    Total Energy =                       -344.7004648952973866
  Basis Set: CC-PVTZ
  Basis Set:
  @DF-RHF Final Energy:  -344.70068123001863
    Total Energy =                       -344.7006812300187448
  Basis Set: CC-PVTZ
  Basis Set:
  Basis Set: CC-PVTZ
  Basis Set:
  @DF-RHF Final Energy:  -344.70082027264596
    Total Energy =                       -344.7008202726458421
  Basis Set: CC-PVTZ
  Basis Set:
  Basis Set: CC-PVTZ
  Basis Set:
  @DF-RHF Final Energy:  -344.70082903854308
    Total Energy =                       -344.7008290385431906
  Basis Set: CC-PVTZ
  Basis Set:
  Charge       = 0
  Multiplicity = 1
  Basis Set: CC-PVTZ
  Basis Set:

    Orbital Energies (a.u.)
    -----------------------

    Doubly Occupied:

       1A    -20.575698     2A    -11.292554     3A    -11.277536
       4A    -11.231408     5A    -11.230029     6A    -11.222289
       7A    -11.218305     8A    -11.217889     9A     -1.414622
      10A     -1.151098    11A     -1.024526    12A     -1.016983
      13A     -0.942603    14A     -0.835395    15A     -0.808615
      16A     -0.723962    17A     -0.667148    18A     -0.667015
      19A     -0.655972    20A     -0.617861    21A     -0.591881
      22A     -0.582678    23A     -0.527861    24A     -0.520153
      25A     -0.511445    26A     -0.482747    27A     -0.459568
      28A     -0.339558    29A     -0.311840

  @DF-RHF Final Energy:  -344.70083001635913

   => Energetics <=

    Nuclear Repulsion Energy =            348.5419106414671546
    One-Electron Energy =               -1158.2470026469079585
    Two-Electron Energy =                 465.0042619890818969
    DFT Exchange-Correlation Energy =       0.0000000000000000
    Empirical Dispersion Energy =           0.0000000000000000
    PCM Polarization Energy =               0.0000000000000000
    EFP Energy =                            0.0000000000000000
    Total Energy =                       -344.7008300163588501
    Molecular point group: c1
  Basis Set: CC-PVTZ
  Basis Set:

  -Total Gradient:
     Atom            X                  Y                   Z
    ------   -----------------  -----------------  -----------------
       1       -0.000018271964    -0.000006129344     0.000008964202
       2        0.000108162591     0.000061918396     0.000053022317
       3        0.000073149335    -0.000040072845    -0.000185871205
       4       -0.000116427416    -0.000011819650     0.000010063657
       5       -0.000005631484    -0.000003804407     0.000010323546
       6       -0.000201073796     0.000034826697     0.000078234374
       7        0.000012524185     0.000012678426     0.000011010066
       8       -0.000011396476    -0.000072775817    -0.000184920468
       9        0.000008524846    -0.000018457195    -0.000018377358
      10       -0.001615477045     0.000690584047    -0.001669167527
      11        0.000019741754     0.000022733664     0.000003263154
      12        0.002084336843    -0.000625924176     0.002745208119
      13        0.002009601649    -0.001904799034    -0.000413628776
      14       -0.002332601056     0.001931642605    -0.000425493991
      15       -0.000004859733    -0.000035079024    -0.000015801166
      16       -0.000010302237    -0.000035522344    -0.000006828946

  **** Optimization is complete! (in 12 steps) ****
    Final optimized geometry and variables:
    Molecular point group: c1

    Geometry (in Angstrom), charge = 0, multiplicity = 1:

    H           -2.355038683337     0.356700330350     2.346582421336
    C           -1.610896992319     0.197872662956     1.590696384594
    C           -1.803805165394    -0.755659491017     0.603962312063
    C           -0.447367045295     0.935669688731     1.588508683056
    H           -2.704066198291    -1.340408521092     0.592106797716
    C           -0.853434153880    -0.960066915642    -0.370709286990
    H           -0.277471368354     1.672250498388     2.350923702371
    C            0.521104548988     0.736281695651     0.617955443401
    H           -0.993813207909    -1.693532445606    -1.140133338718
    C            0.314499079018    -0.209947762850    -0.370038575817
    H            1.427584739881     1.306855522947     0.648393755691
    O            1.210967722029    -0.490691068449    -1.335136536432
    C            2.092968477501     0.495312134090    -1.796253040687
    H            2.171693015991     0.381109183132    -2.867781619938
    H            3.069890178460     0.381928010703    -1.342382320293
    H            1.718969277083     1.490121874291    -1.593904022733

  Mulliken Charges: (a.u.)
   Center  Symbol    Alpha    Beta     Spin     Total
       1     H     0.42431  0.42431  0.00000  0.15138
       2     C     3.09862  3.09862  0.00000 -0.19724
       3     C     3.05948  3.05948  0.00000 -0.11897
       4     C     3.06390  3.06390  0.00000 -0.12780
       5     H     0.42287  0.42287  0.00000  0.15427
       6     C     3.11015  3.11015  0.00000 -0.22029
       7     H     0.42300  0.42300  0.00000  0.15401
       8     C     3.13332  3.13332  0.00000 -0.26665
       9     H     0.41973  0.41973  0.00000  0.16055
      10     C     2.85591  2.85591  0.00000  0.28817
      11     H     0.42335  0.42335  0.00000  0.15330
      12     O     4.15968  4.15968  0.00000 -0.31935
      13     C     3.04044  3.04044  0.00000 -0.08088
      14     H     0.44456  0.44456  0.00000  0.11087
      15     H     0.45613  0.45613  0.00000  0.08773
      16     H     0.46456  0.46456  0.00000  0.07089

   Total alpha = 29.00000, Total beta = 29.00000, Total charge =  0.00000

*** Psi4 exiting successfully. Buy a developer a beer!
