                              Psi4 1.0.54 Driver

  ==> Input File <==

--------------------------------------------------------------------------
set {
	reference rhf
	basis cc-pvtz
}

set_num_threads( 4 )
memory 2 gb

molecule MOL {
0 1

H	 -3.162190	 0.493205	 -0.000107
C	 -2.363908	 -0.234727	 0.000005
O	 -1.158738	 0.454634	 -0.000087
H	 -2.464314	 -0.863616	 -0.882153
H	 -2.464327	 -0.863359	 0.882345
C	 -0.774624	 0.944350	 -1.246262
C	 0.547993	 1.671491	 -1.110822
H	 -1.537182	 1.620506	 -1.633502
H	 -0.681055	 0.123653	 -1.957840
C	 1.038693	 2.239650	 -2.437758
H	 0.431624	 2.467601	 -0.383779
H	 1.280945	 0.982634	 -0.705593
H	 0.330270	 2.950755	 -2.849528
H	 1.983932	 2.753221	 -2.312110
H	 1.185551	 1.455848	 -3.173390

	symmetry c1
}
set optking {
	frozen_dihedral = ("
		6 3 2 4
	")
}

ee,wfn = optimize('scf', return_wfn=True)
oeprop( wfn, 'DIPOLE', 'QUADRUPOLE', 'MULLIKEN_CHARGES')
f=open( 'psi4out.xyz', 'w' )
f.write( "15  " )
f.write( str(ee) + "\n" )
f.write( MOL.save_string_xyz() )
f.close()
--------------------------------------------------------------------------

    Molecular point group: c1
  Charge       = 0
  Multiplicity = 1
  Basis Set: CC-PVTZ
  Basis Set:
  @DF-RHF Final Energy:  -232.22641398358095
    Total Energy =                       -232.2264139835806418
    Molecular point group: c1
  Basis Set: CC-PVTZ
  Basis Set:
  Basis Set: CC-PVTZ
  Basis Set:
  @DF-RHF Final Energy:  -232.22710416208872
    Total Energy =                       -232.2271041620887218
  Basis Set: CC-PVTZ
  Basis Set:
  Basis Set: CC-PVTZ
  Basis Set:
  @DF-RHF Final Energy:  -232.22728182148018
    Total Energy =                       -232.2272818214801759
  Basis Set: CC-PVTZ
  Basis Set:
  Charge       = 0
  Multiplicity = 1
  Basis Set: CC-PVTZ
  Basis Set:

    Orbital Energies (a.u.)
    -----------------------

    Doubly Occupied:

       1A    -20.546653     2A    -11.264608     3A    -11.261669
       4A    -11.212658     5A    -11.210681     6A     -1.380728
       7A     -1.058394     8A     -0.956123     9A     -0.877433
      10A     -0.809582    11A     -0.675994    12A     -0.655674
      13A     -0.632526    14A     -0.608064    15A     -0.565189
      16A     -0.541647    17A     -0.503534    18A     -0.490810
      19A     -0.478517    20A     -0.462865    21A     -0.414987

  @DF-RHF Final Energy:  -232.22728313408143

   => Energetics <=

    Nuclear Repulsion Energy =            189.9396858313546943
    One-Electron Energy =                -691.1172619559475834
    Two-Electron Energy =                 268.9502929905112865
    DFT Exchange-Correlation Energy =       0.0000000000000000
    Empirical Dispersion Energy =           0.0000000000000000
    PCM Polarization Energy =               0.0000000000000000
    EFP Energy =                            0.0000000000000000
    Total Energy =                       -232.2272831340815742
    Molecular point group: c1
  Basis Set: CC-PVTZ
  Basis Set:

  -Total Gradient:
     Atom            X                  Y                   Z
    ------   -----------------  -----------------  -----------------
       1        0.000033671123     0.000015468496     0.000006596166
       2        0.001743130198    -0.003105359096     0.001309073233
       3       -0.001714646452     0.002948650807     0.000299147799
       4       -0.000991889796     0.001919520170    -0.001200170777
       5        0.000075479261     0.000037551862    -0.000015013107
       6        0.000906174148    -0.001784201468    -0.000538431127
       7       -0.000009297180    -0.000013981046     0.000078934453
       8       -0.000003695420    -0.000012531543     0.000056134456
       9       -0.000008199618    -0.000002381801    -0.000014578417
      10       -0.000043804876    -0.000007892453    -0.000003815061
      11        0.000017626164     0.000014429214     0.000006073707
      12        0.000002626208    -0.000001586297     0.000004804458
      13        0.000000469340     0.000001974409    -0.000007203408
      14       -0.000009131917    -0.000007131583     0.000016716167
      15        0.000001488817    -0.000002529672     0.000001731458

  **** Optimization is complete! (in 4 steps) ****
    Final optimized geometry and variables:
    Molecular point group: c1

    Geometry (in Angstrom), charge = 0, multiplicity = 1:

    H           -2.645852545873    -0.525928436576     0.969884082173
    C           -1.812148367438    -1.224495098815     0.938004358331
    O           -0.595031478844    -0.553884180866     0.939730689908
    H           -1.930149313565    -1.838834398723     0.048774862033
    H           -1.853351458618    -1.854772445847     1.814605470812
    C           -0.202544023328    -0.048234723634    -0.297562701822
    C            1.123996247574     0.668107075971    -0.144172824221
    H           -0.956906792569     0.639768857970    -0.680825862036
    H           -0.110722106870    -0.859942110118    -1.018920979549
    C            1.629744582471     1.244651326106    -1.461882633532
    H            1.007916964884     1.458533172946     0.589160218246
    H            1.848309232309    -0.030115446753     0.260780052401
    H            0.929754531897     1.964357642484    -1.873252789110
    H            2.577509114962     1.750464090917    -1.323795170775
    H            1.777350590948     0.466302317600    -2.203219772767

  Mulliken Charges: (a.u.)
   Center  Symbol    Alpha    Beta     Spin     Total
       1     H     0.46771  0.46771  0.00000  0.06458
       2     C     3.03246  3.03246  0.00000 -0.06491
       3     O     4.17278  4.17278  0.00000 -0.34557
       4     H     0.47439  0.47439  0.00000  0.05123
       5     H     0.44846  0.44846  0.00000  0.10309
       6     C     2.95607  2.95607  0.00000  0.08787
       7     C     3.08076  3.08076  0.00000 -0.16152
       8     H     0.47695  0.47695  0.00000  0.04611
       9     H     0.47446  0.47446  0.00000  0.05108
      10     C     3.15581  3.15581  0.00000 -0.31162
      11     H     0.45099  0.45099  0.00000  0.09803
      12     H     0.45118  0.45118  0.00000  0.09765
      13     H     0.45583  0.45583  0.00000  0.08835
      14     H     0.44626  0.44626  0.00000  0.10748
      15     H     0.45591  0.45591  0.00000  0.08817

   Total alpha = 21.00000, Total beta = 21.00000, Total charge = -0.00000

*** Psi4 exiting successfully. Buy a developer a beer!
