  ==> Input File <==

--------------------------------------------------------------------------
set {
	reference rhf
	basis 6-31G*
}

set_num_threads( 4 )
memory 2 gb

molecule MOL {
0 1

H	 3.089270	 -1.380733	 0.000000
O	 2.178328	 -1.639175	 0.000000
C	 1.368216	 -0.558384	 0.000000
C	 0.202981	 -0.501768	 -0.753873
C	 1.735248	 0.518321	 0.788305
H	 -0.080839	 -1.340782	 -1.366686
C	 -0.593723	 0.630362	 -0.719033
H	 2.635043	 0.475893	 1.371096
C	 0.932034	 1.647945	 0.817512
H	 -1.493137	 0.662512	 -1.306741
C	 -0.234581	 1.711057	 0.065982
C	 1.320474	 2.808272	 1.662276
H	 -0.851935	 2.591434	 0.094542
O	 2.296894	 2.852127	 2.339938
H	 0.630248	 3.656506	 1.625731

	symmetry c1
}
set optking {
	frozen_dihedral = ("
		4 3 2 1
	")
}

ee = optimize('scf')
oeprop('DIPOLE', 'QUADRUPOLE', 'MULLIKEN_CHARGES')
f=open( 'psi4out.xyz', 'w' )
f.write( "15  " )
f.write( str(ee) + "\n" )
f.write( MOL.save_string_xyz() )
f.close()
--------------------------------------------------------------------------

    Molecular point group: c1
  Charge       = 0
  Multiplicity = 1
  Basis Set: 6-31G*
  Basis Set:
  @DF-RHF Final Energy:  -418.28373824317453
    Total Energy =                       -418.2837382431745255
    Molecular point group: c1
  Basis Set: 6-31G*
  Basis Set:
  Basis Set: 6-31G*
  Basis Set:
  @DF-RHF Final Energy:  -418.28537691790586
    Total Energy =                       -418.2853769179062056
  Basis Set: 6-31G*
  Basis Set:
  Basis Set: 6-31G*
  Basis Set:
  @DF-RHF Final Energy:  -418.28450818852633
    Total Energy =                       -418.2845081885265017
  Basis Set: 6-31G*
  Basis Set:
  Basis Set: 6-31G*
  Basis Set:
  @DF-RHF Final Energy:  -418.28551940133218
    Total Energy =                       -418.2855194013319533
  Basis Set: 6-31G*
  Basis Set:
  Basis Set: 6-31G*
  Basis Set:
  @DF-RHF Final Energy:  -418.28553537106012
    Total Energy =                       -418.2855353710604049
  Basis Set: 6-31G*
  Basis Set:
  Charge       = 0
  Multiplicity = 1
  Basis Set: 6-31G*
  Basis Set:

    Orbital Energies (a.u.)
    -----------------------

    Doubly Occupied:

       1A    -20.595099     2A    -20.566600     3A    -11.335100
       4A    -11.308692     5A    -11.253072     6A    -11.251206
       7A    -11.249699     8A    -11.245962     9A    -11.244772
      10A     -1.413364    11A     -1.407139    12A     -1.170118
      13A     -1.049422    14A     -1.026131    15A     -0.899794
      16A     -0.850880    17A     -0.797127    18A     -0.750975
      19A     -0.699903    20A     -0.669530    21A     -0.660045
      22A     -0.629413    23A     -0.616718    24A     -0.607202
      25A     -0.560927    26A     -0.549979    27A     -0.533423
      28A     -0.512954    29A     -0.486121    30A     -0.425777
      31A     -0.352833    32A     -0.332681

  @DF-RHF Final Energy:  -418.28553797487859

   => Energetics <=

    Nuclear Repulsion Energy =            403.0318679021385151
    One-Electron Energy =               -1368.5294957764833725
    Two-Electron Energy =                 547.2120898994664913
    DFT Exchange-Correlation Energy =       0.0000000000000000
    Empirical Dispersion Energy =           0.0000000000000000
    PCM Polarization Energy =               0.0000000000000000
    EFP Energy =                            0.0000000000000000
    Total Energy =                       -418.2855379748783662
    Molecular point group: c1
  Basis Set: 6-31G*
  Basis Set:

  -Total Gradient:
     Atom            X                  Y                   Z
    ------   -----------------  -----------------  -----------------
       1       -0.000092400407     0.000121915794    -0.002875036949
       2        0.000662493492     0.000239498682     0.002813425085
       3       -0.001897764132    -0.001250274746     0.001506727264
       4        0.001204583991     0.000719155125    -0.001546734742
       5        0.000086106794     0.000036889850     0.000097085355
       6        0.000025107749    -0.000039903114    -0.000002210811
       7        0.000025685445     0.000130685769     0.000011311053
       8       -0.000049631141     0.000023761562    -0.000033873492
       9        0.000072446518     0.000038289510    -0.000028733845
      10        0.000027560606    -0.000024018245     0.000005446421
      11       -0.000054161023    -0.000075883323     0.000000569867
      12       -0.000081706305     0.000038967183    -0.000019007110
      13        0.000040230362     0.000029629869     0.000051688778
      14        0.000027692691    -0.000007167946     0.000010499361
      15        0.000003755358     0.000018454039     0.000008843765

  **** Optimization is complete! (in 6 steps) ****
    Final optimized geometry and variables:
    Molecular point group: c1

    Geometry (in Angstrom), charge = 0, multiplicity = 1:

    H            1.974089412018    -2.282148152543    -0.543660326657
    O            1.050672620413    -2.493136559547    -0.531910042583
    C            0.301452468077    -1.361142548585    -0.477294482658
    C           -0.858525129594    -1.313266495009    -1.243094861982
    C            0.657073414427    -0.284678281468     0.309205793433
    H           -1.108608881808    -2.160972376569    -1.853536105061
    C           -1.667017263782    -0.194003611239    -1.204405242621
    H            1.547790803008    -0.308425291917     0.909990674372
    C           -0.152861017168     0.846652071516     0.332673906919
    H           -2.564481671140    -0.165529025619    -1.795032613703
    C           -1.316155083156     0.893793986830    -0.417358317670
    C            0.229896568849     2.009556635762     1.172859359949
    H           -1.941401328543     1.768946872127    -0.391600652695
    O            1.216080574136     2.064112523250     1.837028813485
    H           -0.470225353939     2.849724726145     1.147312005283

  Mulliken Charges: (a.u.)
   Center  Symbol    Alpha    Beta     Spin     Total
       1     H     0.26958  0.26958  0.00000  0.46083
       2     O     4.38211  4.38211  0.00000 -0.76423
       3     C     2.80308  2.80308  0.00000  0.39384
       4     C     3.11046  3.11046  0.00000 -0.22091
       5     C     3.12609  3.12609  0.00000 -0.25219
       6     H     0.38591  0.38591  0.00000  0.22819
       7     C     3.09858  3.09858  0.00000 -0.19716
       8     H     0.37824  0.37824  0.00000  0.24352
       9     C     3.04821  3.04821  0.00000 -0.09642
      10     H     0.39257  0.39257  0.00000  0.21487
      11     C     3.11179  3.11179  0.00000 -0.22359
      12     C     2.83216  2.83216  0.00000  0.33568
      13     H     0.39257  0.39257  0.00000  0.21486
      14     O     4.24782  4.24782  0.00000 -0.49564
      15     H     0.42083  0.42083  0.00000  0.15834

   Total alpha = 32.00000, Total beta = 32.00000, Total charge = -0.00000
