                              Psi4 1.0.54 Driver

  ==> Input File <==

--------------------------------------------------------------------------
set {
	reference rhf
	basis cc-pvtz
}

set_num_threads( 4 )
memory 2 gb

molecule MOL {
0 1

H	 2.614283	 2.028610	 0.296620
O	 3.358864	 1.662087	 -0.142800
C	 3.565468	 0.338079	 0.273842
C	 2.533667	 -0.637565	 -0.272227
H	 4.548038	 0.064914	 -0.086598
H	 3.593945	 0.282242	 1.360360
C	 2.751840	 -1.029374	 -1.731930
H	 2.536785	 -1.527623	 0.349822
H	 1.552631	 -0.180941	 -0.165171
C	 1.678739	 -1.983357	 -2.254624
H	 3.727977	 -1.490960	 -1.837277
H	 2.761850	 -0.131865	 -2.348100
C	 1.806129	 -2.351272	 -3.734038
H	 1.686941	 -2.891671	 -1.657023
H	 0.705285	 -1.527270	 -2.097017
C	 3.031629	 -3.191837	 -4.088074
H	 0.915005	 -2.899619	 -4.026853
H	 1.809403	 -1.441753	 -4.330627
C	 3.061590	 -3.616233	 -5.554157
H	 3.050951	 -4.079034	 -3.458807
H	 3.940067	 -2.640600	 -3.864734
C	 4.285765	 -4.452473	 -5.911916
H	 2.161404	 -4.180110	 -5.782821
H	 3.033785	 -2.731242	 -6.184300
H	 4.325111	 -5.361479	 -5.320818
H	 4.274432	 -4.738674	 -6.957414
H	 5.203003	 -3.902040	 -5.730117

	symmetry c1
}
set optking {
	frozen_dihedral = ("
		8 4 3 2
	")
}

ee,wfn = optimize('scf', return_wfn=True)
oeprop( wfn, 'DIPOLE', 'QUADRUPOLE', 'MULLIKEN_CHARGES')
f=open( 'psi4out.xyz', 'w' )
f.write( "27  " )
f.write( str(ee) + "\n" )
f.write( MOL.save_string_xyz() )
f.close()
--------------------------------------------------------------------------

    Molecular point group: c1
  Charge       = 0
  Multiplicity = 1
  Basis Set: CC-PVTZ
  Basis Set:
  @DF-RHF Final Energy:  -388.42682401987992
    Total Energy =                       -388.4268240198795183
    Molecular point group: c1
  Basis Set: CC-PVTZ
  Basis Set:
  Basis Set: CC-PVTZ
  Basis Set:
  @DF-RHF Final Energy:  -388.42712477934219
    Total Energy =                       -388.4271247793421935
  Basis Set: CC-PVTZ
  Basis Set:
  Basis Set: CC-PVTZ
  Basis Set:
  @DF-RHF Final Energy:  -388.42716966358915
    Total Energy =                       -388.4271696635898934
  Basis Set: CC-PVTZ
  Basis Set:
  Basis Set: CC-PVTZ
  Basis Set:
  @DF-RHF Final Energy:  -388.42717378287739
    Total Energy =                       -388.4271737828776168
  Basis Set: CC-PVTZ
  Basis Set:
  Charge       = 0
  Multiplicity = 1
  Basis Set: CC-PVTZ
  Basis Set:

    Orbital Energies (a.u.)
    -----------------------

    Doubly Occupied:

       1A    -20.545493     2A    -11.265340     3A    -11.215271
       4A    -11.211403     5A    -11.211238     6A    -11.209997
       7A    -11.209853     8A    -11.208721     9A    -11.205050
      10A     -1.363544    11A     -1.093068    12A     -1.060332
      13A     -1.010591    14A     -0.945726    15A     -0.884350
      16A     -0.822811    17A     -0.802645    18A     -0.775974
      19A     -0.682796    20A     -0.651606    21A     -0.638862
      22A     -0.613462    23A     -0.608684    24A     -0.584397
      25A     -0.573233    26A     -0.557719    27A     -0.537447
      28A     -0.519061    29A     -0.513173    30A     -0.490665
      31A     -0.479674    32A     -0.474952    33A     -0.464720
      34A     -0.458270    35A     -0.455130    36A     -0.441371
      37A     -0.421197

  @DF-RHF Final Energy:  -388.42717374193643

   => Energetics <=

    Nuclear Repulsion Energy =            457.9890657346000467
    One-Electron Energy =               -1434.4168268115818137
    Two-Electron Energy =                 588.0005873350455659
    DFT Exchange-Correlation Energy =       0.0000000000000000
    Empirical Dispersion Energy =           0.0000000000000000
    PCM Polarization Energy =               0.0000000000000000
    EFP Energy =                            0.0000000000000000
    Total Energy =                       -388.4271737419362580
    Molecular point group: c1
  Basis Set: CC-PVTZ
  Basis Set:

  -Total Gradient:
     Atom            X                  Y                   Z
    ------   -----------------  -----------------  -----------------
       1       -0.000034803838     0.000056266560    -0.000019993909
       2       -0.001689842807     0.000440214222     0.002395979788
       3        0.001781044783    -0.000464788714    -0.002724900546
       4        0.002573745432    -0.001633351638    -0.001790643791
       5        0.000006938903    -0.000004134146    -0.000007685513
       6       -0.000024945512     0.000088446914     0.000000380313
       7       -0.000041558396    -0.000020826354     0.000047772135
       8       -0.002513686904     0.001461950568     0.002098691706
       9       -0.000061286378     0.000034664650    -0.000009228142
      10        0.000015534476     0.000019473253    -0.000011693773
      11        0.000014491170    -0.000025643458    -0.000012716615
      12       -0.000022429889     0.000032942568    -0.000001121559
      13       -0.000015303545    -0.000048691731    -0.000002606958
      14       -0.000015169803     0.000020658248    -0.000007883032
      15        0.000006788530     0.000008263265    -0.000005788387
      16        0.000004709140     0.000005653900     0.000013059043
      17        0.000004647911    -0.000008232235     0.000002720119
      18       -0.000010727398    -0.000002525188     0.000008422915
      19        0.000005900256     0.000008963141    -0.000005549278
      20       -0.000003095958     0.000010664754    -0.000006645969
      21        0.000025011599     0.000020668751     0.000033685205
      22       -0.000005702914    -0.000002985301     0.000006251147
      23       -0.000000052648     0.000001172981     0.000001476794
      24       -0.000000119315     0.000002111151    -0.000002752748
      25        0.000002590459    -0.000002101833     0.000000530305
      26       -0.000002008200     0.000000596987     0.000001108424
      27       -0.000000669154     0.000000568693    -0.000000867680

  **** Optimization is complete! (in 5 steps) ****
    Final optimized geometry and variables:
    Molecular point group: c1

    Geometry (in Angstrom), charge = 0, multiplicity = 1:

    H           -0.374593674383     3.569007189151     2.757238598129
    O            0.449812312747     3.261627003480     2.427079707258
    C            0.673692152562     1.946443608299     2.863522618852
    C           -0.351529097931     0.956954584588     2.323785004088
    H            1.669449686174     1.683975751303     2.530465138758
    H            0.678375343983     1.914017979141     3.950157503795
    C           -0.145480059441     0.587491573275     0.858610933929
    H           -0.348820221268     0.069417288125     2.951437226130
    H           -1.341124996202     1.393539237281     2.452523634354
    C           -1.236377993419    -0.333365234081     0.315838591601
    H            0.826474554335     0.116011770759     0.753211477764
    H           -0.112487536334     1.497792313100     0.267494424429
    C           -1.112115921796    -0.672592553090    -1.170716006318
    H           -1.250876384037    -1.255065504415     0.893538660130
    H           -2.201010298828     0.139582809697     0.479389320989
    C            0.102947006234    -1.521568629925    -1.539880780537
    H           -2.009911609735    -1.202540732182    -1.477059524284
    H           -1.094372679819     0.249450667524    -1.747015305734
    C            0.132580005278    -1.912479350259    -3.015173413501
    H            0.107412042284    -2.423569570910    -0.931468872825
    H            1.017420848715    -0.987773396842    -1.300493239239
    C            1.346204112190    -2.757450350395    -3.387887927502
    H           -0.774590897050    -2.458015506003    -3.260402883348
    H            0.120073451116    -1.012783740874    -3.624440053312
    H            1.370025722508    -3.680817510855    -2.818511750131
    H            1.335478326736    -3.018577299080    -4.439947759162
    H            2.270209542283    -2.224588641436    -3.189219322917

  Mulliken Charges: (a.u.)
   Center  Symbol    Alpha    Beta     Spin     Total
       1     H     0.39522  0.39522  0.00000  0.20956
       2     O     4.20461  4.20461  0.00000 -0.40923
       3     C     2.97330  2.97330  0.00000  0.05339
       4     C     3.09637  3.09637  0.00000 -0.19274
       5     H     0.46021  0.46021  0.00000  0.07958
       6     H     0.46220  0.46220  0.00000  0.07560
       7     C     3.09283  3.09283  0.00000 -0.18565
       8     H     0.45289  0.45289  0.00000  0.09422
       9     H     0.46199  0.46199  0.00000  0.07602
      10     C     3.09954  3.09954  0.00000 -0.19907
      11     H     0.45286  0.45286  0.00000  0.09428
      12     H     0.44643  0.44643  0.00000  0.10715
      13     C     3.09741  3.09741  0.00000 -0.19482
      14     H     0.45472  0.45472  0.00000  0.09056
      15     H     0.44855  0.44855  0.00000  0.10291
      16     C     3.08814  3.08814  0.00000 -0.17628
      17     H     0.44898  0.44898  0.00000  0.10203
      18     H     0.45315  0.45315  0.00000  0.09369
      19     C     3.08392  3.08392  0.00000 -0.16784
      20     H     0.45575  0.45575  0.00000  0.08849
      21     H     0.45303  0.45303  0.00000  0.09394
      22     C     3.14978  3.14978  0.00000 -0.29957
      23     H     0.45438  0.45438  0.00000  0.09124
      24     H     0.45431  0.45431  0.00000  0.09138
      25     H     0.45558  0.45558  0.00000  0.08885
      26     H     0.44858  0.44858  0.00000  0.10284
      27     H     0.45526  0.45526  0.00000  0.08947

   Total alpha = 37.00000, Total beta = 37.00000, Total charge =  0.00000

*** Psi4 exiting successfully. Buy a developer a beer!
