                              Psi4 1.0.54 Driver

  ==> Input File <==

--------------------------------------------------------------------------
set {
	reference rhf
	basis cc-pvtz
}

set_num_threads( 4 )
memory 2 gb

molecule MOL {
0 1

H	 -0.090124	 -3.721106	 0.262002
O	 0.248256	 -2.844530	 0.157842
C	 -0.774910	 -1.994980	 0.162114
C	 -0.318151	 -0.570512	 0.000144
O	 -1.893819	 -2.357952	 0.281542
C	 -1.454884	 0.441630	 -0.000560
H	 0.388896	 -0.368365	 0.798337
H	 0.254267	 -0.520732	 -0.920594
C	 -2.822577	 -0.232186	 0.000063
H	 -1.359760	 1.084704	 -0.867077
H	 -1.359641	 1.085996	 0.864983
H	 -2.954352	 -0.858985	 -0.875745
H	 -3.615886	 0.505352	 0.000019
H	 -2.953878	 -0.858359	 0.876394

	symmetry c1
}
set optking {
	frozen_dihedral = ("
		7 4 6 10
	")
}

ee,wfn = optimize('scf', return_wfn=True)
oeprop( wfn, 'DIPOLE', 'QUADRUPOLE', 'MULLIKEN_CHARGES')
f=open( 'psi4out.xyz', 'w' )
f.write( "14  " )
f.write( str(ee) + "\n" )
f.write( MOL.save_string_xyz() )
f.close()
--------------------------------------------------------------------------

    Molecular point group: c1
  Charge       = 0
  Multiplicity = 1
  Basis Set: CC-PVTZ
  Basis Set:
  @DF-RHF Final Energy:  -305.96463672200207
    Total Energy =                       -305.9646367220019556
    Molecular point group: c1
  Basis Set: CC-PVTZ
  Basis Set:
  Basis Set: CC-PVTZ
  Basis Set:
  @DF-RHF Final Energy:  -305.98338288704997
    Total Energy =                       -305.9833828870501407
  Basis Set: CC-PVTZ
  Basis Set:
  Basis Set: CC-PVTZ
  Basis Set:
  @DF-RHF Final Energy:  -305.98667716121315
    Total Energy =                       -305.9866771612133789
  Basis Set: CC-PVTZ
  Basis Set:
  Basis Set: CC-PVTZ
  Basis Set:
  @DF-RHF Final Energy:  -305.98510657001418
    Total Energy =                       -305.9851065700142954
  Basis Set: CC-PVTZ
  Basis Set:
  @DF-RHF Final Energy:  -305.98833655414489
    Total Energy =                       -305.9883365541447802
  @DF-RHF Final Energy:  -305.98848543891546
    Total Energy =                       -305.9884854389156317
  @DF-RHF Final Energy:  -305.98855222120972
    Total Energy =                       -305.9885522212093747
  @DF-RHF Final Energy:  -305.98861839931442
    Total Energy =                       -305.9886183993145323
  @DF-RHF Final Energy:  -305.98869341233876
    Total Energy =                       -305.9886934123384776
  @DF-RHF Final Energy:  -305.98879692599382
    Total Energy =                       -305.9887969259939382
  @DF-RHF Final Energy:  -305.98900545668300
    Total Energy =                       -305.9890054566830031
  @DF-RHF Final Energy:  -305.98909172683432
    Total Energy =                       -305.9890917268343173
  @DF-RHF Final Energy:  -305.98905808978179
    Total Energy =                       -305.9890580897816790
  @DF-RHF Final Energy:  -305.98939798821095
    Total Energy =                       -305.9893979882111807
  @DF-RHF Final Energy:  -305.98963422858651
    Total Energy =                       -305.9896342285864534
  @DF-RHF Final Energy:  -305.98977576524180
    Total Energy =                       -305.9897757652418591
  @DF-RHF Final Energy:  -305.98987419687592
    Total Energy =                       -305.9898741968759168
  @DF-RHF Final Energy:  -305.98996098283533
    Total Energy =                       -305.9899609828356120
  @DF-RHF Final Energy:  -305.99014187912394
    Total Energy =                       -305.9901418791241667
  @DF-RHF Final Energy:  -305.99035177097494
    Total Energy =                       -305.9903517709749394
  @DF-RHF Final Energy:  -305.99061437887553
    Total Energy =                       -305.9906143788754775
  @DF-RHF Final Energy:  -305.99077138751642
    Total Energy =                       -305.9907713875164177
  @DF-RHF Final Energy:  -305.99084200286291
    Total Energy =                       -305.9908420028627916
  @DF-RHF Final Energy:  -305.99101761714064
    Total Energy =                       -305.9910176171404146
  @DF-RHF Final Energy:  -305.99117102945218
    Total Energy =                       -305.9911710294521754
  @DF-RHF Final Energy:  -305.99133076330133
    Total Energy =                       -305.9913307633012778
  @DF-RHF Final Energy:  -305.99146700163067
    Total Energy =                       -305.9914670016306673
  Basis Set: CC-PVTZ
  Basis Set:
  @DF-RHF Final Energy:  -305.99155307772514
    Total Energy =                       -305.9915530777250865
  Basis Set: CC-PVTZ
  Basis Set:
  Basis Set: CC-PVTZ
  Basis Set:
  @DF-RHF Final Energy:  -305.99156612485945
    Total Energy =                       -305.9915661248595597
  Basis Set: CC-PVTZ
  Basis Set:
  Basis Set: CC-PVTZ
  Basis Set:
  @DF-RHF Final Energy:  -305.99156737541364
    Total Energy =                       -305.9915673754136378
  Basis Set: CC-PVTZ
  Basis Set:
  Charge       = 0
  Multiplicity = 1
  Basis Set: CC-PVTZ
  Basis Set:

    Orbital Energies (a.u.)
    -----------------------

    Doubly Occupied:

       1A    -20.605396     2A    -20.538302     3A    -11.372929
       4A    -11.238059     5A    -11.235053     6A    -11.214628
       7A     -1.477620     8A     -1.367883     9A     -1.081090
      10A     -0.978102    11A     -0.865668    12A     -0.798319
      13A     -0.706010    14A     -0.679832    15A     -0.653438
      16A     -0.635493    17A     -0.588549    18A     -0.573964
      19A     -0.560191    20A     -0.509019    21A     -0.498387
      22A     -0.483368    23A     -0.474959    24A     -0.441008

  @DF-RHF Final Energy:  -305.99156747551660

   => Energetics <=

    Nuclear Repulsion Energy =            247.2838398813405263
    One-Electron Energy =                -907.3962794220640262
    Two-Electron Energy =                 354.1208720652069815
    DFT Exchange-Correlation Energy =       0.0000000000000000
    Empirical Dispersion Energy =           0.0000000000000000
    PCM Polarization Energy =               0.0000000000000000
    EFP Energy =                            0.0000000000000000
    Total Energy =                       -305.9915674755164900
    Molecular point group: c1
  Basis Set: CC-PVTZ
  Basis Set:

  -Total Gradient:
     Atom            X                  Y                   Z
    ------   -----------------  -----------------  -----------------
       1        0.000009969533    -0.000006847319    -0.000008831121
       2        0.000016812576    -0.000020732557     0.000030752887
       3       -0.000036152350    -0.000016787239     0.000041388663
       4        0.001122737367     0.001572023635    -0.001439696735
       5        0.000022854820     0.000014640259    -0.000061753127
       6        0.000953511006     0.000995212304     0.001872573496
       7       -0.001082536502    -0.001452410806     0.000926436239
       8        0.000009935395    -0.000011559973     0.000001809350
       9       -0.000003710174     0.000024965519    -0.000031464214
      10       -0.000989780303    -0.001104742668    -0.001364587026
      11       -0.000009896589    -0.000011710009    -0.000011541646
      12        0.000007840461     0.000013056184     0.000022668411
      13       -0.000016414093     0.000013153693     0.000011081866
      14       -0.000005171146    -0.000008261029     0.000011162959

  **** Optimization is complete! (in 31 steps) ****
    Final optimized geometry and variables:
    Molecular point group: c1

    Geometry (in Angstrom), charge = 0, multiplicity = 1:

    H            0.133467192798    -2.080685634409    -1.149814660319
    O            0.383477746655    -1.169483329630    -1.190279880966
    C            0.508158783839    -0.714034203211     0.052626568699
    C            0.883418322851     0.743554718291     0.108815913606
    O            0.333154540392    -1.408242371700     0.994730157357
    C           -0.333869075882     1.709592644102     0.190705234271
    H            1.492675395240     0.850738370932     0.993832908787
    H            1.485758490088     0.971977149815    -0.758200058109
    C           -1.710618916007     1.088580522227    -0.041447343142
    H           -0.189257845636     2.490619810847    -0.544999110515
    H           -0.327624655038     2.187510097458     1.161310784094
    H           -1.785176260420     0.639757327588    -1.024621456367
    H           -2.473942619799     1.853914070861     0.030722123381
    H           -1.935276084121     0.327682061970     0.695829371238

  Mulliken Charges: (a.u.)
   Center  Symbol    Alpha    Beta     Spin     Total
       1     H     0.38001  0.38001  0.00000  0.23997
       2     O     4.16645  4.16645  0.00000 -0.33291
       3     C     2.79272  2.79272  0.00000  0.41456
       4     C     3.09941  3.09941  0.00000 -0.19882
       5     O     4.20121  4.20121  0.00000 -0.40241
       6     C     3.08620  3.08620  0.00000 -0.17241
       7     H     0.43651  0.43651  0.00000  0.12698
       8     H     0.44034  0.44034  0.00000  0.11932
       9     C     3.16039  3.16039  0.00000 -0.32079
      10     H     0.44905  0.44905  0.00000  0.10190
      11     H     0.44703  0.44703  0.00000  0.10594
      12     H     0.44898  0.44898  0.00000  0.10205
      13     H     0.44625  0.44625  0.00000  0.10751
      14     H     0.44546  0.44546  0.00000  0.10909

   Total alpha = 24.00000, Total beta = 24.00000, Total charge = -0.00000

*** Psi4 exiting successfully. Buy a developer a beer!
