  ==> Input File <==

--------------------------------------------------------------------------
set {
	reference rhf
	basis cc-pvtz
}

set_num_threads( 4 )
memory 2 gb

molecule MOL {
0 1

H	 3.288184	 -0.461113	 0.037559
C	 2.231600	 -0.272657	 0.028647
C	 1.634912	 0.251941	 -1.108056
C	 1.474787	 -0.553775	 1.148345
H	 2.229733	 0.467795	 -1.974306
C	 0.279778	 0.495190	 -1.123661
H	 1.939046	 -0.959460	 2.026046
C	 0.113931	 -0.308938	 1.131155
H	 -0.199570	 0.900232	 -1.992466
C	 -0.486398	 0.214248	 0.000000
H	 -0.481096	 -0.525371	 1.999069
C	 -1.946525	 0.470130	 0.000000
O	 -2.779618	 -0.371226	 0.000000
H	 -2.227127	 1.528393	 0.000000

	symmetry c1
}
set optking {
	frozen_dihedral = ("
		8 10 12 14
	")
}

ee = optimize('scf')
oeprop('DIPOLE', 'QUADRUPOLE', 'MULLIKEN_CHARGES')
f=open( 'psi4out.xyz', 'w' )
f.write( "14  " )
f.write( str(ee) + "\n" )
f.write( MOL.save_string_xyz() )
f.close()
--------------------------------------------------------------------------

    Molecular point group: c1
  Charge       = 0
  Multiplicity = 1
  Basis Set: CC-PVTZ
  Basis Set:
  @DF-RHF Final Energy:  -343.53828706046050
    Total Energy =                       -343.5382870604606751
    Molecular point group: c1
  Basis Set: CC-PVTZ
  Basis Set:
  Basis Set: CC-PVTZ
  Basis Set:
  @DF-RHF Final Energy:  -343.53734408251910
    Total Energy =                       -343.5373440825189277
  Basis Set: CC-PVTZ
  Basis Set:
  Basis Set: CC-PVTZ
  Basis Set:
  @DF-RHF Final Energy:  -343.53881317791576
    Total Energy =                       -343.5388131779158130
  Basis Set: CC-PVTZ
  Basis Set:
  Basis Set: CC-PVTZ
  Basis Set:
  @DF-RHF Final Energy:  -343.53906987734712
    Total Energy =                       -343.5390698773470604
  Basis Set: CC-PVTZ
  Basis Set:
  Basis Set: CC-PVTZ
  Basis Set:
  @DF-RHF Final Energy:  -343.53907208567080
    Total Energy =                       -343.5390720856706253
  Basis Set: CC-PVTZ
  Basis Set:
  Charge       = 0
  Multiplicity = 1
  Basis Set: CC-PVTZ
  Basis Set:

    Orbital Energies (a.u.)
    -----------------------

    Doubly Occupied:

       1A    -20.562113     2A    -11.331888     3A    -11.250667
       4A    -11.246951     5A    -11.245435     6A    -11.243564
       7A    -11.242548     8A    -11.241541     9A     -1.416547
      10A     -1.175298    11A     -1.049758    12A     -1.033872
      13A     -0.890702    14A     -0.845589    15A     -0.797645
      16A     -0.725690    17A     -0.681482    18A     -0.657399
      19A     -0.642936    20A     -0.621047    21A     -0.604586
      22A     -0.542893    23A     -0.532023    24A     -0.516554
      25A     -0.506546    26A     -0.426312    27A     -0.352552
      28A     -0.351863

  @DF-RHF Final Energy:  -343.53907260193336

   => Energetics <=

    Nuclear Repulsion Energy =            323.1580126269038260
    One-Electron Energy =               -1105.9221712090670735
    Two-Electron Energy =                 439.2250859802300056
    DFT Exchange-Correlation Energy =       0.0000000000000000
    Empirical Dispersion Energy =           0.0000000000000000
    PCM Polarization Energy =               0.0000000000000000
    EFP Energy =                            0.0000000000000000
    Total Energy =                       -343.5390726019331851
    Molecular point group: c1
  Basis Set: CC-PVTZ
  Basis Set:

  -Total Gradient:
     Atom            X                  Y                   Z
    ------   -----------------  -----------------  -----------------
       1        0.000002248693     0.000002666578    -0.000007277300
       2       -0.000009850012    -0.000034502530     0.000107409709
       3       -0.000083064141     0.000031455844    -0.000039086120
       4        0.000127348866     0.000004369835    -0.000086669924
       5        0.000006095832    -0.000005760551     0.000007548500
       6        0.000074505984    -0.000017861290    -0.000040769169
       7       -0.000006040055     0.000001810134     0.000001195593
       8        0.000759794513     0.004294562060     0.001346955903
       9        0.000000947837     0.000002038704     0.000001387405
      10       -0.001286572342    -0.006143836552    -0.000174841629
      11        0.000002003278    -0.000002398154    -0.000002512725
      12        0.000277172062     0.001673622369    -0.006671318712
      13        0.000040935446     0.000029038726     0.000000186115
      14        0.000094474035     0.000164794826     0.005557792353

  **** Optimization is complete! (in 6 steps) ****
    Final optimized geometry and variables:
    Molecular point group: c1

    Geometry (in Angstrom), charge = 0, multiplicity = 1:

    H            3.304037854241    -0.425902295748     0.026560705842
    C            2.245509548497    -0.250737122288     0.009978844669
    C            1.648316457468     0.267327690942    -1.124499913050
    C            1.479761432130    -0.536818548940     1.123902735336
    H            2.241388378442     0.493344237516    -1.989590867959
    C            0.288099948783     0.504546754306    -1.141247595601
    H            1.942557197978    -0.930323301910     2.008333512615
    C            0.115126832497    -0.318891892132     1.101909060735
    H           -0.170749851490     0.924271741079    -2.017353049471
    C           -0.485551008583     0.187176968113    -0.037297896348
    H           -0.483378674703    -0.551699901054     1.961509565418
    C           -1.950651914281     0.491331642602    -0.030541393836
    O           -2.797603764042    -0.325112358216     0.077889737227
    H           -2.209939404469     1.554897584553    -0.061184419088

  Mulliken Charges: (a.u.)
   Center  Symbol    Alpha    Beta     Spin     Total
       1     H     0.42065  0.42065  0.00000  0.15870
       2     C     3.08243  3.08243  0.00000 -0.16486
       3     C     3.06428  3.06428  0.00000 -0.12857
       4     C     3.06368  3.06368  0.00000 -0.12735
       5     H     0.42075  0.42075  0.00000  0.15849
       6     C     3.09860  3.09860  0.00000 -0.19719
       7     H     0.42081  0.42081  0.00000  0.15838
       8     C     3.09828  3.09828  0.00000 -0.19656
       9     H     0.42407  0.42407  0.00000  0.15186
      10     C     2.94253  2.94253  0.00000  0.11493
      11     H     0.41767  0.41767  0.00000  0.16466
      12     C     2.92862  2.92862  0.00000  0.14276
      13     O     4.15893  4.15893  0.00000 -0.31787
      14     H     0.45870  0.45870  0.00000  0.08260

   Total alpha = 28.00000, Total beta = 28.00000, Total charge = -0.00000
