  ==> Input File <==

--------------------------------------------------------------------------
set {
	reference rhf
	basis 6-31G*
}

set_num_threads( 4 )
memory 2 gb

molecule MOL {
0 1

H	 2.465338	 -2.224223	 0.000000
O	 2.784187	 -1.332015	 0.000000
C	 1.765313	 -0.449364	 0.000000
C	 1.423159	 0.131046	 -1.217374
C	 1.070694	 -0.115020	 1.146234
H	 1.978164	 -0.145245	 -2.094010
C	 0.389176	 1.041939	 -1.282327
H	 1.312891	 -0.546709	 2.097293
C	 0.038007	 0.803204	 1.045040
H	 0.131721	 1.485194	 -2.226307
C	 -0.324134	 1.394422	 -0.144440
N	 -0.693572	 1.153387	 2.260627
H	 -1.128628	 2.099407	 -0.178956
O	 -0.360034	 0.626817	 3.279208
O	 -1.580908	 1.944421	 2.164891

	symmetry c1
}
set optking {
	frozen_dihedral = ("
		4 3 2 1
	")
}

ee = optimize('scf')
oeprop('DIPOLE', 'QUADRUPOLE', 'MULLIKEN_CHARGES')
f=open( 'psi4out.xyz', 'w' )
f.write( "15  " )
f.write( str(ee) + "\n" )
f.write( MOL.save_string_xyz() )
f.close()
--------------------------------------------------------------------------

    Molecular point group: c1
  Charge       = 0
  Multiplicity = 1
  Basis Set: 6-31G*
  Basis Set:
  @DF-RHF Final Energy:  -509.02271075144830
    Total Energy =                       -509.0227107514483578
    Molecular point group: c1
  Basis Set: 6-31G*
  Basis Set:
  Basis Set: 6-31G*
  Basis Set:
  @DF-RHF Final Energy:  -509.02327154015461
    Total Energy =                       -509.0232715401546102
  Basis Set: 6-31G*
  Basis Set:
  Basis Set: 6-31G*
  Basis Set:
  @DF-RHF Final Energy:  -509.00876007087732
    Total Energy =                       -509.0087600708777700
  Basis Set: 6-31G*
  Basis Set:
  Basis Set: 6-31G*
  Basis Set:
  @DF-RHF Final Energy:  -509.02308987287546
    Total Energy =                       -509.0230898728748343
  Basis Set: 6-31G*
  Basis Set:
  Basis Set: 6-31G*
  Basis Set:
  @DF-RHF Final Energy:  -509.02354284501320
    Total Energy =                       -509.0235428450132531
  Basis Set: 6-31G*
  Basis Set:
  Basis Set: 6-31G*
  Basis Set:
  @DF-RHF Final Energy:  -509.02355267137494
    Total Energy =                       -509.0235526713747731
  Basis Set: 6-31G*
  Basis Set:
  Charge       = 0
  Multiplicity = 1
  Basis Set: 6-31G*
  Basis Set:

    Orbital Energies (a.u.)
    -----------------------

    Doubly Occupied:

       1A    -20.603722     2A    -20.603665     3A    -20.601369
       4A    -15.858600     5A    -11.321159     6A    -11.309270
       7A    -11.269598     8A    -11.268331     9A    -11.266388
      10A    -11.264899    11A     -1.637291    12A     -1.420564
      13A     -1.418520    14A     -1.200778    15A     -1.094647
      16A     -1.046526    17A     -0.964279    18A     -0.868508
      19A     -0.832004    20A     -0.791831    21A     -0.737685
      22A     -0.735966    23A     -0.721271    24A     -0.709662
      25A     -0.679697    26A     -0.642175    27A     -0.624840
      28A     -0.568034    29A     -0.555016    30A     -0.529380
      31A     -0.511436    32A     -0.490201    33A     -0.484778
      34A     -0.453947    35A     -0.377234    36A     -0.358348

  @DF-RHF Final Energy:  -509.02355508006127

   => Energetics <=

    Nuclear Repulsion Energy =            502.7750233727617228
    One-Electron Energy =               -1691.9539203945450936
    Two-Electron Energy =                 680.1553419417219857
    DFT Exchange-Correlation Energy =       0.0000000000000000
    Empirical Dispersion Energy =           0.0000000000000000
    PCM Polarization Energy =               0.0000000000000000
    EFP Energy =                            0.0000000000000000
    Total Energy =                       -509.0235550800613282
    Molecular point group: c1
  Basis Set: 6-31G*
  Basis Set:

  -Total Gradient:
     Atom            X                  Y                   Z
    ------   -----------------  -----------------  -----------------
       1        0.000032558957    -0.000013977559    -0.000830078752
       2       -0.000170566348    -0.000250873451     0.000959923305
       3        0.000480541557     0.000689678816     0.000232157912
       4       -0.000516009856    -0.000302747724    -0.000246055006
       5        0.000183468788    -0.000146699736    -0.000123549006
       6        0.000012002813    -0.000003042408     0.000017320399
       7        0.000140005493    -0.000143783218    -0.000126915043
       8       -0.000003856669     0.000012728148     0.000002747368
       9       -0.000152503797     0.000126562641    -0.000131621912
      10       -0.000016431286     0.000012745410     0.000004282564
      11        0.000021190857     0.000009959344     0.000212110801
      12        0.000084302808     0.000028578189    -0.000021872831
      13        0.000006951853    -0.000014483077    -0.000025613160
      14       -0.000094294627     0.000056502333    -0.000032224221
      15       -0.000007360547    -0.000061147709     0.000109387575

  **** Optimization is complete! (in 7 steps) ****
    Final optimized geometry and variables:
    Molecular point group: c1

    Geometry (in Angstrom), charge = 0, multiplicity = 1:

    H            2.045739615511    -2.731823865047    -0.759269975865
    O            2.360230006841    -1.837016968755    -0.758631445746
    C            1.315412141172    -0.959514870589    -0.813770317806
    C            0.974720865843    -0.375325310875    -2.024183305476
    C            0.630658754703    -0.624457955303     0.339178376248
    H            1.529871345698    -0.644670074392    -2.903477228866
    C           -0.056852239064     0.546244881373    -2.086500207423
    H            0.897411208952    -1.059670018930     1.280541409145
    C           -0.399206227525     0.294192835908     0.247092771716
    H           -0.315185693595     0.997353874554    -3.026420215095
    C           -0.760179802288     0.891423629521    -0.945157726311
    N           -1.129099382294     0.646233536154     1.461837320171
    H           -1.561509409884     1.600739561125    -0.972513666584
    O           -0.814598357760     0.100377568389     2.475446667677
    O           -1.999552366196     1.457328058334     1.369224447879

  Mulliken Charges: (a.u.)
   Center  Symbol    Alpha    Beta     Spin     Total
       1     H     0.26741  0.26741  0.00000  0.46518
       2     O     4.38481  4.38481  0.00000 -0.76962
       3     C     2.82002  2.82002  0.00000  0.35996
       4     C     3.10223  3.10223  0.00000 -0.20446
       5     C     3.11017  3.11017  0.00000 -0.22033
       6     H     0.38285  0.38285  0.00000  0.23431
       7     C     3.10581  3.10581  0.00000 -0.21161
       8     H     0.36043  0.36043  0.00000  0.27914
       9     C     2.91805  2.91805  0.00000  0.16391
      10     H     0.38653  0.38653  0.00000  0.22694
      11     C     3.09018  3.09018  0.00000 -0.18035
      12     N     3.24070  3.24070  0.00000  0.51861
      13     H     0.36405  0.36405  0.00000  0.27189
      14     O     4.23337  4.23337  0.00000 -0.46674
      15     O     4.23342  4.23342  0.00000 -0.46684

   Total alpha = 36.00000, Total beta = 36.00000, Total charge = -0.00000
