  ==> Input File <==

--------------------------------------------------------------------------
set {
	reference rhf
	basis cc-pvtz
}

set_num_threads( 4 )
memory 2 gb

molecule MOL {
0 1

H	 -2.698799	 -0.000846	 0.036018
C	 -1.694291	 -0.000483	 0.434279
O	 -0.828718	 -0.000608	 -0.655022
H	 -1.576855	 0.881100	 1.056504
H	 -1.576401	 -0.881658	 1.057001
C	 0.213181	 0.943212	 -0.694120
C	 -0.298303	 2.377192	 -0.773838
C	 1.221093	 0.749929	 0.433268
H	 0.714888	 0.719428	 -1.627302
H	 -1.038776	 2.470205	 -1.558762
H	 0.522563	 3.048120	 -0.999187
H	 -0.742276	 2.706476	 0.158388
H	 1.534379	 -0.285530	 0.485423
H	 2.097165	 1.361785	 0.251876
H	 0.817398	 1.035928	 1.397518

	symmetry c1
}
set optking {
	frozen_dihedral = ("
		6 3 2 1
	")
}

ee = optimize('scf')
oeprop('DIPOLE', 'QUADRUPOLE', 'MULLIKEN_CHARGES')
f=open( 'psi4out.xyz', 'w' )
f.write( "15  " )
f.write( str(ee) + "\n" )
f.write( MOL.save_string_xyz() )
f.close()
--------------------------------------------------------------------------

    Molecular point group: c1
  Charge       = 0
  Multiplicity = 1
  Basis Set: CC-PVTZ
  Basis Set:
  @DF-RHF Final Energy:  -232.22349707820820
    Total Energy =                       -232.2234970782083110
    Molecular point group: c1
  Basis Set: CC-PVTZ
  Basis Set:
  Basis Set: CC-PVTZ
  Basis Set:
  @DF-RHF Final Energy:  -232.22363156092248
    Total Energy =                       -232.2236315609223993
  Basis Set: CC-PVTZ
  Basis Set:
  Basis Set: CC-PVTZ
  Basis Set:
  @DF-RHF Final Energy:  -232.22397471914465
    Total Energy =                       -232.2239747191446213
  Basis Set: CC-PVTZ
  Basis Set:
  Basis Set: CC-PVTZ
  Basis Set:
  @DF-RHF Final Energy:  -232.22400144586771
    Total Energy =                       -232.2240014458677706
  Basis Set: CC-PVTZ
  Basis Set:
  Basis Set: CC-PVTZ
  Basis Set:
  @DF-RHF Final Energy:  -232.22400743289722
    Total Energy =                       -232.2240074328973378
  Basis Set: CC-PVTZ
  Basis Set:
  Basis Set: CC-PVTZ
  Basis Set:
  @DF-RHF Final Energy:  -232.22400863045277
    Total Energy =                       -232.2240086304527154
  Basis Set: CC-PVTZ
  Basis Set:
  Charge       = 0
  Multiplicity = 1
  Basis Set: CC-PVTZ
  Basis Set:

    Orbital Energies (a.u.)
    -----------------------

    Doubly Occupied:

       1A    -20.539485     2A    -11.273236     3A    -11.258920
       4A    -11.208806     5A    -11.208399     6A     -1.371190
       7A     -1.051007     8A     -0.940375     9A     -0.931735
      10A     -0.781822    11A     -0.676987    12A     -0.640663
      13A     -0.633686    14A     -0.570251    15A     -0.563883
      16A     -0.552146    17A     -0.538090    18A     -0.501114
      19A     -0.498634    20A     -0.443366    21A     -0.406221

  @DF-RHF Final Energy:  -232.22400891157588

   => Energetics <=

    Nuclear Repulsion Energy =            198.8815214574085530
    One-Electron Energy =                -709.0310296124641809
    Two-Electron Energy =                 277.9254992434796350
    DFT Exchange-Correlation Energy =       0.0000000000000000
    Empirical Dispersion Energy =           0.0000000000000000
    PCM Polarization Energy =               0.0000000000000000
    EFP Energy =                            0.0000000000000000
    Total Energy =                       -232.2240089115759929
    Molecular point group: c1
  Basis Set: CC-PVTZ
  Basis Set:

  -Total Gradient:
     Atom            X                  Y                   Z
    ------   -----------------  -----------------  -----------------
       1        0.000005849752     0.001078863019     0.000038584954
       2       -0.000284421538    -0.001057898281    -0.000264737103
       3        0.000802635965    -0.000621315466     0.000620236070
       4        0.000003944098     0.000000511227    -0.000000012065
       5        0.000002607042    -0.000000141651     0.000002211285
       6       -0.000558004109     0.000585048475    -0.000394081694
       7        0.000010776320     0.000003549290    -0.000003765418
       8        0.000010138857     0.000011266833    -0.000003589309
       9        0.000006036106    -0.000000683990     0.000006767057
      10       -0.000000211082    -0.000000679680     0.000001187918
      11       -0.000000743063     0.000003996728    -0.000002328828
      12       -0.000000772543    -0.000003404180     0.000003092218
      13        0.000001322306     0.000000398681    -0.000003881179
      14        0.000001809307    -0.000000040315     0.000002985530
      15       -0.000000967420     0.000000529309    -0.000002669437

  **** Optimization is complete! (in 7 steps) ****
    Final optimized geometry and variables:
    Molecular point group: c1

    Geometry (in Angstrom), charge = 0, multiplicity = 1:

    H           -2.420503225267    -0.798397971358     0.340665233438
    C           -1.394173428783    -0.818911891560     0.686061103167
    O           -0.544200396656    -0.794885812719    -0.420532366367
    H           -1.253047131676     0.026751776264     1.347201939557
    H           -1.237907467783    -1.725278278615     1.260931427362
    C            0.510010004987     0.134178273340    -0.461413648098
    C            0.012159536929     1.571693309392    -0.560633777457
    C            1.507038254588    -0.067496501566     0.673908831784
    H            1.015217453859    -0.102501087603    -1.389534200570
    H           -0.696419877674     1.665589313252    -1.374171105291
    H            0.843690195764     2.240013354714    -0.753380744867
    H           -0.469481443999     1.904069135841     0.351650572415
    H            1.836696401619    -1.098757087733     0.704047613820
    H            2.375482155412     0.563619300556     0.524031921326
    H            1.081882726480     0.183098415722     1.639125742124

  Mulliken Charges: (a.u.)
   Center  Symbol    Alpha    Beta     Spin     Total
       1     H     0.45056  0.45056  0.00000  0.09889
       2     C     3.03830  3.03830  0.00000 -0.07659
       3     O     4.18764  4.18764  0.00000 -0.37527
       4     H     0.46964  0.46964  0.00000  0.06072
       5     H     0.45670  0.45670  0.00000  0.08660
       6     C     2.93944  2.93944  0.00000  0.12112
       7     C     3.15479  3.15479  0.00000 -0.30957
       8     C     3.15496  3.15496  0.00000 -0.30991
       9     H     0.44606  0.44606  0.00000  0.10788
      10     H     0.44483  0.44483  0.00000  0.11034
      11     H     0.45083  0.45083  0.00000  0.09834
      12     H     0.45539  0.45539  0.00000  0.08923
      13     H     0.44500  0.44500  0.00000  0.11001
      14     H     0.45022  0.45022  0.00000  0.09955
      15     H     0.45567  0.45567  0.00000  0.08866

   Total alpha = 21.00000, Total beta = 21.00000, Total charge = -0.00000
