  ==> Input File <==

--------------------------------------------------------------------------
set {
	reference rhf
	basis cc-pvtz
}

set_num_threads( 4 )
memory 2 gb

molecule MOL {
0 1

O	 1.670257	 -0.364375	 0.578488
C	 0.860843	 0.273204	 -0.013120
C	 -0.623368	 -0.117453	 -0.005652
C	 1.294531	 1.494629	 -0.799286
C	 -0.892588	 -1.253841	 -1.002900
C	 -1.473463	 1.100646	 -0.372896
C	 -0.981836	 -0.579025	 1.418506
H	 -0.609333	 -0.970024	 -2.010649
H	 -1.950451	 -1.487353	 -1.013175
H	 -0.360848	 -2.161259	 -0.746463
H	 -1.232203	 1.461623	 -1.364827
H	 -2.524364	 0.834451	 -0.354500
H	 -1.312381	 1.914833	 0.318657
H	 -2.035706	 -0.826342	 1.468082
H	 -0.425078	 -1.458934	 1.716857
H	 -0.788494	 0.205047	 2.140903
H	 1.058780	 2.386765	 -0.229832
H	 2.362464	 1.450493	 -0.947749
H	 0.791653	 1.574431	 -1.753214

	symmetry c1
}
set optking {
	frozen_dihedral = ("
		1 2 3 5
	")
}

ee = optimize('scf')
oeprop('DIPOLE', 'QUADRUPOLE', 'MULLIKEN_CHARGES')
f=open( 'psi4out.xyz', 'w' )
f.write( "19  " )
f.write( str(ee) + "\n" )
f.write( MOL.save_string_xyz() )
f.close()
--------------------------------------------------------------------------

    Molecular point group: c1
  Charge       = 0
  Multiplicity = 1
  Basis Set: CC-PVTZ
  Basis Set:
  @DF-RHF Final Energy:  -309.17079301515992
    Total Energy =                       -309.1707930151599726
    Molecular point group: c1
  Basis Set: CC-PVTZ
  Basis Set:
  Basis Set: CC-PVTZ
  Basis Set:
  @DF-RHF Final Energy:  -309.17192954349514
    Total Energy =                       -309.1719295434949117
  Basis Set: CC-PVTZ
  Basis Set:
  Basis Set: CC-PVTZ
  Basis Set:
  @DF-RHF Final Energy:  -309.17224160214272
    Total Energy =                       -309.1722416021423783
  Basis Set: CC-PVTZ
  Basis Set:
  Basis Set: CC-PVTZ
  Basis Set:
  @DF-RHF Final Energy:  -309.17334334507763
    Total Energy =                       -309.1733433450776829
  Basis Set: CC-PVTZ
  Basis Set:
  @DF-RHF Final Energy:  -309.17353096036504
    Total Energy =                       -309.1735309603648147
  @DF-RHF Final Energy:  -309.17357136502790
    Total Energy =                       -309.1735713650273283
  @DF-RHF Final Energy:  -309.17358375695528
    Total Energy =                       -309.1735837569552814
  Basis Set: CC-PVTZ
  Basis Set:
  @DF-RHF Final Energy:  -309.17354409903248
    Total Energy =                       -309.1735440990325401
  Basis Set: CC-PVTZ
  Basis Set:
  Basis Set: CC-PVTZ
  Basis Set:
  @DF-RHF Final Energy:  -309.17357630197108
    Total Energy =                       -309.1735763019710248
  Basis Set: CC-PVTZ
  Basis Set:
  Basis Set: CC-PVTZ
  Basis Set:
  @DF-RHF Final Energy:  -309.17358686092626
    Total Energy =                       -309.1735868609270597
  Basis Set: CC-PVTZ
  Basis Set:
  Charge       = 0
  Multiplicity = 1
  Basis Set: CC-PVTZ
  Basis Set:

    Orbital Energies (a.u.)
    -----------------------

    Doubly Occupied:

       1A    -20.536679     2A    -11.318295     3A    -11.245569
       4A    -11.225847     5A    -11.220526     6A    -11.219789
       7A    -11.209008     8A     -1.398321     9A     -1.109786
      10A     -1.004308    11A     -0.945516    12A     -0.937437
      13A     -0.834604    14A     -0.705608    15A     -0.666861
      16A     -0.633986    17A     -0.623344    18A     -0.592418
      19A     -0.588778    20A     -0.570593    21A     -0.549750
      22A     -0.546841    23A     -0.524908    24A     -0.514161
      25A     -0.503085    26A     -0.473246    27A     -0.464194
      28A     -0.393914

  @DF-RHF Final Energy:  -309.17358849235666

   => Energetics <=

    Nuclear Repulsion Energy =            326.8953279743348048
    One-Electron Energy =               -1067.0230939846251204
    Two-Electron Energy =                 430.9541775179337151
    DFT Exchange-Correlation Energy =       0.0000000000000000
    Empirical Dispersion Energy =           0.0000000000000000
    PCM Polarization Energy =               0.0000000000000000
    EFP Energy =                            0.0000000000000000
    Total Energy =                       -309.1735884923566005
    Molecular point group: c1
  Basis Set: CC-PVTZ
  Basis Set:

  -Total Gradient:
     Atom            X                  Y                   Z
    ------   -----------------  -----------------  -----------------
       1        0.000112855514    -0.000804886940    -0.001092087655
       2       -0.000158032223     0.000889774730     0.001727548867
       3       -0.000166901085     0.000546488483    -0.001300372460
       4       -0.000018665651     0.000024786674     0.000016038997
       5        0.000183608764    -0.000670623960     0.000671348445
       6        0.000004147545     0.000015041456     0.000010997170
       7        0.000030237145     0.000009866137    -0.000009035328
       8        0.000001568915     0.000004435648     0.000008494306
       9       -0.000001248794    -0.000001391413     0.000000522886
      10        0.000001401253    -0.000009045788    -0.000008203885
      11        0.000002618191    -0.000000825894    -0.000006942806
      12        0.000005976812     0.000000823863     0.000001153423
      13       -0.000005442007     0.000017801166     0.000002082021
      14        0.000004899566    -0.000002046058    -0.000012778647
      15        0.000011937943    -0.000002674089     0.000009968746
      16        0.000003927117    -0.000005702038    -0.000004372507
      17       -0.000000160941     0.000010866650    -0.000008865358
      18       -0.000005281638    -0.000015863246     0.000000962846
      19       -0.000007446422    -0.000006825378    -0.000006459064

  **** Optimization is complete! (in 11 steps) ****
    Final optimized geometry and variables:
    Molecular point group: c1

    Geometry (in Angstrom), charge = 0, multiplicity = 1:

    O            1.667654612566    -0.499457575078     0.589150854825
    C            0.885955062533     0.186471853873     0.013927967366
    C           -0.614513164783    -0.149478903397     0.050791364403
    C            1.371500318149     1.355437357986    -0.815453631974
    C           -0.830147416887    -1.269899562325    -0.982381848646
    C           -1.505942572324     1.050036535792    -0.290162348734
    C           -0.971800478180    -0.669821514288     1.447833829484
    H           -0.565285942302    -0.948587414758    -1.984366160691
    H           -1.873168644095    -1.564286378620    -0.996799087251
    H           -0.232519139374    -2.137588408494    -0.736836005943
    H           -1.332560422200     1.422900655056    -1.291677606890
    H           -2.546966161747     0.756352458065    -0.229267420679
    H           -1.358250442929     1.868951888828     0.405000570714
    H           -2.013543175067    -0.968899623685     1.475543620164
    H           -0.360337517887    -1.518345845607     1.715004763621
    H           -0.824449048662     0.097116904656     2.200125671430
    H            0.999570355912     2.289419287753    -0.411927041941
    H            2.450248490171     1.363570447450    -0.807592432641
    H            1.014626357354     1.280042466518    -1.835739392203

  Mulliken Charges: (a.u.)
   Center  Symbol    Alpha    Beta     Spin     Total
       1     O     4.18010  4.18010  0.00000 -0.36020
       2     C     2.84803  2.84803  0.00000  0.30393
       3     C     3.00629  3.00629  0.00000 -0.01258
       4     C     3.16426  3.16426  0.00000 -0.32852
       5     C     3.15449  3.15449  0.00000 -0.30898
       6     C     3.16537  3.16537  0.00000 -0.33075
       7     C     3.15287  3.15287  0.00000 -0.30574
       8     H     0.44851  0.44851  0.00000  0.10299
       9     H     0.44777  0.44777  0.00000  0.10446
      10     H     0.43843  0.43843  0.00000  0.12314
      11     H     0.44560  0.44560  0.00000  0.10880
      12     H     0.44256  0.44256  0.00000  0.11488
      13     H     0.44465  0.44465  0.00000  0.11069
      14     H     0.45136  0.45136  0.00000  0.09728
      15     H     0.43508  0.43508  0.00000  0.12983
      16     H     0.44989  0.44989  0.00000  0.10023
      17     H     0.44655  0.44655  0.00000  0.10690
      18     H     0.43175  0.43175  0.00000  0.13650
      19     H     0.44643  0.44643  0.00000  0.10714

   Total alpha = 28.00000, Total beta = 28.00000, Total charge = -0.00000
