                              Psi4 1.0.54 Driver

  ==> Input File <==

--------------------------------------------------------------------------
set {
	reference rhf
	basis cc-pvtz
}

set_num_threads( 4 )
memory 2 gb

molecule MOL {
0 1

H	 -3.401682	 -1.036167	 0.000000
O	 -3.113760	 -0.140926	 0.000000
C	 -1.775087	 -0.058754	 0.000000
C	 -0.983196	 -0.913614	 0.756676
C	 -1.193869	 0.919558	 -0.789478
H	 -1.441463	 -1.670111	 1.366701
C	 0.385022	 -0.785833	 0.719996
H	 -1.822687	 1.568455	 -1.365272
C	 0.177698	 1.034331	 -0.815092
H	 1.007013	 -1.439152	 1.299143
C	 0.982596	 0.189525	 -0.066167
H	 0.629683	 1.792961	 -1.427226
C	 2.449846	 0.331478	 -0.109625
O	 3.216408	 -0.342339	 0.494121
H	 2.813529	 1.132709	 -0.761978

	symmetry c1
}
set optking {
	frozen_dihedral = ("
		5 3 2 1
	")
}

ee,wfn = optimize('scf', return_wfn=True)
oeprop( wfn, 'DIPOLE', 'QUADRUPOLE', 'MULLIKEN_CHARGES')
f=open( 'psi4out.xyz', 'w' )
f.write( "15  " )
f.write( str(ee) + "\n" )
f.write( MOL.save_string_xyz() )
f.close()
--------------------------------------------------------------------------

    Molecular point group: c1
  Charge       = 0
  Multiplicity = 1
  Basis Set: CC-PVTZ
  Basis Set:
  @DF-RHF Final Energy:  -418.43994049031556
    Total Energy =                       -418.4399404903151662
    Molecular point group: c1
  Basis Set: CC-PVTZ
  Basis Set:
  Basis Set: CC-PVTZ
  Basis Set:
  @DF-RHF Final Energy:  -418.44006517398702
    Total Energy =                       -418.4400651739869090
  Basis Set: CC-PVTZ
  Basis Set:
  Basis Set: CC-PVTZ
  Basis Set:
  @DF-RHF Final Energy:  -418.44007830265832
    Total Energy =                       -418.4400783026584349
  Basis Set: CC-PVTZ
  Basis Set:
  Basis Set: CC-PVTZ
  Basis Set:
  @DF-RHF Final Energy:  -418.43987785875908
    Total Energy =                       -418.4398778587594734
  Basis Set: CC-PVTZ
  Basis Set:
  Charge       = 0
  Multiplicity = 1
  Basis Set: CC-PVTZ
  Basis Set:

    Orbital Energies (a.u.)
    -----------------------

    Doubly Occupied:

       1A    -20.597272     2A    -20.547829     3A    -11.324339
       4A    -11.318309     5A    -11.258157     6A    -11.253662
       7A    -11.242015     8A    -11.239686     9A    -11.238089
      10A     -1.428754    11A     -1.404039    12A     -1.175520
      13A     -1.044995    14A     -1.041890    15A     -0.890847
      16A     -0.867622    17A     -0.798140    18A     -0.759971
      19A     -0.716249    20A     -0.670595    21A     -0.651107
      22A     -0.632904    23A     -0.622064    24A     -0.610271
      25A     -0.570365    26A     -0.559315    27A     -0.553474
      28A     -0.507032    29A     -0.489944    30A     -0.423226
      31A     -0.361494    32A     -0.337298

  @DF-RHF Final Energy:  -418.44008554280083

   => Energetics <=

    Nuclear Repulsion Energy =            402.0532082876403592
    One-Electron Energy =               -1366.7136437155932072
    Two-Electron Energy =                 546.2203498851520180
    DFT Exchange-Correlation Energy =       0.0000000000000000
    Empirical Dispersion Energy =           0.0000000000000000
    PCM Polarization Energy =               0.0000000000000000
    EFP Energy =                            0.0000000000000000
    Total Energy =                       -418.4400855428008299
    Molecular point group: c1
  Basis Set: CC-PVTZ
  Basis Set:

  -Total Gradient:
     Atom            X                  Y                   Z
    ------   -----------------  -----------------  -----------------
       1       -0.000002791491    -0.000022701624    -0.003566824605
       2       -0.000056518556    -0.000705636128     0.003493667135
       3        0.000121416523     0.002304386995     0.002057387342
       4       -0.000166120091     0.000093867896    -0.000006506717
       5        0.000149986967    -0.001624635820    -0.001957298780
       6        0.000009661381    -0.000008240999     0.000000162807
       7        0.000206319446     0.000086683745    -0.000076006535
       8       -0.000025957870     0.000011463272    -0.000026517673
       9       -0.000169169291     0.000082611875    -0.000065202105
      10       -0.000018906142    -0.000017006963    -0.000003016936
      11       -0.000095464689    -0.000212764494     0.000140183761
      12       -0.000015980489    -0.000009957174     0.000011289727
      13       -0.000034031189    -0.000008650956     0.000022029407
      14        0.000033181059     0.000046991773    -0.000043818216
      15        0.000064374419    -0.000016411398     0.000020471389

  **** Optimization is complete! (in 5 steps) ****
    Final optimized geometry and variables:
    Molecular point group: c1

    Geometry (in Angstrom), charge = 0, multiplicity = 1:

    H           -3.407967606601    -1.028882550865     0.017346777258
    O           -3.120590258131    -0.133089935188     0.006626912242
    C           -1.772651746115    -0.055537300126    -0.019346638684
    C           -0.983443251262    -0.913505641514     0.736565734283
    C           -1.191514607551     0.909344517644    -0.819635740544
    H           -1.449108712807    -1.653750116910     1.359520979984
    C            0.385118635469    -0.798467068638     0.689900593452
    H           -1.819141228342     1.554591773457    -1.401032582546
    C            0.182954184869     1.023115676333    -0.847006088787
    H            1.006911596046    -1.453318218103     1.267515505998
    C            0.983013300187     0.174509001465    -0.101022957611
    H            0.636996332356     1.775215329999    -1.465553470127
    C            2.452836955978     0.308537927828    -0.153099279124
    O            3.217926755843    -0.372211854206     0.443442280865
    H            2.816993906656     1.110059256661    -0.804846310882

  Mulliken Charges: (a.u.)
   Center  Symbol    Alpha    Beta     Spin     Total
       1     H     0.38345  0.38345  0.00000  0.23310
       2     O     4.17609  4.17609  0.00000 -0.35218
       3     C     2.85615  2.85615  0.00000  0.28769
       4     C     3.12438  3.12438  0.00000 -0.24877
       5     C     3.10776  3.10776  0.00000 -0.21551
       6     H     0.42296  0.42296  0.00000  0.15409
       7     C     3.06842  3.06842  0.00000 -0.13684
       8     H     0.41464  0.41464  0.00000  0.17072
       9     C     3.06989  3.06989  0.00000 -0.13978
      10     H     0.40709  0.40709  0.00000  0.18582
      11     C     3.00028  3.00028  0.00000 -0.00056
      12     H     0.42109  0.42109  0.00000  0.15783
      13     C     2.91051  2.91051  0.00000  0.17898
      14     O     4.17737  4.17737  0.00000 -0.35474
      15     H     0.45993  0.45993  0.00000  0.08014

   Total alpha = 32.00000, Total beta = 32.00000, Total charge = -0.00000

*** Psi4 exiting successfully. Buy a developer a beer!
