  ==> Input File <==

--------------------------------------------------------------------------
set {
	reference rhf
	basis 6-31G*
}

set_num_threads( 4 )
memory 2 gb

molecule MOL {
0 1

O	 0.217294	 0.526472	 2.264163
C	 -0.511179	 0.840452	 1.379281
C	 -1.411146	 2.046399	 1.389120
O	 -0.632575	 0.154573	 0.251549
H	 -2.442762	 1.734459	 1.273321
H	 -1.288863	 2.582464	 2.318376
H	 -1.167595	 2.691793	 0.553114
C	 0.160891	 -1.019931	 0.106212
C	 1.589627	 -0.672828	 0.480843
H	 0.089836	 -1.367806	 -0.916050
H	 -0.238459	 -1.792301	 0.749618
C	 2.246377	 0.346236	 -0.452210
H	 2.163194	 -1.597435	 0.473358
H	 1.604769	 -0.303424	 1.502885
C	 3.691736	 0.652107	 -0.061850
H	 2.219579	 -0.032311	 -1.472055
H	 1.666466	 1.263317	 -0.447249
H	 4.134505	 1.377213	 -0.737283
H	 4.305508	 -0.243868	 -0.089969
H	 3.748266	 1.059562	 0.943567

	symmetry c1
}
set optking {
	frozen_dihedral = ("
		2 4 8 10
	")
}

ee = optimize('scf')
oeprop('DIPOLE', 'QUADRUPOLE', 'MULLIKEN_CHARGES')
f=open( 'psi4out.xyz', 'w' )
f.write( "20  " )
f.write( str(ee) + "\n" )
f.write( MOL.save_string_xyz() )
f.close()
--------------------------------------------------------------------------

    Molecular point group: c1
  Charge       = 0
  Multiplicity = 1
  Basis Set: 6-31G*
  Basis Set:
  @DF-RHF Final Energy:  -383.92263919336585
    Total Energy =                       -383.9226391933655123
    Molecular point group: c1
  Basis Set: 6-31G*
  Basis Set:
  Basis Set: 6-31G*
  Basis Set:
  @DF-RHF Final Energy:  -383.93671837014460
    Total Energy =                       -383.9367183701443764
  Basis Set: 6-31G*
  Basis Set:
  Basis Set: 6-31G*
  Basis Set:
  @DF-RHF Final Energy:  -383.93975457134667
    Total Energy =                       -383.9397545713462705
  Basis Set: 6-31G*
  Basis Set:
  Basis Set: 6-31G*
  Basis Set:
  @DF-RHF Final Energy:  -383.93924356439197
    Total Energy =                       -383.9392435643924273
  Basis Set: 6-31G*
  Basis Set:
  @DF-RHF Final Energy:  -383.94027827059296
    Total Energy =                       -383.9402782705928985
  @DF-RHF Final Energy:  -383.94051071056271
    Total Energy =                       -383.9405107105625348
  Basis Set: 6-31G*
  Basis Set:
  @DF-RHF Final Energy:  -383.94053546107506
    Total Energy =                       -383.9405354610753420
  Basis Set: 6-31G*
  Basis Set:
  Basis Set: 6-31G*
  Basis Set:
  @DF-RHF Final Energy:  -383.94055265467500
    Total Energy =                       -383.9405526546750025
  Basis Set: 6-31G*
  Basis Set:
  Basis Set: 6-31G*
  Basis Set:
  @DF-RHF Final Energy:  -383.94055840707853
    Total Energy =                       -383.9405584070788109
  Basis Set: 6-31G*
  Basis Set:
  Charge       = 0
  Multiplicity = 1
  Basis Set: 6-31G*
  Basis Set:

    Orbital Energies (a.u.)
    -----------------------

    Doubly Occupied:

       1A    -20.600551     2A    -20.543722     3A    -11.375472
       4A    -11.286104     5A    -11.232416     6A    -11.220820
       7A    -11.218587     8A    -11.211287     9A     -1.465159
      10A     -1.362527    11A     -1.082313    12A     -1.028203
      13A     -0.979251    14A     -0.891362    15A     -0.817078
      16A     -0.744775    17A     -0.696198    18A     -0.680227
      19A     -0.666696    20A     -0.634875    21A     -0.599509
      22A     -0.590420    23A     -0.572013    24A     -0.564341
      25A     -0.536902    26A     -0.523611    27A     -0.511837
      28A     -0.486676    29A     -0.475686    30A     -0.471987
      31A     -0.443109    32A     -0.431579

  @DF-RHF Final Energy:  -383.94055929693837

   => Energetics <=

    Nuclear Repulsion Energy =            396.2557354154527616
    One-Electron Energy =               -1308.5019985286733117
    Two-Electron Energy =                 528.3057038162821755
    DFT Exchange-Correlation Energy =       0.0000000000000000
    Empirical Dispersion Energy =           0.0000000000000000
    PCM Polarization Energy =               0.0000000000000000
    EFP Energy =                            0.0000000000000000
    Total Energy =                       -383.9405592969383179
    Molecular point group: c1
  Basis Set: 6-31G*
  Basis Set:

  -Total Gradient:
     Atom            X                  Y                   Z
    ------   -----------------  -----------------  -----------------
       1       -0.000048362830     0.000016058593     0.000004907280
       2        0.004030387804     0.003335779924    -0.002319897629
       3        0.000022260786     0.000012005021    -0.000019081300
       4       -0.005129409000    -0.004287378505     0.003170329388
       5       -0.000007548024    -0.000010823986     0.000010276998
       6        0.000001142432    -0.000005627433     0.000004813338
       7       -0.000007591223    -0.000006322942    -0.000005661440
       8       -0.003691764643    -0.002754351943     0.000810250379
       9        0.000015466587    -0.000097113495    -0.000162058147
      10        0.004807321322     0.003785137922    -0.001483296482
      11       -0.000004435326    -0.000027756774    -0.000006095793
      12       -0.000003790028     0.000036608637     0.000033612336
      13        0.000009577432     0.000007504842     0.000015346297
      14       -0.000005750982    -0.000010608145    -0.000038731392
      15       -0.000002107848     0.000011256046    -0.000017319345
      16        0.000006593451    -0.000001454154     0.000000100226
      17        0.000005777816    -0.000007384341     0.000005495720
      18        0.000009155032    -0.000001273369    -0.000005760150
      19       -0.000005524879    -0.000002243669     0.000012664661
      20       -0.000001397880     0.000007987772    -0.000009894948

  **** Optimization is complete! (in 10 steps) ****
    Final optimized geometry and variables:
    Molecular point group: c1

    Geometry (in Angstrom), charge = 0, multiplicity = 1:

    O           -0.692168417160     0.224436733055     1.729676483640
    C           -1.284201228389     0.492124554522     0.734311129236
    C           -2.157600652351     1.706218756902     0.560071379302
    O           -1.283742013748    -0.252211706156    -0.360952480625
    H           -3.164942062990     1.398219539296     0.305115146945
    H           -2.165896929878     2.280742512775     1.474291612952
    H           -1.783861186707     2.312724120030    -0.256909660870
    C           -0.412003370500    -1.376184322629    -0.490335585576
    C            1.066886467981    -1.099672860216    -0.234728078643
    H           -0.517416146362    -1.647794237766    -1.531299814014
    H           -0.775494327908    -2.175697548409     0.141163501819
    C            1.639691067383     0.034663856239    -1.087168330488
    H            1.585946747956    -2.025473679701    -0.478967433900
    H            1.242995563363    -0.905953475312     0.813529259589
    C            3.144155671334     0.211486648559    -0.885296027282
    H            1.434611815699    -0.159148873729    -2.138173276155
    H            1.137106273445     0.966734335805    -0.845310516910
    H            3.528684045415     1.022743693471    -1.495406488215
    H            3.685596306818    -0.690893666721    -1.155037712700
    H            3.374723263196     0.438044492481     0.151375442035

  Mulliken Charges: (a.u.)
   Center  Symbol    Alpha    Beta     Spin     Total
       1     O     4.28392  4.28392  0.00000 -0.56785
       2     C     2.61736  2.61736  0.00000  0.76527
       3     C     3.28183  3.28183  0.00000 -0.56365
       4     O     4.31333  4.31333  0.00000 -0.62665
       5     H     0.39992  0.39992  0.00000  0.20015
       6     H     0.39755  0.39755  0.00000  0.20491
       7     H     0.40143  0.40143  0.00000  0.19714
       8     C     2.99616  2.99616  0.00000  0.00768
       9     C     3.18132  3.18132  0.00000 -0.36264
      10     H     0.41080  0.41080  0.00000  0.17840
      11     H     0.40874  0.40874  0.00000  0.18252
      12     C     3.15298  3.15298  0.00000 -0.30595
      13     H     0.42060  0.42060  0.00000  0.15879
      14     H     0.39270  0.39270  0.00000  0.21460
      15     C     3.23988  3.23988  0.00000 -0.47975
      16     H     0.42356  0.42356  0.00000  0.15288
      17     H     0.42010  0.42010  0.00000  0.15981
      18     H     0.41847  0.41847  0.00000  0.16306
      19     H     0.42188  0.42188  0.00000  0.15624
      20     H     0.41749  0.41749  0.00000  0.16503

   Total alpha = 32.00000, Total beta = 32.00000, Total charge = -0.00000
