                              Psi4 1.0.54 Driver

  ==> Input File <==

--------------------------------------------------------------------------
set {
	reference rhf
	basis cc-pvtz
}

set_num_threads( 4 )
memory 2 gb

molecule MOL {
0 1

O	 -2.817697	 1.304178	 0.001046
C	 -2.664672	 0.129869	 0.003507
C	 -3.797908	 -0.860100	 -0.001145
O	 -1.481217	 -0.452708	 0.001092
H	 -4.408836	 -0.679689	 -0.875387
H	 -3.443486	 -1.878443	 -0.002770
H	 -4.412123	 -0.683688	 0.871605
C	 -0.332055	 0.384012	 -0.000250
C	 0.892252	 -0.506059	 -0.000295
H	 -0.360822	 1.020205	 -0.874146
H	 -0.359817	 1.021310	 0.872861
C	 2.188199	 0.299473	 -0.001416
H	 0.857046	 -1.152781	 -0.871031
H	 0.857910	 -1.151798	 0.871202
C	 3.437151	 -0.577593	 -0.000991
H	 2.209565	 0.950707	 -0.871712
H	 2.210062	 0.952234	 0.867721
C	 4.651793	 0.111902	 -0.612751
H	 3.230737	 -1.494662	 -0.545449
H	 3.666165	 -0.873810	 1.018761
H	 4.465628	 0.389916	 -1.644689
H	 5.519990	 -0.536548	 -0.596858
H	 4.904228	 1.015765	 -0.068543

	symmetry c1
}
set optking {
	frozen_dihedral = ("
		19 15 12 16
	")
}

ee,wfn = optimize('scf', return_wfn=True)
oeprop( wfn, 'DIPOLE', 'QUADRUPOLE', 'MULLIKEN_CHARGES')
f=open( 'psi4out.xyz', 'w' )
f.write( "23  " )
f.write( str(ee) + "\n" )
f.write( MOL.save_string_xyz() )
f.close()
--------------------------------------------------------------------------

    Molecular point group: c1
  Charge       = 0
  Multiplicity = 1
  Basis Set: CC-PVTZ
  Basis Set:
  @DF-RHF Final Energy:  -423.13253438499038
    Total Energy =                       -423.1325343849904357
    Molecular point group: c1
  Basis Set: CC-PVTZ
  Basis Set:
  Basis Set: CC-PVTZ
  Basis Set:
  @DF-RHF Final Energy:  -423.13232033696607
    Total Energy =                       -423.1323203369668136
  Basis Set: CC-PVTZ
  Basis Set:
  Basis Set: CC-PVTZ
  Basis Set:
  @DF-RHF Final Energy:  -423.13222465672493
    Total Energy =                       -423.1322246567249294
  Basis Set: CC-PVTZ
  Basis Set:
  Basis Set: CC-PVTZ
  Basis Set:
  @DF-RHF Final Energy:  -423.13282353652534
    Total Energy =                       -423.1328235365253931
  Basis Set: CC-PVTZ
  Basis Set:
  Basis Set: CC-PVTZ
  Basis Set:
  @DF-RHF Final Energy:  -423.13283244613615
    Total Energy =                       -423.1328324461361490
  Basis Set: CC-PVTZ
  Basis Set:
  Basis Set: CC-PVTZ
  Basis Set:
  @DF-RHF Final Energy:  -423.13283659226698
    Total Energy =                       -423.1328365922670400
  Basis Set: CC-PVTZ
  Basis Set:
  Charge       = 0
  Multiplicity = 1
  Basis Set: CC-PVTZ
  Basis Set:

    Orbital Energies (a.u.)
    -----------------------

    Doubly Occupied:

       1A    -20.596015     2A    -20.529579     3A    -11.366461
       4A    -11.279487     5A    -11.230721     6A    -11.222753
       7A    -11.221178     8A    -11.219304     9A    -11.211369
      10A     -1.471242    11A     -1.364071    12A     -1.094729
      13A     -1.043040    14A     -1.004405    15A     -0.931836
      16A     -0.843152    17A     -0.803543    18A     -0.776296
      19A     -0.694535    20A     -0.688449    21A     -0.671633
      22A     -0.644407    23A     -0.607658    24A     -0.590344
      25A     -0.584404    26A     -0.569316    27A     -0.557436
      28A     -0.538510    29A     -0.524413    30A     -0.505714
      31A     -0.494276    32A     -0.479240    33A     -0.466540
      34A     -0.466381    35A     -0.455356    36A     -0.439034

  @DF-RHF Final Energy:  -423.13283662965773

   => Energetics <=

    Nuclear Repulsion Energy =            450.4287304530769234
    One-Electron Energy =               -1468.7494748638050623
    Two-Electron Energy =                 595.1879077810705212
    DFT Exchange-Correlation Energy =       0.0000000000000000
    Empirical Dispersion Energy =           0.0000000000000000
    PCM Polarization Energy =               0.0000000000000000
    EFP Energy =                            0.0000000000000000
    Total Energy =                       -423.1328366296576178
    Molecular point group: c1
  Basis Set: CC-PVTZ
  Basis Set:

  -Total Gradient:
     Atom            X                  Y                   Z
    ------   -----------------  -----------------  -----------------
       1       -0.000002045826     0.000011776695     0.000002904715
       2        0.000025517502    -0.000026420588    -0.000007525338
       3       -0.000001357487     0.000001041023     0.000005980807
       4       -0.000025123853     0.000009851202    -0.000005290500
       5        0.000000042409    -0.000000838271    -0.000002551110
       6       -0.000001355723     0.000001062630    -0.000000289177
       7       -0.000001314840     0.000000600906    -0.000000637191
       8        0.000008296386     0.000003720371     0.000007139961
       9       -0.000007870938    -0.000005659721     0.000011027135
      10       -0.000004132819    -0.000000591482    -0.000001284194
      11        0.000004290054    -0.000004088672    -0.000004515053
      12       -0.002633870946    -0.003880840431    -0.002093000003
      13        0.000003505053     0.000002818648     0.000004611992
      14       -0.000003212034     0.000001105361    -0.000000171780
      15        0.002007929350     0.003096794027    -0.003602422072
      16        0.001887415902     0.002760223369     0.002338776348
      17       -0.000003124311    -0.000002324186    -0.000001436635
      18        0.000010945296     0.000003366833     0.000002581815
      19       -0.001259245873    -0.001971490303     0.003345794444
      20        0.000000847530     0.000003396868    -0.000004952023
      21        0.000000840091    -0.000006513811     0.000011971264
      22       -0.000007039239     0.000007245879     0.000000301314
      23        0.000000064319    -0.000004236345    -0.000007014717

  **** Optimization is complete! (in 7 steps) ****
    Final optimized geometry and variables:
    Molecular point group: c1

    Geometry (in Angstrom), charge = 0, multiplicity = 1:

    O           -2.832041085035     1.257418479715     0.227875613978
    C           -2.660553195407     0.089424551002     0.133617130473
    C           -3.777574946565    -0.918107351966     0.090689790420
    O           -1.468490501228    -0.469674132205     0.054984173057
    H           -4.419898875927    -0.683981147734    -0.747636387929
    H           -3.407291546372    -1.926857198846     0.001109340127
    H           -4.365230925263    -0.818668152268     0.993459218933
    C           -0.333731513440     0.385466961241     0.086028074373
    C            0.904086630791    -0.479316959258    -0.017292672199
    H           -0.397638189418     1.086132974828    -0.735271028240
    H           -0.345563010001     0.953714984379     1.005921764190
    C            2.185441704070     0.346465963608    -0.005723924243
    H            0.850117411098    -1.065040138448    -0.929095635954
    H            0.911412734707    -1.184656080896     0.807916292332
    C            3.458590253030    -0.504490930723    -0.027964473360
    H            2.196557199643     1.043904116425    -0.839399899994
    H            2.201338620861     0.972609479608     0.883365033661
    C            4.682969312084     0.246139282890    -0.535832305782
    H            3.290296455478    -1.400337374682    -0.618708794678
    H            3.653194555755    -0.865203319486     0.978399507096
    H            4.549722499147     0.560466467162    -1.565394692430
    H            5.570758811555    -0.373752994986    -0.490055753554
    H            4.869514582089     1.134871867994     0.058181659089

  Mulliken Charges: (a.u.)
   Center  Symbol    Alpha    Beta     Spin     Total
       1     O     4.20240  4.20240  0.00000 -0.40480
       2     C     2.81512  2.81512  0.00000  0.36976
       3     C     3.14002  3.14002  0.00000 -0.28005
       4     O     4.14472  4.14472  0.00000 -0.28945
       5     H     0.44209  0.44209  0.00000  0.11581
       6     H     0.44187  0.44187  0.00000  0.11627
       7     H     0.44212  0.44212  0.00000  0.11575
       8     C     2.97895  2.97895  0.00000  0.04211
       9     C     3.08144  3.08144  0.00000 -0.16288
      10     H     0.45405  0.45405  0.00000  0.09190
      11     H     0.45389  0.45389  0.00000  0.09222
      12     C     3.09920  3.09920  0.00000 -0.19839
      13     H     0.45057  0.45057  0.00000  0.09886
      14     H     0.45038  0.45038  0.00000  0.09924
      15     C     3.08540  3.08540  0.00000 -0.17081
      16     H     0.45310  0.45310  0.00000  0.09380
      17     H     0.45237  0.45237  0.00000  0.09526
      18     C     3.14846  3.14846  0.00000 -0.29693
      19     H     0.45433  0.45433  0.00000  0.09134
      20     H     0.45280  0.45280  0.00000  0.09441
      21     H     0.45470  0.45470  0.00000  0.09060
      22     H     0.44808  0.44808  0.00000  0.10385
      23     H     0.45394  0.45394  0.00000  0.09212

   Total alpha = 36.00000, Total beta = 36.00000, Total charge = -0.00000

*** Psi4 exiting successfully. Buy a developer a beer!
