                              Psi4 1.0.54 Driver

  ==> Input File <==

--------------------------------------------------------------------------
set {
	reference rhf
	basis cc-pvtz
}

set_num_threads( 4 )
memory 2 gb

molecule MOL {
0 1

H	 -3.412771	 -0.933096	 0.386883
O	 -3.112535	 -0.152320	 -0.042771
C	 -1.774743	 -0.061958	 -0.012028
C	 -0.983314	 -1.030559	 0.592860
C	 -1.193968	 1.043636	 -0.610815
H	 -1.441233	 -1.885462	 1.055329
C	 0.384000	 -0.888658	 0.595842
H	 -1.822417	 1.778924	 -1.071708
C	 0.176694	 1.170815	 -0.599177
H	 1.005627	 -1.628935	 1.059177
C	 0.981121	 0.213562	 0.000000
H	 0.628335	 2.028144	 -1.063425
C	 2.447402	 0.371303	 0.000000
O	 3.227427	 -0.521847	 0.000000
H	 2.796538	 1.409525	 0.000000

	symmetry c1
}
set optking {
	frozen_dihedral = ("
		7 11 13 14
	")
}

ee,wfn = optimize('scf', return_wfn=True)
oeprop( wfn, 'DIPOLE', 'QUADRUPOLE', 'MULLIKEN_CHARGES')
f=open( 'psi4out.xyz', 'w' )
f.write( "15  " )
f.write( str(ee) + "\n" )
f.write( MOL.save_string_xyz() )
f.close()
--------------------------------------------------------------------------

    Molecular point group: c1
  Charge       = 0
  Multiplicity = 1
  Basis Set: CC-PVTZ
  Basis Set:
  @DF-RHF Final Energy:  -418.43891844715108
    Total Energy =                       -418.4389184471510816
    Molecular point group: c1
  Basis Set: CC-PVTZ
  Basis Set:
  Basis Set: CC-PVTZ
  Basis Set:
  @DF-RHF Final Energy:  -418.43756774408706
    Total Energy =                       -418.4375677440870049
  Basis Set: CC-PVTZ
  Basis Set:
  Basis Set: CC-PVTZ
  Basis Set:
  @DF-RHF Final Energy:  -418.43916845497466
    Total Energy =                       -418.4391684549748334
  Basis Set: CC-PVTZ
  Basis Set:
  Basis Set: CC-PVTZ
  Basis Set:
  @DF-RHF Final Energy:  -418.43939583405893
    Total Energy =                       -418.4393958340589279
  Basis Set: CC-PVTZ
  Basis Set:
  Basis Set: CC-PVTZ
  Basis Set:
  @DF-RHF Final Energy:  -418.43939728424613
    Total Energy =                       -418.4393972842462972
  Basis Set: CC-PVTZ
  Basis Set:
  Charge       = 0
  Multiplicity = 1
  Basis Set: CC-PVTZ
  Basis Set:

    Orbital Energies (a.u.)
    -----------------------

    Doubly Occupied:

       1A    -20.603306     2A    -20.548701     3A    -11.324174
       4A    -11.320516     5A    -11.257009     6A    -11.254676
       7A    -11.241781     8A    -11.237991     9A    -11.236579
      10A     -1.436239    11A     -1.404361    12A     -1.174916
      13A     -1.044058    14A     -1.042211    15A     -0.891614
      16A     -0.870139    17A     -0.798300    18A     -0.761426
      19A     -0.717231    20A     -0.672145    21A     -0.648768
      22A     -0.631652    23A     -0.613975    24A     -0.610364
      25A     -0.590000    26A     -0.564775    27A     -0.548555
      28A     -0.508743    29A     -0.491792    30A     -0.422714
      31A     -0.361608    32A     -0.330901

  @DF-RHF Final Energy:  -418.43939813618374

   => Energetics <=

    Nuclear Repulsion Energy =            402.0495142166215601
    One-Electron Energy =               -1366.6553822156297429
    Two-Electron Energy =                 546.1664698628246697
    DFT Exchange-Correlation Energy =       0.0000000000000000
    Empirical Dispersion Energy =           0.0000000000000000
    PCM Polarization Energy =               0.0000000000000000
    EFP Energy =                            0.0000000000000000
    Total Energy =                       -418.4393981361835131
    Molecular point group: c1
  Basis Set: CC-PVTZ
  Basis Set:

  -Total Gradient:
     Atom            X                  Y                   Z
    ------   -----------------  -----------------  -----------------
       1       -0.000005637454     0.000003671001     0.000005573734
       2        0.000005594796    -0.000032965216    -0.000021728601
       3       -0.000024548218     0.000143157846     0.000003338236
       4        0.000099560146    -0.000048581889     0.000001915102
       5       -0.000079678991    -0.000049127812    -0.000006767052
       6       -0.000010121151     0.000001545149    -0.000002238527
       7       -0.000490366116     0.002740371607     0.004438917867
       8       -0.000001827766     0.000000841008    -0.000000208349
       9        0.000049446524    -0.000044995352     0.000021996925
      10        0.000007809063     0.000009467675    -0.000009309484
      11        0.000652655394    -0.004155307027    -0.009468642850
      12       -0.000001491032    -0.000011708431    -0.000015939996
      13       -0.000376622879     0.001782410717     0.011512841910
      14        0.000184247395    -0.000298167751    -0.006455359804
      15       -0.000009019709    -0.000040611527    -0.000004389115

  **** Optimization is complete! (in 6 steps) ****
    Final optimized geometry and variables:
    Molecular point group: c1

    Geometry (in Angstrom), charge = 0, multiplicity = 1:

    H           -3.418080124649    -0.906613597120     0.427653934320
    O           -3.117067772441    -0.131279471322    -0.011368560991
    C           -1.777391972667    -0.052671065643     0.002462957209
    C           -0.986686839645    -1.014787981509     0.614832517828
    C           -1.194153549486     1.042295205989    -0.613982289447
    H           -1.444841958667    -1.852549595496     1.107588074661
    C            0.383628225463    -0.888020170916     0.590910403380
    H           -1.821780035309     1.779874442899    -1.072626692451
    C            0.176660220771     1.166277784454    -0.609395473629
    H            1.002457908167    -1.630156583033     1.055875698087
    C            0.982166300570     0.192540190607    -0.038380390348
    H            0.626856487174     2.027905011234    -1.067336905251
    C            2.451028507527     0.362316833862    -0.014124777527
    O            3.232919402162    -0.526323120803     0.040054890570
    H            2.797011949810     1.398038946110    -0.100607906608

  Mulliken Charges: (a.u.)
   Center  Symbol    Alpha    Beta     Spin     Total
       1     H     0.38556  0.38556  0.00000  0.22889
       2     O     4.16710  4.16710  0.00000 -0.33420
       3     C     2.84723  2.84723  0.00000  0.30553
       4     C     3.13008  3.13008  0.00000 -0.26016
       5     C     3.10608  3.10608  0.00000 -0.21217
       6     H     0.43131  0.43131  0.00000  0.13737
       7     C     3.07425  3.07425  0.00000 -0.14849
       8     H     0.41664  0.41664  0.00000  0.16672
       9     C     3.07009  3.07009  0.00000 -0.14018
      10     H     0.40937  0.40937  0.00000  0.18126
      11     C     2.98666  2.98666  0.00000  0.02669
      12     H     0.42197  0.42197  0.00000  0.15607
      13     C     2.91736  2.91736  0.00000  0.16529
      14     O     4.17514  4.17514  0.00000 -0.35028
      15     H     0.46117  0.46117  0.00000  0.07766

   Total alpha = 32.00000, Total beta = 32.00000, Total charge =  0.00000

*** Psi4 exiting successfully. Buy a developer a beer!
