  ==> Input File <==

--------------------------------------------------------------------------
set {
	reference rhf
	basis 6-31G*
}

set_num_threads( 1 )
memory 2 gb

molecule MOL {
0 1

O	 0.749854	 1.307668	 -0.000040
C	 0.576249	 0.131685	 -0.000108
C	 -0.766779	 -0.556801	 -0.000461
O	 1.568443	 -0.749345	 -0.000005
C	 -1.945214	 0.412366	 0.000161
H	 -0.796911	 -1.211249	 -0.867467
H	 -0.796854	 -1.212390	 0.865687
C	 -2.646325	 0.462049	 1.356827
H	 -2.650212	 0.119240	 -0.770330
H	 -1.594718	 1.402224	 -0.271703
H	 -3.034713	 -0.513035	 1.637574
H	 -3.480555	 1.155616	 1.336146
H	 -1.967862	 0.785240	 2.141498
C	 2.886820	 -0.232538	 0.000322
H	 3.059106	 0.369571	 -0.880203
H	 3.540187	 -1.091012	 0.000050
H	 3.059019	 0.368956	 0.881266

	symmetry c1
}
set optking {
	frozen_dihedral = ("
		1 2 3 6,
		14 4 2 1
	")
}

ee = energy('scf')
oeprop('DIPOLE', 'QUADRUPOLE', 'MULLIKEN_CHARGES')
f=open( 'psi4out.xyz', 'w' )
f.write( "17  " )
f.write( str(ee) + "\n" )
f.write( MOL.save_string_xyz() )
f.close()
--------------------------------------------------------------------------

    Molecular point group: c1

    Geometry (in Angstrom), charge = 0, multiplicity = 1:

       Center              X                  Y                   Z               Mass
    ------------   -----------------  -----------------  -----------------  -----------------
           O          0.655427128440     1.192980070571    -0.199755306692    15.994914619560
           C          0.481822128440     0.016997070571    -0.199823306692    12.000000000000
           C         -0.861205871560    -0.671488929429    -0.200176306692    12.000000000000
           O          1.474016128440    -0.864032929429    -0.199720306692    15.994914619560
           C         -2.039640871560     0.297678070571    -0.199554306692    12.000000000000
           H         -0.891337871560    -1.325936929429    -1.067182306692     1.007825032070
           H         -0.891280871560    -1.327077929429     0.665971693308     1.007825032070
           C         -2.740751871560     0.347361070571     1.157111693308    12.000000000000
           H         -2.744638871560     0.004552070571    -0.970045306692     1.007825032070
           H         -1.689144871560     1.287536070571    -0.471418306692     1.007825032070
           H         -3.129139871560    -0.627722929429     1.437858693308     1.007825032070
           H         -3.574981871560     1.040928070571     1.136430693308     1.007825032070
           H         -2.062288871560     0.670552070571     1.941782693308     1.007825032070
           C          2.792393128440    -0.347225929429    -0.199393306692    12.000000000000
           H          2.964679128440     0.254883070571    -1.079918306692     1.007825032070
           H          3.445760128440    -1.205699929429    -0.199665306692     1.007825032070
           H          2.964592128440     0.254268070571     0.681550693308     1.007825032070

  Charge       = 0
  Multiplicity = 1
  Basis Set: 6-31G*
  Basis Set:

    Orbital Energies (a.u.)
    -----------------------

    Doubly Occupied:

       1A    -20.604751     2A    -20.546806     3A    -11.373423
       4A    -11.281518     5A    -11.234548     6A    -11.218119
       7A    -11.211503     8A     -1.470503     9A     -1.364314
      10A     -1.079568    11A     -1.000245    12A     -0.938462
      13A     -0.828487    14A     -0.766487    15A     -0.704298
      16A     -0.681966    17A     -0.673186    18A     -0.623951
      19A     -0.607628    20A     -0.569162    21A     -0.568016
      22A     -0.533295    23A     -0.524465    24A     -0.487419
      25A     -0.484261    26A     -0.474669    27A     -0.457910
      28A     -0.440857

  @DF-RHF Final Energy:  -344.90244300047624

   => Energetics <=

    Nuclear Repulsion Energy =            315.3270316982490726
    One-Electron Energy =               -1094.9592455438662455
    Two-Electron Energy =                 434.7297708451401945
    DFT Exchange-Correlation Energy =       0.0000000000000000
    Empirical Dispersion Energy =           0.0000000000000000
    PCM Polarization Energy =               0.0000000000000000
    EFP Energy =                            0.0000000000000000
    Total Energy =                       -344.9024430004769215

  Mulliken Charges: (a.u.)
   Center  Symbol    Alpha    Beta     Spin     Total
       1     O     4.28481  4.28481  0.00000 -0.56961
       2     C     2.61094  2.61094  0.00000  0.77812
       3     C     3.20950  3.20950  0.00000 -0.41900
       4     O     4.30556  4.30556  0.00000 -0.61113
       5     C     3.16163  3.16163  0.00000 -0.32326
       6     H     0.39749  0.39749  0.00000  0.20502
       7     H     0.39816  0.39816  0.00000  0.20369
       8     C     3.24297  3.24297  0.00000 -0.48594
       9     H     0.41873  0.41873  0.00000  0.16254
      10     H     0.39402  0.39402  0.00000  0.21195
      11     H     0.42274  0.42274  0.00000  0.15451
      12     H     0.41730  0.41730  0.00000  0.16540
      13     H     0.41754  0.41754  0.00000  0.16491
      14     C     3.09234  3.09234  0.00000 -0.18469
      15     H     0.40894  0.40894  0.00000  0.18212
      16     H     0.40832  0.40832  0.00000  0.18335
      17     H     0.40899  0.40899  0.00000  0.18201

   Total alpha = 28.00000, Total beta = 28.00000, Total charge =  0.00000
