  ==> Input File <==

--------------------------------------------------------------------------
set {
	reference rhf
	basis 6-31G*
}

set_num_threads( 4 )
memory 2 gb

molecule MOL {
0 1

H	 -0.421157	 0.371523	 -2.444107
C	 0.059605	 1.144633	 -1.831838
C	 0.065331	 0.871482	 -0.349150
O	 0.530794	 2.106361	 -2.346405
C	 -1.339775	 0.583656	 0.198860
H	 0.520979	 1.717349	 0.152655
H	 0.699905	 0.001842	 -0.184214
C	 -1.808407	 -0.848507	 -0.061364
H	 -2.036183	 1.280685	 -0.256307
H	 -1.360094	 0.788874	 1.267089
H	 -1.828843	 -1.063152	 -1.125336
H	 -2.808409	 -1.004529	 0.329750
H	 -1.153967	 -1.577789	 0.406873

	symmetry c1
}
set optking {
	frozen_dihedral = ("
		6 3 5 9
	")
}

ee = optimize('scf')
oeprop('DIPOLE', 'QUADRUPOLE', 'MULLIKEN_CHARGES')
f=open( 'psi4out.xyz', 'w' )
f.write( "13  " )
f.write( str(ee) + "\n" )
f.write( MOL.save_string_xyz() )
f.close()
--------------------------------------------------------------------------

    Molecular point group: c1
  Charge       = 0
  Multiplicity = 1
  Basis Set: 6-31G*
  Basis Set:
  @DF-RHF Final Energy:  -230.98227430111109
    Total Energy =                       -230.9822743011109765
    Molecular point group: c1
  Basis Set: 6-31G*
  Basis Set:
  Basis Set: 6-31G*
  Basis Set:
  @DF-RHF Final Energy:  -230.98231621971965
    Total Energy =                       -230.9823162197197348
  Basis Set: 6-31G*
  Basis Set:
  Basis Set: 6-31G*
  Basis Set:
  @DF-RHF Final Energy:  -230.97887349059457
    Total Energy =                       -230.9788734905944807
  Basis Set: 6-31G*
  Basis Set:
  Basis Set: 6-31G*
  Basis Set:
  @DF-RHF Final Energy:  -230.98251525433227
    Total Energy =                       -230.9825152543324123
  Basis Set: 6-31G*
  Basis Set:
  @DF-RHF Final Energy:  -230.98256091006743
    Total Energy =                       -230.9825609100674342
  @DF-RHF Final Energy:  -230.98256890481500
    Total Energy =                       -230.9825689048151958
  Basis Set: 6-31G*
  Basis Set:
  @DF-RHF Final Energy:  -230.98257963957747
    Total Energy =                       -230.9825796395774660
  Basis Set: 6-31G*
  Basis Set:
  Basis Set: 6-31G*
  Basis Set:
  @DF-RHF Final Energy:  -230.98258813488454
    Total Energy =                       -230.9825881348845087
  Basis Set: 6-31G*
  Basis Set:
  Basis Set: 6-31G*
  Basis Set:
  @DF-RHF Final Energy:  -230.98258936337282
    Total Energy =                       -230.9825893633729095
  Basis Set: 6-31G*
  Basis Set:
  Charge       = 0
  Multiplicity = 1
  Basis Set: 6-31G*
  Basis Set:

    Orbital Energies (a.u.)
    -----------------------

    Doubly Occupied:

       1A    -20.562234     2A    -11.327020     3A    -11.239029
       4A    -11.235816     5A    -11.225974     6A     -1.402273
       7A     -1.086612     8A     -0.974074     9A     -0.850355
      10A     -0.789324    11A     -0.672981    12A     -0.649929
      13A     -0.604841    14A     -0.597463    15A     -0.582454
      16A     -0.527132    17A     -0.506281    18A     -0.493625
      19A     -0.484632    20A     -0.409664

  @DF-RHF Final Energy:  -230.98258939042185

   => Energetics <=

    Nuclear Repulsion Energy =            171.8597749420717093
    One-Electron Energy =                -653.2413026626495594
    Two-Electron Energy =                 250.3989383301559997
    DFT Exchange-Correlation Energy =       0.0000000000000000
    Empirical Dispersion Energy =           0.0000000000000000
    PCM Polarization Energy =               0.0000000000000000
    EFP Energy =                            0.0000000000000000
    Total Energy =                       -230.9825893904218788
    Molecular point group: c1
  Basis Set: 6-31G*
  Basis Set:

  -Total Gradient:
     Atom            X                  Y                   Z
    ------   -----------------  -----------------  -----------------
       1        0.000004291308     0.000004223773    -0.000003370870
       2       -0.000001194779    -0.000004097519     0.000009671506
       3       -0.000832843536     0.000958144370    -0.001589334423
       4        0.000001639097     0.000003120937    -0.000009388151
       5        0.000442994169     0.000959617011     0.001676461920
       6        0.000613539739    -0.000943635864     0.001044945753
       7        0.000002299752    -0.000003571537     0.000001960158
       8       -0.000001350769     0.000001814616    -0.000002143894
       9       -0.000227668205    -0.000977168628    -0.001128949171
      10       -0.000001675404     0.000001476254     0.000000928766
      11       -0.000000581601    -0.000001140131    -0.000000583812
      12        0.000000462273    -0.000000216094    -0.000000223808
      13        0.000000087955     0.000001432810     0.000000026030

  **** Optimization is complete! (in 10 steps) ****
    Final optimized geometry and variables:
    Molecular point group: c1

    Geometry (in Angstrom), charge = 0, multiplicity = 1:

    H           -0.072543724912    -0.253693131829    -1.570733794292
    C            0.540180330262     0.409612079870    -0.950457386819
    C            0.521941659713     0.131815469582     0.531771135146
    O            1.169527028830     1.281122055949    -1.457611769242
    C           -0.882621335549    -0.175899483095     1.079085007925
    H            0.969140101258     0.981518523075     1.033659650405
    H            1.175864173517    -0.720904427471     0.712992658055
    C           -1.336534183215    -1.617274215266     0.837771290798
    H           -1.604071311674     0.506000166253     0.634599508839
    H           -0.889238417780     0.024149963681     2.145286642182
    H           -1.365584279445    -1.863897372089    -0.219377984974
    H           -2.332316548912    -1.779918041851     1.236837585106
    H           -0.665892635856    -2.321265444519     1.321638186078

  Mulliken Charges: (a.u.)
   Center  Symbol    Alpha    Beta     Spin     Total
       1     H     0.43080  0.43080  0.00000  0.13840
       2     C     2.83013  2.83013  0.00000  0.33975
       3     C     3.21067  3.21067  0.00000 -0.42134
       4     O     4.23889  4.23889  0.00000 -0.47779
       5     C     3.16671  3.16671  0.00000 -0.33343
       6     H     0.39674  0.39674  0.00000  0.20652
       7     H     0.40620  0.40620  0.00000  0.18759
       8     C     3.24332  3.24332  0.00000 -0.48665
       9     H     0.41469  0.41469  0.00000  0.17062
      10     H     0.41010  0.41010  0.00000  0.17979
      11     H     0.41993  0.41993  0.00000  0.16014
      12     H     0.41374  0.41374  0.00000  0.17252
      13     H     0.41807  0.41807  0.00000  0.16387

   Total alpha = 20.00000, Total beta = 20.00000, Total charge =  0.00000
