  ==> Input File <==

--------------------------------------------------------------------------
set {
	reference rhf
	basis cc-pvtz
}

set_num_threads( 4 )
memory 2 gb

molecule MOL {
0 1

O	 -0.589882	 -1.140363	 -1.474203
C	 -0.487940	 -0.135439	 -0.830423
C	 -1.609220	 0.883163	 -0.834118
N	 0.622280	 0.144970	 -0.099307
H	 -1.267761	 1.844476	 -1.196924
H	 -2.381345	 0.510015	 -1.486096
H	 -2.017735	 1.023863	 0.159006
C	 1.664396	 -0.854993	 0.000772
C	 0.706894	 1.222323	 0.857722
H	 2.462727	 -0.615153	 -0.690869
H	 1.261798	 -1.821849	 -0.240651
H	 2.081615	 -0.891605	 1.003877
H	 1.721581	 1.598482	 0.881176
H	 0.062013	 2.042492	 0.592492
H	 0.450369	 0.893972	 1.862423

	symmetry c1
}
set optking {
	frozen_dihedral = ("
		2 4 8 10
	")
}

ee = optimize('scf')
oeprop('DIPOLE', 'QUADRUPOLE', 'MULLIKEN_CHARGES')
f=open( 'psi4out.xyz', 'w' )
f.write( "15  " )
f.write( str(ee) + "\n" )
f.write( MOL.save_string_xyz() )
f.close()
--------------------------------------------------------------------------

    Molecular point group: c1
  Charge       = 0
  Multiplicity = 1
  Basis Set: CC-PVTZ
  Basis Set:
  @DF-RHF Final Energy:  -286.13406822730485
    Total Energy =                       -286.1340682273046241
    Molecular point group: c1
  Basis Set: CC-PVTZ
  Basis Set:
  Basis Set: CC-PVTZ
  Basis Set:
  @DF-RHF Final Energy:  -286.13468405260210
    Total Energy =                       -286.1346840526022675
  Basis Set: CC-PVTZ
  Basis Set:
  Basis Set: CC-PVTZ
  Basis Set:
  @DF-RHF Final Energy:  -286.13453784478122
    Total Energy =                       -286.1345378447815051
  Basis Set: CC-PVTZ
  Basis Set:
  Basis Set: CC-PVTZ
  Basis Set:
  @DF-RHF Final Energy:  -286.13514490318124
    Total Energy =                       -286.1351449031815264
  Basis Set: CC-PVTZ
  Basis Set:
  @DF-RHF Final Energy:  -286.13526269485453
    Total Energy =                       -286.1352626948545890
  @DF-RHF Final Energy:  -286.13531243748037
    Total Energy =                       -286.1353124374802519
  @DF-RHF Final Energy:  -286.13538616693927
    Total Energy =                       -286.1353861669393837
  @DF-RHF Final Energy:  -286.13548711582280
    Total Energy =                       -286.1354871158229116
  @DF-RHF Final Energy:  -286.13557240974728
    Total Energy =                       -286.1355724097470556
  Basis Set: CC-PVTZ
  Basis Set:
  @DF-RHF Final Energy:  -286.13562630064814
    Total Energy =                       -286.1356263006480276
  Basis Set: CC-PVTZ
  Basis Set:
  Basis Set: CC-PVTZ
  Basis Set:
  @DF-RHF Final Energy:  -286.13563068114922
    Total Energy =                       -286.1356306811491663
  Basis Set: CC-PVTZ
  Basis Set:
  Basis Set: CC-PVTZ
  Basis Set:
  @DF-RHF Final Energy:  -286.13563995510151
    Total Energy =                       -286.1356399551011123
  Basis Set: CC-PVTZ
  Basis Set:
  Charge       = 0
  Multiplicity = 1
  Basis Set: CC-PVTZ
  Basis Set:

    Orbital Energies (a.u.)
    -----------------------

    Doubly Occupied:

       1A    -20.503532     2A    -15.578517     3A    -11.335162
       4A    -11.263982     5A    -11.246438     6A    -11.226496
       7A     -1.387305     8A     -1.246381     9A     -1.015095
      10A     -0.973220    11A     -0.920947    12A     -0.739115
      13A     -0.683302    14A     -0.661982    15A     -0.653848
      16A     -0.590430    17A     -0.578183    18A     -0.567453
      19A     -0.561627    20A     -0.548405    21A     -0.530368
      22A     -0.507270    23A     -0.413700    24A     -0.370474

  @DF-RHF Final Energy:  -286.13564094660694

   => Energetics <=

    Nuclear Repulsion Energy =            252.8917724685977646
    One-Electron Energy =                -889.8483581143915444
    Two-Electron Energy =                 350.8209446991866116
    DFT Exchange-Correlation Energy =       0.0000000000000000
    Empirical Dispersion Energy =           0.0000000000000000
    PCM Polarization Energy =               0.0000000000000000
    EFP Energy =                            0.0000000000000000
    Total Energy =                       -286.1356409466071682
    Molecular point group: c1
  Basis Set: CC-PVTZ
  Basis Set:

  -Total Gradient:
     Atom            X                  Y                   Z
    ------   -----------------  -----------------  -----------------
       1        0.000000884160    -0.000028079479    -0.000005894232
       2        0.000042043277     0.000072417262     0.000022776547
       3       -0.000008090677     0.000016444673     0.000021936464
       4       -0.000067125755    -0.000083055438    -0.000024130603
       5        0.000005267361    -0.000007756857    -0.000006166544
       6        0.000010595080    -0.000009399570     0.000000268805
       7       -0.000020776933    -0.000002324612    -0.000000601356
       8        0.000022985835     0.000076485255    -0.000039413803
       9        0.000030906400     0.000023771658    -0.000051851148
      10       -0.000032881275     0.000024668884     0.000011121098
      11       -0.000005621873    -0.000026065548     0.000030870051
      12       -0.000000936937    -0.000031926552     0.000023541005
      13        0.000021311635     0.000028364386     0.000005076746
      14        0.000003806697    -0.000025815725    -0.000004073360
      15       -0.000002366996    -0.000027728337     0.000016540330

  **** Optimization is complete! (in 13 steps) ****
    Final optimized geometry and variables:
    Molecular point group: c1

    Geometry (in Angstrom), charge = 0, multiplicity = 1:

    O           -0.591696057383    -1.104017014374    -1.174359272211
    C           -0.541081937943    -0.151368184409    -0.449909073570
    C           -1.630780753749     0.899616520502    -0.505731044880
    N            0.461670030896     0.018832914495     0.450072554372
    H           -1.232203410089     1.866770292971    -0.786134746855
    H           -2.345900847312     0.582220306997    -1.246230436198
    H           -2.128064139970     1.004233397098     0.450344037787
    C            1.562914450698    -0.920508853851     0.459318292211
    C            0.683767760076     1.233487001192     1.197110462224
    H            2.428049878234    -0.517609850258    -0.060846518202
    H            1.263594988442    -1.833181970755    -0.022901148347
    H            1.849840729183    -1.132146887517     1.482355765134
    H            1.414572829836     1.877376277331     0.713168845893
    H           -0.226440364142     1.792188556995     1.329885552433
    H            1.061727836155     0.984188017246     2.180656561116

  Mulliken Charges: (a.u.)
   Center  Symbol    Alpha    Beta     Spin     Total
       1     O     4.22087  4.22087  0.00000 -0.44175
       2     C     2.84563  2.84563  0.00000  0.30873
       3     C     3.16074  3.16074  0.00000 -0.32148
       4     N     3.56142  3.56142  0.00000 -0.12284
       5     H     0.44924  0.44924  0.00000  0.10152
       6     H     0.42859  0.42859  0.00000  0.14283
       7     H     0.44900  0.44900  0.00000  0.10199
       8     C     3.09888  3.09888  0.00000 -0.19775
       9     C     3.09530  3.09530  0.00000 -0.19060
      10     H     0.45776  0.45776  0.00000  0.08447
      11     H     0.42630  0.42630  0.00000  0.14739
      12     H     0.45680  0.45680  0.00000  0.08640
      13     H     0.45470  0.45470  0.00000  0.09060
      14     H     0.44503  0.44503  0.00000  0.10993
      15     H     0.44973  0.44973  0.00000  0.10055

   Total alpha = 24.00000, Total beta = 24.00000, Total charge = -0.00000
