                              Psi4 1.0.54 Driver

  ==> Input File <==

--------------------------------------------------------------------------
set {
	reference rhf
	basis cc-pvtz
}

set_num_threads( 4 )
memory 2 gb

molecule MOL {
0 1

H	 -2.171709	 0.882708	 0.500286
C	 -2.016894	 0.001719	 -0.114152
O	 -0.775228	 0.000056	 -0.739966
H	 -2.760846	 0.003757	 -0.898169
H	 -2.174774	 -0.879864	 0.498643
C	 -0.696763	 0.034267	 -2.151332
C	 0.801000	 0.021435	 -2.436686
C	 -1.354811	 -1.200360	 -2.770450
C	 -1.321434	 1.315055	 -2.708075
H	 1.252212	 -0.871301	 -2.022519
H	 1.275235	 0.881139	 -1.980490
H	 0.993454	 0.044470	 -3.502706
H	 -0.954497	 -2.103054	 -2.324847
H	 -1.161091	 -1.231378	 -3.836002
H	 -2.429295	 -1.199958	 -2.636111
H	 -0.897749	 2.183695	 -2.218538
H	 -1.126102	 1.393701	 -3.770872
H	 -2.395663	 1.336402	 -2.573377

	symmetry c1
}
set optking {
	frozen_dihedral = ("
		6 3 2 5
	")
}

ee,wfn = optimize('scf', return_wfn=True)
oeprop( wfn, 'DIPOLE', 'QUADRUPOLE', 'MULLIKEN_CHARGES')
f=open( 'psi4out.xyz', 'w' )
f.write( "18  " )
f.write( str(ee) + "\n" )
f.write( MOL.save_string_xyz() )
f.close()
--------------------------------------------------------------------------

    Molecular point group: c1
  Charge       = 0
  Multiplicity = 1
  Basis Set: CC-PVTZ
  Basis Set:
  @DF-RHF Final Energy:  -271.27207228377779
    Total Energy =                       -271.2720722837780158
    Molecular point group: c1
  Basis Set: CC-PVTZ
  Basis Set:
  Basis Set: CC-PVTZ
  Basis Set:
  @DF-RHF Final Energy:  -271.27375615616063
    Total Energy =                       -271.2737561561605730
  Basis Set: CC-PVTZ
  Basis Set:
  Basis Set: CC-PVTZ
  Basis Set:
  @DF-RHF Final Energy:  -271.27438251215318
    Total Energy =                       -271.2743825121536361
  Basis Set: CC-PVTZ
  Basis Set:
  Basis Set: CC-PVTZ
  Basis Set:
  @DF-RHF Final Energy:  -271.27436583538656
    Total Energy =                       -271.2743658353862202
  Basis Set: CC-PVTZ
  Basis Set:
  Basis Set: CC-PVTZ
  Basis Set:
  @DF-RHF Final Energy:  -271.27436043521624
    Total Energy =                       -271.2743604352161242
  Basis Set: CC-PVTZ
  Basis Set:
  Basis Set: CC-PVTZ
  Basis Set:
  @DF-RHF Final Energy:  -271.27441859047610
    Total Energy =                       -271.2744185904759888
  Basis Set: CC-PVTZ
  Basis Set:
  Basis Set: CC-PVTZ
  Basis Set:
  @DF-RHF Final Energy:  -271.27441696770552
    Total Energy =                       -271.2744169677056334
  Basis Set: CC-PVTZ
  Basis Set:
  Charge       = 0
  Multiplicity = 1
  Basis Set: CC-PVTZ
  Basis Set:

    Orbital Energies (a.u.)
    -----------------------

    Doubly Occupied:

       1A    -20.538032     2A    -11.280838     3A    -11.258431
       4A    -11.207069     5A    -11.207040     6A    -11.201785
       7A     -1.371102     8A     -1.074121     9A     -0.946479
      10A     -0.940989    11A     -0.913526    12A     -0.753840
      13A     -0.656411    14A     -0.645488    15A     -0.640553
      16A     -0.590773    17A     -0.572033    18A     -0.552256
      19A     -0.539157    20A     -0.524744    21A     -0.515379
      22A     -0.491519    23A     -0.488348    24A     -0.439509
      25A     -0.404026

  @DF-RHF Final Energy:  -271.27442030654726

   => Energetics <=

    Nuclear Repulsion Energy =            272.4755125663190825
    One-Electron Energy =                -907.9929580290738613
    Two-Electron Energy =                 364.2430251562074091
    DFT Exchange-Correlation Energy =       0.0000000000000000
    Empirical Dispersion Energy =           0.0000000000000000
    PCM Polarization Energy =               0.0000000000000000
    EFP Energy =                            0.0000000000000000
    Total Energy =                       -271.2744203065473130
    Molecular point group: c1
  Basis Set: CC-PVTZ
  Basis Set:

  -Total Gradient:
     Atom            X                  Y                   Z
    ------   -----------------  -----------------  -----------------
       1       -0.000003261248    -0.000003740445    -0.000005483020
       2       -0.000007339236    -0.000013064989    -0.000090044389
       3       -0.000023329037    -0.000091207877     0.000035252308
       4        0.000003535095     0.000001340764     0.000004142004
       5        0.000031183476     0.000037603940     0.000058411847
       6        0.000000318077     0.000069257510    -0.000010761136
       7        0.000001221189     0.000002230050     0.000003648175
       8        0.000001026556     0.000001641205     0.000005248291
       9        0.000003249625    -0.000012589177     0.000005403185
      10       -0.000003307271     0.000000008525     0.000000125532
      11        0.000000960470    -0.000000393804     0.000000307198
      12       -0.000001412791     0.000001166848    -0.000000991435
      13        0.000003712249    -0.000006675190     0.000005006180
      14        0.000001496703     0.000001054512    -0.000009119198
      15       -0.000007367790     0.000003077374     0.000004309871
      16        0.000005937011     0.000011159933     0.000007130521
      17        0.000003240066     0.000000927558    -0.000015450686
      18       -0.000009863143    -0.000001796737     0.000002864752

  **** Optimization is complete! (in 8 steps) ****
    Final optimized geometry and variables:
    Molecular point group: c1

    Geometry (in Angstrom), charge = 0, multiplicity = 1:

    H           -1.091920390262     0.791851896148     2.409834119809
    C           -1.051847677179    -0.054329910731     1.733480716112
    O            0.166018110831    -0.048626511374     1.053399618652
    H           -1.909432076203     0.002565999178     1.076721273150
    H           -1.137116698061    -0.963537753287     2.317756887048
    C            0.199957605330     0.011614546523    -0.358354427501
    C            1.686953612746    -0.007194723375    -0.694735002389
    C           -0.486073147843    -1.209147669346    -0.974517290303
    C           -0.429351519976     1.310565457912    -0.865568493177
    H            2.144573441085    -0.911673477614    -0.314783126414
    H            2.183989075236     0.839355041486    -0.238469630915
    H            1.842267510033     0.036025355421    -1.766305061426
    H           -0.048127036925    -2.119738361571    -0.584119154953
    H           -0.364993755072    -1.206350766789    -2.051358284755
    H           -1.548733005432    -1.227443331532    -0.766532233065
    H            0.047924560749     2.163403701445    -0.398392155035
    H           -0.305748323668     1.395498940886    -1.938785430623
    H           -1.490665025657     1.358487407630    -0.655499879827

  Mulliken Charges: (a.u.)
   Center  Symbol    Alpha    Beta     Spin     Total
       1     H     0.45356  0.45356  0.00000  0.09287
       2     C     3.04248  3.04248  0.00000 -0.08496
       3     O     4.19389  4.19389  0.00000 -0.38778
       4     H     0.46838  0.46838  0.00000  0.06324
       5     H     0.45395  0.45395  0.00000  0.09210
       6     C     2.87905  2.87905  0.00000  0.24190
       7     C     3.14298  3.14298  0.00000 -0.28595
       8     C     3.16056  3.16056  0.00000 -0.32113
       9     C     3.16059  3.16059  0.00000 -0.32119
      10     H     0.44903  0.44903  0.00000  0.10194
      11     H     0.44900  0.44900  0.00000  0.10200
      12     H     0.45922  0.45922  0.00000  0.08156
      13     H     0.44659  0.44659  0.00000  0.10682
      14     H     0.44869  0.44869  0.00000  0.10262
      15     H     0.44837  0.44837  0.00000  0.10326
      16     H     0.44658  0.44658  0.00000  0.10684
      17     H     0.44873  0.44873  0.00000  0.10254
      18     H     0.44834  0.44834  0.00000  0.10333

   Total alpha = 25.00000, Total beta = 25.00000, Total charge =  0.00000

*** Psi4 exiting successfully. Buy a developer a beer!
