  ==> Input File <==

--------------------------------------------------------------------------
set {
	reference rhf
	basis cc-pvtz
}

set_num_threads( 4 )
memory 2 gb

molecule MOL {
0 1

H	 0.000000	 -1.371000	 -1.194000
N	 0.000000	 -1.256000	 -0.198000
C	 1.151000	 -0.452000	 0.192000
C	 -1.151000	 -0.452000	 0.191000
H	 2.039000	 -0.770000	 -0.341000
H	 1.334000	 -0.612000	 1.250000
C	 0.774000	 1.023000	 -0.070000
H	 -1.335000	 -0.612000	 1.249000
H	 -2.039000	 -0.770000	 -0.343000
C	 -0.774000	 1.023000	 -0.069000
H	 1.157000	 1.351000	 -1.031000
H	 1.190000	 1.687000	 0.681000
H	 -1.189000	 1.686000	 0.682000
H	 -1.157000	 1.352000	 -1.030000

	symmetry c1
}
ee = optimize('scf')
oeprop('DIPOLE', 'QUADRUPOLE', 'MULLIKEN_CHARGES')
f=open( 'psi4out.xyz', 'w' )
f.write( "14  " )
f.write( str(ee) + "\n" )
f.write( MOL.save_string_xyz() )
f.close()
--------------------------------------------------------------------------

    Molecular point group: c1
  Charge       = 0
  Multiplicity = 1
  Basis Set: CC-PVTZ
  Basis Set:
  @DF-RHF Final Energy:  -211.22032764551318
    Total Energy =                       -211.2203276455130663
    Molecular point group: c1
  Basis Set: CC-PVTZ
  Basis Set:
  Basis Set: CC-PVTZ
  Basis Set:
  @DF-RHF Final Energy:  -211.22038119460211
    Total Energy =                       -211.2203811946020551
  Basis Set: CC-PVTZ
  Basis Set:
  Basis Set: CC-PVTZ
  Basis Set:
  @DF-RHF Final Energy:  -211.22038416028073
    Total Energy =                       -211.2203841602806733
  Basis Set: CC-PVTZ
  Basis Set:
  Charge       = 0
  Multiplicity = 1
  Basis Set: CC-PVTZ
  Basis Set:

    Orbital Energies (a.u.)
    -----------------------

    Doubly Occupied:

       1A    -15.529697     2A    -11.236326     3A    -11.236306
       4A    -11.211905     5A    -11.211335     6A     -1.221445
       7A     -1.020833     8A     -0.973048     9A     -0.817192
      10A     -0.787116    11A     -0.681462    12A     -0.640465
      13A     -0.590680    14A     -0.587459    15A     -0.513883
      16A     -0.495802    17A     -0.478341    18A     -0.475359
      19A     -0.457817    20A     -0.369875

  @DF-RHF Final Energy:  -211.22038456329327

   => Energetics <=

    Nuclear Repulsion Energy =            191.0124066405315091
    One-Electron Energy =                -663.3929024557966159
    Two-Electron Energy =                 261.1601112519717276
    DFT Exchange-Correlation Energy =       0.0000000000000000
    Empirical Dispersion Energy =           0.0000000000000000
    PCM Polarization Energy =               0.0000000000000000
    EFP Energy =                            0.0000000000000000
    Total Energy =                       -211.2203845632934076
    Molecular point group: c1
  Basis Set: CC-PVTZ
  Basis Set:

  -Total Gradient:
     Atom            X                  Y                   Z
    ------   -----------------  -----------------  -----------------
       1        0.000000422038    -0.000002068769     0.000008910681
       2        0.000000647183    -0.000033218436    -0.000034070842
       3        0.000069026478     0.000049308344     0.000014047194
       4       -0.000074504162     0.000045434919     0.000008559833
       5       -0.000010320859    -0.000002468326     0.000012492776
       6       -0.000005309467    -0.000015213582    -0.000002429615
       7        0.000022359681    -0.000000649992     0.000002000569
       8        0.000007153336    -0.000013108253    -0.000004422005
       9        0.000011128500    -0.000001240780     0.000014537295
      10       -0.000014975445    -0.000003741697    -0.000008029040
      11       -0.000001282382     0.000004308651     0.000007286476
      12       -0.000001123181    -0.000017662982    -0.000021021093
      13       -0.000005709110    -0.000009296898    -0.000012745737
      14        0.000002487391    -0.000000382196     0.000014883507

  **** Optimization is complete! (in 4 steps) ****
    Final optimized geometry and variables:
    Molecular point group: c1

    Geometry (in Angstrom), charge = 0, multiplicity = 1:

    H            0.000187812364    -1.351280267787    -1.189300233435
    N           -0.000017465405    -1.226225483873    -0.198205721152
    C            1.151037744824    -0.424079382812     0.188950275112
    C           -1.151170917583    -0.423987862166     0.188486473470
    H            2.037369141506    -0.738196468456    -0.345613484081
    H            1.338030596637    -0.582289623823     1.245737615051
    C            0.773169701368     1.047922813680    -0.069403912218
    H           -1.338712553979    -0.582339125206     1.245149508162
    H           -2.037272166893    -0.737906933221    -0.346566686145
    C           -0.773019747475     1.048047453195    -0.069414903812
    H            1.154393735136     1.375989698044    -1.028886983122
    H            1.188183218009     1.709302904487     0.680380580677
    H           -1.187934038490     1.709242130389     0.680616490931
    H           -1.154202883915     1.376516570870    -1.028759936916

  Mulliken Charges: (a.u.)
   Center  Symbol    Alpha    Beta     Spin     Total
       1     H     0.45139  0.45139  0.00000  0.09723
       2     N     3.62734  3.62734  0.00000 -0.25468
       3     C     3.04637  3.04637  0.00000 -0.09273
       4     C     3.04637  3.04637  0.00000 -0.09275
       5     H     0.44873  0.44873  0.00000  0.10254
       6     H     0.45741  0.45741  0.00000  0.08518
       7     C     3.10930  3.10930  0.00000 -0.21861
       8     H     0.45741  0.45741  0.00000  0.08518
       9     H     0.44873  0.44873  0.00000  0.10254
      10     C     3.10931  3.10931  0.00000 -0.21861
      11     H     0.45147  0.45147  0.00000  0.09706
      12     H     0.44736  0.44736  0.00000  0.10529
      13     H     0.44736  0.44736  0.00000  0.10527
      14     H     0.45146  0.45146  0.00000  0.09708

   Total alpha = 20.00000, Total beta = 20.00000, Total charge = -0.00000
