  ==> Input File <==

--------------------------------------------------------------------------
set {
	reference rhf
	basis 6-31G*
}

set_num_threads( 1 )
memory 2 gb

molecule MOL {
0 1

O	 1.846825	 1.296220	 0.000415
C	 1.705091	 0.115954	 0.001797
C	 0.381791	 -0.609817	 0.001258
O	 2.721346	 -0.737485	 -0.000216
C	 -0.823008	 0.326187	 0.001381
H	 0.371250	 -1.265087	 -0.865474
H	 0.370908	 -1.265746	 0.867490
C	 -2.078556	 -0.343949	 0.561361
H	 -1.008741	 0.670073	 -1.011256
H	 -0.587353	 1.212362	 0.582303
C	 -3.297163	 0.580611	 0.568062
H	 -2.307537	 -1.233829	 -0.023170
H	 -1.885169	 -0.688688	 1.576072
C	 -4.551056	 -0.089137	 1.128814
H	 -3.493242	 0.923837	 -0.445294
H	 -3.070290	 1.469611	 1.152309
H	 -4.823976	 -0.963079	 0.544046
H	 -5.396985	 0.591147	 1.120611
H	 -4.397480	 -0.413401	 2.154279
C	 4.024888	 -0.184556	 -0.001949
H	 4.179030	 0.422472	 -0.882452
H	 4.701782	 -1.024608	 -0.003642
H	 4.181981	 0.421185	 0.878906

	symmetry c1
}
set optking {
	frozen_dihedral = ("
		15 11 8 12,
		9 5 8 12,
		1 2 3 6,
		1 2 4 20
	")
}

ee = energy('scf')
oeprop('DIPOLE', 'QUADRUPOLE', 'MULLIKEN_CHARGES')
f=open( 'psi4out.xyz', 'w' )
f.write( "23  " )
f.write( str(ee) + "\n" )
f.write( MOL.save_string_xyz() )
f.close()
--------------------------------------------------------------------------

    Molecular point group: c1

    Geometry (in Angstrom), charge = 0, multiplicity = 1:

       Center              X                  Y                   Z               Mass
    ------------   -----------------  -----------------  -----------------  -----------------
           O          1.814983924792     1.255268738399    -0.251859601496    15.994914619560
           C          1.673249924792     0.075002738399    -0.250477601496    12.000000000000
           C          0.349949924792    -0.650768261601    -0.251016601496    12.000000000000
           O          2.689504924792    -0.778436261601    -0.252490601496    15.994914619560
           C         -0.854849075208     0.285235738399    -0.250893601496    12.000000000000
           H          0.339408924792    -1.306038261601    -1.117748601496     1.007825032070
           H          0.339066924792    -1.306697261601     0.615215398504     1.007825032070
           C         -2.110397075208    -0.384900261601     0.309086398504    12.000000000000
           H         -1.040582075208     0.629121738399    -1.263530601496     1.007825032070
           H         -0.619194075208     1.171410738399     0.330028398504     1.007825032070
           C         -3.329004075208     0.539659738399     0.315787398504    12.000000000000
           H         -2.339378075208    -1.274780261601    -0.275444601496     1.007825032070
           H         -1.917010075208    -0.729639261601     1.323797398504     1.007825032070
           C         -4.582897075208    -0.130088261601     0.876539398504    12.000000000000
           H         -3.525083075208     0.882885738399    -0.697568601496     1.007825032070
           H         -3.102131075208     1.428659738399     0.900034398504     1.007825032070
           H         -4.855817075208    -1.004030261601     0.291771398504     1.007825032070
           H         -5.428826075208     0.550195738399     0.868336398504     1.007825032070
           H         -4.429321075208    -0.454352261601     1.902004398504     1.007825032070
           C          3.993046924792    -0.225507261601    -0.254223601496    12.000000000000
           H          4.147188924792     0.381520738399    -1.134726601496     1.007825032070
           H          4.669940924792    -1.065559261601    -0.255916601496     1.007825032070
           H          4.150139924792     0.380233738399     0.626631398504     1.007825032070

  Charge       = 0
  Multiplicity = 1
  Basis Set: 6-31G*
  Basis Set:

    Orbital Energies (a.u.)
    -----------------------

    Doubly Occupied:

       1A    -20.603849     2A    -20.545734     3A    -11.372474
       4A    -11.280946     5A    -11.235018     6A    -11.217941
       7A    -11.217328     8A    -11.215972     9A    -11.209336
      10A     -1.469554    11A     -1.363116    12A     -1.092817
      13A     -1.043364    14A     -0.986933    15A     -0.931829
      16A     -0.843356    17A     -0.795033    18A     -0.767165
      19A     -0.698541    20A     -0.683012    21A     -0.671904
      22A     -0.650040    23A     -0.609871    24A     -0.599618
      25A     -0.571978    26A     -0.557718    27A     -0.556870
      28A     -0.524526    29A     -0.522557    30A     -0.505349
      31A     -0.484205    32A     -0.469438    33A     -0.464965
      34A     -0.460028    35A     -0.456026    36A     -0.436170

  @DF-RHF Final Energy:  -422.97465984932933

   => Energetics <=

    Nuclear Repulsion Energy =            452.7106079477987350
    One-Electron Energy =               -1473.1413206397517115
    Two-Electron Energy =                 597.4560528426235351
    DFT Exchange-Correlation Energy =       0.0000000000000000
    Empirical Dispersion Energy =           0.0000000000000000
    PCM Polarization Energy =               0.0000000000000000
    EFP Energy =                            0.0000000000000000
    Total Energy =                       -422.9746598493294414

  Mulliken Charges: (a.u.)
   Center  Symbol    Alpha    Beta     Spin     Total
       1     O     4.28546  4.28546  0.00000 -0.57091
       2     C     2.60736  2.60736  0.00000  0.78529
       3     C     3.20893  3.20893  0.00000 -0.41786
       4     O     4.30674  4.30674  0.00000 -0.61347
       5     C     3.15540  3.15540  0.00000 -0.31079
       6     H     0.39924  0.39924  0.00000  0.20152
       7     H     0.40018  0.40018  0.00000  0.19964
       8     C     3.15435  3.15435  0.00000 -0.30869
       9     H     0.41614  0.41614  0.00000  0.16772
      10     H     0.40312  0.40312  0.00000  0.19375
      11     C     3.15182  3.15182  0.00000 -0.30364
      12     H     0.42442  0.42442  0.00000  0.15115
      13     H     0.42337  0.42337  0.00000  0.15326
      14     C     3.23954  3.23954  0.00000 -0.47907
      15     H     0.42199  0.42199  0.00000  0.15602
      16     H     0.42075  0.42075  0.00000  0.15851
      17     H     0.42196  0.42196  0.00000  0.15609
      18     H     0.41858  0.41858  0.00000  0.16284
      19     H     0.42176  0.42176  0.00000  0.15648
      20     C     3.09237  3.09237  0.00000 -0.18473
      21     H     0.40901  0.40901  0.00000  0.18197
      22     H     0.40841  0.40841  0.00000  0.18317
      23     H     0.40911  0.40911  0.00000  0.18177

   Total alpha = 36.00000, Total beta = 36.00000, Total charge = -0.00000
