  ==> Input File <==

--------------------------------------------------------------------------
set {
	reference rhf
	basis 6-31G*
}

set_num_threads( 4 )
memory 2 gb

molecule MOL {
0 1

H	 -2.153054	 -2.250733	 0.000000
O	 -2.462445	 -1.355403	 0.000000
C	 -1.434260	 -0.483044	 0.000000
C	 -0.160282	 -0.998433	 0.214627
C	 -1.606806	 0.873172	 -0.202032
H	 -0.050522	 -2.055314	 0.369249
C	 0.931284	 -0.154718	 0.225708
H	 -2.586306	 1.284548	 -0.369080
C	 -0.495009	 1.711703	 -0.187945
H	 1.912113	 -0.560710	 0.392185
C	 0.777868	 1.209965	 0.024721
C	 -0.683838	 3.129388	 -0.400099
H	 1.624995	 1.868669	 0.032793
N	 -0.834793	 4.243117	 -0.566606

	symmetry c1
}
set optking {
	frozen_dihedral = ("
		14 12 9 5
	")
}

ee = optimize('scf')
oeprop('DIPOLE', 'QUADRUPOLE', 'MULLIKEN_CHARGES')
f=open( 'psi4out.xyz', 'w' )
f.write( "14  " )
f.write( str(ee) + "\n" )
f.write( MOL.save_string_xyz() )
f.close()
--------------------------------------------------------------------------

    Molecular point group: c1
  Charge       = 0
  Multiplicity = 1
  Basis Set: 6-31G*
  Basis Set:
  @DF-RHF Final Energy:  -397.28898558069540
    Total Energy =                       -397.2889855806957939
    Molecular point group: c1
  Basis Set: 6-31G*
  Basis Set:
  Basis Set: 6-31G*
  Basis Set:
  @DF-RHF Final Energy:  -397.14495191295197
    Total Energy =                       -397.1449519129520240
  Basis Set: 6-31G*
  Basis Set:
  Basis Set: 6-31G*
  Basis Set:
  @DF-RHF Final Energy:  -397.24105958179598
    Total Energy =                       -397.2410595817962644
  Basis Set: 6-31G*
  Basis Set:
  Basis Set: 6-31G*
  Basis Set:
  @DF-RHF Final Energy:  -397.28463898971569
    Total Energy =                       -397.2846389897160861
  Basis Set: 6-31G*
  Basis Set:
  @DF-RHF Final Energy:  -397.29128218185588
    Total Energy =                       -397.2912821818556495
  @DF-RHF Final Energy:  -397.29043457575341
    Total Energy =                       -397.2904345757533520
  @DF-RHF Final Energy:  -397.29141757819332
    Total Energy =                       -397.2914175781932045
  @DF-RHF Final Energy:  -397.28967138590536
    Total Energy =                       -397.2896713859055353
  @DF-RHF Final Energy:  -397.28896195394361
    Total Energy =                       -397.2889619539434989
  @DF-RHF Final Energy:  -397.29124424831525
    Total Energy =                       -397.2912442483151381
  @DF-RHF Final Energy:  -397.29139707918733
    Total Energy =                       -397.2913970791872771
  @DF-RHF Final Energy:  -397.29159204328431
    Total Energy =                       -397.2915920432844814
  @DF-RHF Final Energy:  -397.29115166671608
    Total Energy =                       -397.2911516667160186
  @DF-RHF Final Energy:  -397.29155269408358
    Total Energy =                       -397.2915526940832933
  @DF-RHF Final Energy:  -397.29149909954015
    Total Energy =                       -397.2914990995403741
  @DF-RHF Final Energy:  -397.29142298021412
    Total Energy =                       -397.2914229802138379
  @DF-RHF Final Energy:  -397.29155940620274
    Total Energy =                       -397.2915594062025093
  @DF-RHF Final Energy:  -397.29102433771999
    Total Energy =                       -397.2910243377202733
  @DF-RHF Final Energy:  -397.29153592246985
    Total Energy =                       -397.2915359224698477
  @DF-RHF Final Energy:  -397.29159250087201
    Total Energy =                       -397.2915925008724116
  @DF-RHF Final Energy:  -397.29146281786387
    Total Energy =                       -397.2914628178639305
  @DF-RHF Final Energy:  -397.29129230360320
    Total Energy =                       -397.2912923036033135
  @DF-RHF Final Energy:  -397.29142660321588
    Total Energy =                       -397.2914266032154273
  @DF-RHF Final Energy:  -397.29149417046762
    Total Energy =                       -397.2914941704677858
  @DF-RHF Final Energy:  -397.29154041176696
    Total Energy =                       -397.2915404117666185
  @DF-RHF Final Energy:  -397.29154419603299
    Total Energy =                       -397.2915441960327598
  @DF-RHF Final Energy:  -397.29153153862194
    Total Energy =                       -397.2915315386221664
  @DF-RHF Final Energy:  -397.29155546132341
    Total Energy =                       -397.2915554613239237
  @DF-RHF Final Energy:  -397.29159935947104
    Total Energy =                       -397.2915993594712063
  @DF-RHF Final Energy:  -397.29150093628272
    Total Energy =                       -397.2915009362826595
  @DF-RHF Final Energy:  -397.29160781188466
    Total Energy =                       -397.2916078118846599
  @DF-RHF Final Energy:  -397.29162196763195
    Total Energy =                       -397.2916219676314995
  @DF-RHF Final Energy:  -397.29159147629741
    Total Energy =                       -397.2915914762971852
  @DF-RHF Final Energy:  -397.29161690109453
    Total Energy =                       -397.2916169010949261
  @DF-RHF Final Energy:  -397.29161359027893
    Total Energy =                       -397.2916135902793258
  @DF-RHF Final Energy:  -397.29162267409146
    Total Energy =                       -397.2916226740913999
  Basis Set: 6-31G*
  Basis Set:
  @DF-RHF Final Energy:  -397.29161694569245
    Total Energy =                       -397.2916169456924536
  Basis Set: 6-31G*
  Basis Set:
  Basis Set: 6-31G*
  Basis Set:
  @DF-RHF Final Energy:  -397.29161592436083
    Total Energy =                       -397.2916159243603715
  Basis Set: 6-31G*
  Basis Set:
  Basis Set: 6-31G*
  Basis Set:
  @DF-RHF Final Energy:  -397.29160206865862
    Total Energy =                       -397.2916020686587899
  Basis Set: 6-31G*
  Basis Set:
  Charge       = 0
  Multiplicity = 1
  Basis Set: 6-31G*
  Basis Set:

    Orbital Energies (a.u.)
    -----------------------

    Doubly Occupied:

       1A    -20.613207     2A    -15.573407     3A    -11.326424
       4A    -11.293470     5A    -11.274498     6A    -11.264392
       7A    -11.259358     8A    -11.258949     9A    -11.258054
      10A     -1.433790    11A     -1.231642    12A     -1.181966
      13A     -1.062829    14A     -1.039752    15A     -0.899303
      16A     -0.857621    17A     -0.794287    18A     -0.714447
      19A     -0.692584    20A     -0.670479    21A     -0.628552
      22A     -0.613943    23A     -0.595420    24A     -0.564161
      25A     -0.546998    26A     -0.537163    27A     -0.526009
      28A     -0.473281    29A     -0.471166    30A     -0.362656
      31A     -0.336770

  @DF-RHF Final Energy:  -397.29161362024513

   => Energetics <=

    Nuclear Repulsion Energy =            379.4360590144932530
    One-Electron Energy =               -1290.7421864339698914
    Two-Electron Energy =                 514.0145137992312812
    DFT Exchange-Correlation Energy =       0.0000000000000000
    Empirical Dispersion Energy =           0.0000000000000000
    PCM Polarization Energy =               0.0000000000000000
    EFP Energy =                            0.0000000000000000
    Total Energy =                       -397.2916136202453572
    Molecular point group: c1
  Basis Set: 6-31G*
  Basis Set:

  -Total Gradient:
     Atom            X                  Y                   Z
    ------   -----------------  -----------------  -----------------
       1        0.000028444916    -0.000275033866     0.000011468962
       2        0.000311004381     0.000171783324     0.000195663266
       3        0.000278342943     0.000209486783    -0.000129588645
       4       -0.000371281264    -0.000208272130     0.000117680019
       5       -0.000265211521     0.000073596569    -0.000253862956
       6        0.000117074334     0.000105935095    -0.000054407786
       7       -0.000047901012    -0.000089967106     0.000116109493
       8        0.000037429302     0.000057288434     0.000074321852
       9        0.000309254576     0.000289073833    -0.000504457829
      10       -0.000072682772    -0.000065443755     0.000011383722
      11       -0.000432418709     0.000086638947    -0.000348315073
      12       -0.000141200778     0.001497956344     0.000880379848
      13        0.000039894059     0.000006322672     0.000146201371
      14        0.000209251548    -0.001859365145    -0.000262576244

    Molecular point group: c1

    Geometry (in Angstrom), charge = 0, multiplicity = 1:

    H           -1.571469394973    -3.036310421078     0.177664020992
    O           -1.796826069888    -2.126578825045     0.040714641507
    C           -0.700224831644    -1.342872012619     0.078012493627
    C            0.573645283649    -1.844154808167     0.294063381602
    C           -0.887879403710     0.018063907166    -0.111555215464
    H            0.717932552679    -2.900920861158     0.440716760332
    C            1.661788026461    -0.985573989952     0.321514281352
    H           -1.877752512590     0.397112302255    -0.277832278093
    C            0.209808189226     0.862803386309    -0.080981090645
    H            2.644892977846    -1.385021634522     0.490208668431
    C            1.493940537809     0.372364739828     0.135497716447
    C            0.013601649824     2.282502875352    -0.276024513474
    H            2.332124977220     1.042198285256     0.156680120931
    N           -0.135639884726     3.398240564091    -0.426528908943

  Mulliken Charges: (a.u.)
   Center  Symbol    Alpha    Beta     Spin     Total
       1     H     0.26881  0.26881  0.00000  0.46237
       2     O     4.37547  4.37547  0.00000 -0.75093
       3     C     2.79245  2.79245  0.00000  0.41509
       4     C     3.13515  3.13515  0.00000 -0.27030
       5     C     3.11247  3.11247  0.00000 -0.22495
       6     H     0.39595  0.39595  0.00000  0.20809
       7     C     3.09443  3.09443  0.00000 -0.18887
       8     H     0.37320  0.37320  0.00000  0.25359
       9     C     2.99223  2.99223  0.00000  0.01554
      10     H     0.38899  0.38899  0.00000  0.22202
      11     C     3.09927  3.09927  0.00000 -0.19855
      12     C     2.86538  2.86538  0.00000  0.26924
      13     H     0.38156  0.38156  0.00000  0.23689
      14     N     3.72463  3.72463  0.00000 -0.44925

   Total alpha = 31.00000, Total beta = 31.00000, Total charge = -0.00000
