  ==> Input File <==

--------------------------------------------------------------------------
set {
	reference rhf
	basis 6-31G*
}

set_num_threads( 4 )
memory 2 gb

molecule MOL {
0 1

H	 1.639206	 0.093695	 -3.696229
O	 1.790785	 -0.636258	 -4.278693
C	 2.148405	 -1.771500	 -3.532109
C	 0.978405	 -2.381679	 -2.768232
H	 2.529802	 -2.487124	 -4.249111
H	 2.961721	 -1.536100	 -2.846629
C	 0.392472	 -1.465203	 -1.691375
H	 0.202938	 -2.649119	 -3.481320
H	 1.319688	 -3.307700	 -2.308472
C	 -0.744027	 -2.126411	 -0.906523
H	 0.029086	 -0.553550	 -2.157427
H	 1.180797	 -1.170621	 -0.998478
C	 -1.309753	 -1.282496	 0.241564
H	 -1.548439	 -2.386631	 -1.592127
H	 -0.380245	 -3.066087	 -0.496192
C	 -2.037799	 -0.007733	 -0.193645
H	 -2.001796	 -1.899812	 0.810610
H	 -0.504491	 -1.021972	 0.926778
C	 -3.489788	 0.042957	 0.286558
H	 -2.017067	 0.064384	 -1.280144
H	 -1.513726	 0.868678	 0.179924
C	 -4.216917	 1.317354	 -0.141063
H	 -4.025645	 -0.823308	 -0.095450
H	 -3.513059	 -0.038752	 1.371301
H	 -4.239342	 1.411634	 -1.223113
H	 -5.243387	 1.322503	 0.212445
H	 -3.726170	 2.201406	 0.256408

	symmetry c1
}
set optking {
	frozen_dihedral = ("
		10 13 16 20
	")
}

ee = optimize('scf')
oeprop('DIPOLE', 'QUADRUPOLE', 'MULLIKEN_CHARGES')
f=open( 'psi4out.xyz', 'w' )
f.write( "27  " )
f.write( str(ee) + "\n" )
f.write( MOL.save_string_xyz() )
f.close()
--------------------------------------------------------------------------

    Molecular point group: c1
  Charge       = 0
  Multiplicity = 1
  Basis Set: 6-31G*
  Basis Set:
  @DF-RHF Final Energy:  -388.27653446458288
    Total Energy =                       -388.2765344645831647
    Molecular point group: c1
  Basis Set: 6-31G*
  Basis Set:
  Basis Set: 6-31G*
  Basis Set:
  @DF-RHF Final Energy:  -388.27669884740556
    Total Energy =                       -388.2766988474052141
  Basis Set: 6-31G*
  Basis Set:
  Basis Set: 6-31G*
  Basis Set:
  @DF-RHF Final Energy:  -388.27691773725900
    Total Energy =                       -388.2769177372592821
  Basis Set: 6-31G*
  Basis Set:
  Basis Set: 6-31G*
  Basis Set:
  @DF-RHF Final Energy:  -388.27693452712617
    Total Energy =                       -388.2769345271260590
  Basis Set: 6-31G*
  Basis Set:
  Basis Set: 6-31G*
  Basis Set:
  @DF-RHF Final Energy:  -388.27694457334724
    Total Energy =                       -388.2769445733465545
  Basis Set: 6-31G*
  Basis Set:
  Basis Set: 6-31G*
  Basis Set:
  @DF-RHF Final Energy:  -388.27695052621829
    Total Energy =                       -388.2769505262181156
  Basis Set: 6-31G*
  Basis Set:
  Basis Set: 6-31G*
  Basis Set:
  @DF-RHF Final Energy:  -388.27695142669887
    Total Energy =                       -388.2769514266988153
  Basis Set: 6-31G*
  Basis Set:
  Charge       = 0
  Multiplicity = 1
  Basis Set: 6-31G*
  Basis Set:

    Orbital Energies (a.u.)
    -----------------------

    Doubly Occupied:

       1A    -20.552246     2A    -11.267029     3A    -11.219735
       4A    -11.217451     5A    -11.216170     6A    -11.215221
       7A    -11.215202     8A    -11.214096     9A    -11.208797
      10A     -1.359006    11A     -1.094220    12A     -1.060683
      13A     -1.010930    14A     -0.947270    15A     -0.887698
      16A     -0.821794    17A     -0.802686    18A     -0.776602
      19A     -0.693710    20A     -0.653914    21A     -0.627428
      22A     -0.615621    23A     -0.604320    24A     -0.586973
      25A     -0.576858    26A     -0.556265    27A     -0.536458
      28A     -0.530631    29A     -0.505747    30A     -0.493238
      31A     -0.483701    32A     -0.478996    33A     -0.469048
      34A     -0.452866    35A     -0.452545    36A     -0.442954
      37A     -0.422651

  @DF-RHF Final Energy:  -388.27695198350574

   => Energetics <=

    Nuclear Repulsion Energy =            460.4802681128882682
    One-Electron Energy =               -1438.9729191697297210
    Two-Electron Energy =                 590.2156990733353723
    DFT Exchange-Correlation Energy =       0.0000000000000000
    Empirical Dispersion Energy =           0.0000000000000000
    PCM Polarization Energy =               0.0000000000000000
    EFP Energy =                            0.0000000000000000
    Total Energy =                       -388.2769519835060237
    Molecular point group: c1
  Basis Set: 6-31G*
  Basis Set:

  -Total Gradient:
     Atom            X                  Y                   Z
    ------   -----------------  -----------------  -----------------
       1        0.000001051694    -0.000006209845     0.000000993216
       2       -0.000000590538     0.000002515928    -0.000007164864
       3        0.000001953305    -0.000002722892     0.000010959458
       4        0.000012314326     0.000013564947     0.000008041525
       5        0.000001236414     0.000007085480    -0.000003265378
       6        0.000002315252    -0.000001278120    -0.000002308128
       7        0.000016367077    -0.000002501848    -0.000030995991
       8        0.000002837290     0.000001162530    -0.000002127000
       9       -0.000004305235    -0.000010722773     0.000000598873
      10       -0.000804373223    -0.000386898901    -0.000096991960
      11        0.000011719769    -0.000040861992     0.000000984879
      12       -0.000001809655     0.000008455714     0.000014732654
      13        0.001270431969     0.000827865448    -0.000006140973
      14       -0.000003622551    -0.000017160973     0.000010566524
      15        0.000010246754     0.000019170306     0.000000176576
      16       -0.001506692824    -0.000980176130     0.000021957788
      17       -0.000083476079     0.000056895493     0.000000166665
      18       -0.000004158911     0.000069000220     0.000001551669
      19        0.000025053496    -0.000069309758     0.000032930831
      20        0.001021664673     0.000530708393     0.000000925365
      21        0.000032233838    -0.000011243813     0.000040730416
      22        0.000022798136    -0.000007503288    -0.000001643871
      23       -0.000012175163     0.000009471753     0.000000159276
      24       -0.000017080113    -0.000002346333     0.000002207644
      25        0.000000387166    -0.000001575781    -0.000000244116
      26        0.000004459434    -0.000004694715     0.000002020757
      27        0.000001213693    -0.000000689049     0.000001178170

  **** Optimization is complete! (in 8 steps) ****
    Final optimized geometry and variables:
    Molecular point group: c1

    Geometry (in Angstrom), charge = 0, multiplicity = 1:

    H            2.419274277495     1.014936410686    -2.099854868465
    O            2.520556029075     0.316175870829    -2.729637372374
    C            2.821593116734    -0.882702469335    -2.061766379581
    C            1.628206071797    -1.471294613529    -1.317426984934
    H            3.150664821246    -1.572028628753    -2.828692098543
    H            3.656552800924    -0.738328911825    -1.377117583507
    C            1.108974998951    -0.589636766681    -0.179318056442
    H            0.829988676400    -1.651417721570    -2.032771830677
    H            1.921622071170    -2.441053734601    -0.918711237587
    C           -0.042662211222    -1.233627788758     0.597150656019
    H            0.783155203553     0.365314689930    -0.584030006666
    H            1.923223915176    -0.373249149435     0.512264230483
    C           -0.594321106832    -0.364334233062     1.733086551264
    H           -0.850105404240    -1.480071928149    -0.090210321542
    H            0.303658163323    -2.177951662387     1.011851974562
    C           -1.366430665224     0.890642994019     1.265311687111
    H           -1.254681337485    -0.980035902698     2.338629548133
    H            0.223850585083    -0.077185569964     2.388980055936
    C           -2.806053106434     0.946370212168     1.781894242406
    H           -1.381105274863     0.934574511337     0.178711133146
    H           -0.845466616101     1.789861867775     1.585442054511
    C           -3.561406804368     2.189775348632     1.315900815564
    H           -3.338111958366     0.055308387310     1.454626291379
    H           -2.798238440572     0.913795504302     2.869382702518
    H           -3.615292317265     2.232614941625     0.231630495924
    H           -4.577606196502     2.199428135672     1.697864663397
    H           -3.071246824918     3.097270770729     1.657416842081

  Mulliken Charges: (a.u.)
   Center  Symbol    Alpha    Beta     Spin     Total
       1     H     0.27978  0.27978  0.00000  0.44043
       2     O     4.37101  4.37101  0.00000 -0.74201
       3     C     2.99742  2.99742  0.00000  0.00516
       4     C     3.16089  3.16089  0.00000 -0.32178
       5     H     0.41448  0.41448  0.00000  0.17105
       6     H     0.43198  0.43198  0.00000  0.13603
       7     C     3.16288  3.16288  0.00000 -0.32575
       8     H     0.41514  0.41514  0.00000  0.16972
       9     H     0.42426  0.42426  0.00000  0.15148
      10     C     3.15349  3.15349  0.00000 -0.30698
      11     H     0.42283  0.42283  0.00000  0.15433
      12     H     0.42537  0.42537  0.00000  0.14927
      13     C     3.15792  3.15792  0.00000 -0.31583
      14     H     0.42184  0.42184  0.00000  0.15633
      15     H     0.42206  0.42206  0.00000  0.15587
      16     C     3.15468  3.15468  0.00000 -0.30935
      17     H     0.41818  0.41818  0.00000  0.16365
      18     H     0.42155  0.42155  0.00000  0.15690
      19     C     3.15317  3.15317  0.00000 -0.30634
      20     H     0.42102  0.42102  0.00000  0.15795
      21     H     0.42209  0.42209  0.00000  0.15583
      22     C     3.24015  3.24015  0.00000 -0.48030
      23     H     0.42282  0.42282  0.00000  0.15435
      24     H     0.42251  0.42251  0.00000  0.15498
      25     H     0.42142  0.42142  0.00000  0.15717
      26     H     0.41914  0.41914  0.00000  0.16172
      27     H     0.42193  0.42193  0.00000  0.15613

   Total alpha = 37.00000, Total beta = 37.00000, Total charge =  0.00000
