  ==> Input File <==

--------------------------------------------------------------------------
set {
	reference rhf
	basis 6-31G*
}

set_num_threads( 1 )
memory 2 gb

molecule MOL {
0 1

H	 -3.420663	 1.227371	 -1.044276
O	 -3.452007	 0.283848	 -0.965577
C	 -3.181085	 -0.079926	 0.364119
C	 -1.765924	 0.277073	 0.805136
H	 -3.327791	 -1.152017	 0.410903
H	 -3.905698	 0.375695	 1.036898
C	 -0.677594	 -0.417312	 -0.014550
H	 -1.637766	 1.358238	 0.744969
H	 -1.659588	 0.017670	 1.857098
C	 0.738335	 -0.034840	 0.421385
H	 -0.814977	 -0.178223	 -1.064632
H	 -0.802730	 -1.495410	 0.071702
C	 1.300411	 1.153036	 -0.364177
H	 0.731637	 0.192662	 1.484690
H	 1.399498	 -0.891523	 0.296644
C	 2.750157	 1.518253	 -0.025047
H	 0.665011	 2.022779	 -0.204467
H	 1.241440	 0.926533	 -1.426738
C	 2.958516	 2.038652	 1.398391
H	 3.086662	 2.278204	 -0.726138
H	 3.387237	 0.651487	 -0.189513
H	 2.324260	 2.898800	 1.595886
H	 3.988475	 2.347391	 1.549057
H	 2.733628	 1.283525	 2.144294

	symmetry c1
}
set optking {
	frozen_dihedral = ("
		20 16 13 17,
		17 13 10 7,
		11 7 4 3,
		1 2 3 5,
		7 4 3 2
	")
}

ee = energy('scf')
oeprop('DIPOLE', 'QUADRUPOLE', 'MULLIKEN_CHARGES')
f=open( 'psi4out.xyz', 'w' )
f.write( "24  " )
f.write( str(ee) + "\n" )
f.write( MOL.save_string_xyz() )
f.close()
--------------------------------------------------------------------------

    Molecular point group: c1

    Geometry (in Angstrom), charge = 0, multiplicity = 1:

       Center              X                  Y                   Z               Mass
    ------------   -----------------  -----------------  -----------------  -----------------
           H         -3.199160299930     0.624931291560    -1.235167015400     1.007825032070
           O         -3.230504299930    -0.318591708440    -1.156468015400    15.994914619560
           C         -2.959582299930    -0.682365708440     0.173227984600    12.000000000000
           C         -1.544421299930    -0.325366708440     0.614244984600    12.000000000000
           H         -3.106288299930    -1.754456708440     0.220011984600     1.007825032070
           H         -3.684195299930    -0.226744708440     0.846006984600     1.007825032070
           C         -0.456091299930    -1.019751708440    -0.205441015400    12.000000000000
           H         -1.416263299930     0.755798291560     0.554077984600     1.007825032070
           H         -1.438085299930    -0.584769708440     1.666206984600     1.007825032070
           C          0.959837700070    -0.637279708440     0.230493984600    12.000000000000
           H         -0.593474299930    -0.780662708440    -1.255523015400     1.007825032070
           H         -0.581227299930    -2.097849708440    -0.119189015400     1.007825032070
           C          1.521913700070     0.550596291560    -0.555068015400    12.000000000000
           H          0.953139700070    -0.409777708440     1.293798984600     1.007825032070
           H          1.621000700070    -1.493962708440     0.105752984600     1.007825032070
           C          2.971659700070     0.915813291560    -0.215938015400    12.000000000000
           H          0.886513700070     1.420339291560    -0.395358015400     1.007825032070
           H          1.462942700070     0.324093291560    -1.617629015400     1.007825032070
           C          3.180018700070     1.436212291560     1.207499984600    12.000000000000
           H          3.308164700070     1.675764291560    -0.917029015400     1.007825032070
           H          3.608739700070     0.049047291560    -0.380404015400     1.007825032070
           H          2.545762700070     2.296360291560     1.404994984600     1.007825032070
           H          4.209977700070     1.744951291560     1.358165984600     1.007825032070
           H          2.955130700070     0.681085291560     1.953402984600     1.007825032070

  Charge       = 0
  Multiplicity = 1
  Basis Set: 6-31G*
  Basis Set:

    Orbital Energies (a.u.)
    -----------------------

    Doubly Occupied:

       1A    -20.553425     2A    -11.267426     3A    -11.217422
       4A    -11.214635     5A    -11.212888     6A    -11.211420
       7A    -11.210162     8A    -11.208105     9A     -1.360003
      10A     -1.089767    11A     -1.047680    12A     -0.985208
      13A     -0.915520    14A     -0.851725    15A     -0.804748
      16A     -0.773799    17A     -0.679962    18A     -0.642763
      19A     -0.632513    20A     -0.615010    21A     -0.601528
      22A     -0.585325    23A     -0.564412    24A     -0.535032
      25A     -0.521405    26A     -0.510610    27A     -0.494450
      28A     -0.480953    29A     -0.467371    30A     -0.459195
      31A     -0.453281    32A     -0.443968    33A     -0.420075

  @DF-RHF Final Energy:  -349.24401533015725

   => Energetics <=

    Nuclear Repulsion Energy =            389.2264068096217215
    One-Electron Energy =               -1244.8772645030801414
    Two-Electron Energy =                 506.4068423633020757
    DFT Exchange-Correlation Energy =       0.0000000000000000
    Empirical Dispersion Energy =           0.0000000000000000
    PCM Polarization Energy =               0.0000000000000000
    EFP Energy =                            0.0000000000000000
    Total Energy =                       -349.2440153301563441

  Mulliken Charges: (a.u.)
   Center  Symbol    Alpha    Beta     Spin     Total
       1     H     0.28338  0.28338  0.00000  0.43324
       2     O     4.36831  4.36831  0.00000 -0.73662
       3     C     2.99622  2.99622  0.00000  0.00757
       4     C     3.17017  3.17017  0.00000 -0.34034
       5     H     0.41632  0.41632  0.00000  0.16737
       6     H     0.42837  0.42837  0.00000  0.14325
       7     C     3.15492  3.15492  0.00000 -0.30984
       8     H     0.42764  0.42764  0.00000  0.14473
       9     H     0.42204  0.42204  0.00000  0.15591
      10     C     3.15683  3.15683  0.00000 -0.31366
      11     H     0.41078  0.41078  0.00000  0.17844
      12     H     0.42124  0.42124  0.00000  0.15753
      13     C     3.15336  3.15336  0.00000 -0.30672
      14     H     0.42188  0.42188  0.00000  0.15623
      15     H     0.42120  0.42120  0.00000  0.15759
      16     C     3.15226  3.15226  0.00000 -0.30453
      17     H     0.42628  0.42628  0.00000  0.14744
      18     H     0.42078  0.42078  0.00000  0.15843
      19     C     3.24100  3.24100  0.00000 -0.48199
      20     H     0.42144  0.42144  0.00000  0.15712
      21     H     0.42303  0.42303  0.00000  0.15394
      22     H     0.42316  0.42316  0.00000  0.15368
      23     H     0.41934  0.41934  0.00000  0.16131
      24     H     0.42004  0.42004  0.00000  0.15993

   Total alpha = 33.00000, Total beta = 33.00000, Total charge = -0.00000
