  ==> Input File <==

--------------------------------------------------------------------------
set {
	reference rhf
	basis cc-pvtz
}

set_num_threads( 4 )
memory 2 gb

molecule MOL {
0 1

H	 3.078613	 1.298234	 -0.836683
C	 2.366447	 1.118876	 -0.041743
C	 1.322304	 0.099773	 -0.484271
H	 2.916955	 0.768584	 0.824055
H	 1.908004	 2.067628	 0.213288
C	 0.308557	 -0.162619	 0.622645
H	 1.801834	 -0.834197	 -0.749761
H	 0.798851	 0.459214	 -1.361617
N	 -1.069352	 -0.004081	 0.085342
H	 0.371632	 -1.172932	 0.991288
H	 0.400391	 0.548875	 1.426218
O	 -1.584901	 -0.965470	 -0.377818
O	 -1.548033	 1.079343	 0.130056

	symmetry c1
}
set optking {
	frozen_dihedral = ("
		7 3 6 9
	")
}

ee = optimize('scf')
oeprop('DIPOLE', 'QUADRUPOLE', 'MULLIKEN_CHARGES')
f=open( 'psi4out.xyz', 'w' )
f.write( "13  " )
f.write( str(ee) + "\n" )
f.write( MOL.save_string_xyz() )
f.close()
--------------------------------------------------------------------------

    Molecular point group: c1
  Charge       = 0
  Multiplicity = 1
  Basis Set: CC-PVTZ
  Basis Set:
  @DF-RHF Final Energy:  -321.85587235730736
    Total Energy =                       -321.8558723573072484
    Molecular point group: c1
  Basis Set: CC-PVTZ
  Basis Set:
  Basis Set: CC-PVTZ
  Basis Set:
  @DF-RHF Final Energy:  -321.85314437602801
    Total Energy =                       -321.8531443760281263
  Basis Set: CC-PVTZ
  Basis Set:
  Basis Set: CC-PVTZ
  Basis Set:
  @DF-RHF Final Energy:  -321.85083204389321
    Total Energy =                       -321.8508320438932060
  Basis Set: CC-PVTZ
  Basis Set:
  Basis Set: CC-PVTZ
  Basis Set:
  @DF-RHF Final Energy:  -321.85619500919597
    Total Energy =                       -321.8561950091959716
  Basis Set: CC-PVTZ
  Basis Set:
  @DF-RHF Final Energy:  -321.85625610847973
    Total Energy =                       -321.8562561084800109
  @DF-RHF Final Energy:  -321.85627727890494
    Total Energy =                       -321.8562772789050541
  Basis Set: CC-PVTZ
  Basis Set:
  @DF-RHF Final Energy:  -321.85628104658633
    Total Energy =                       -321.8562810465863322
  Basis Set: CC-PVTZ
  Basis Set:
  Basis Set: CC-PVTZ
  Basis Set:
  @DF-RHF Final Energy:  -321.85628328543032
    Total Energy =                       -321.8562832854304929
  Basis Set: CC-PVTZ
  Basis Set:
  Basis Set: CC-PVTZ
  Basis Set:
  @DF-RHF Final Energy:  -321.85628491790476
    Total Energy =                       -321.8562849179051000
  Basis Set: CC-PVTZ
  Basis Set:
  Charge       = 0
  Multiplicity = 1
  Basis Set: CC-PVTZ
  Basis Set:

    Orbital Energies (a.u.)
    -----------------------

    Doubly Occupied:

       1A    -20.591540     2A    -20.589321     3A    -15.836970
       4A    -11.297380     5A    -11.255282     6A    -11.233942
       7A     -1.636072     8A     -1.420328     9A     -1.131365
      10A     -1.026945    11A     -0.884361    12A     -0.834281
      13A     -0.762752    14A     -0.737764    15A     -0.727376
      16A     -0.661815    17A     -0.614220    18A     -0.591422
      19A     -0.540285    20A     -0.519874    21A     -0.515090
      22A     -0.484524    23A     -0.474756    24A     -0.453996

  @DF-RHF Final Energy:  -321.85628504365457

   => Energetics <=

    Nuclear Repulsion Energy =            248.7740665841660075
    One-Electron Energy =                -931.6173825298840256
    Two-Electron Energy =                 360.9870309020635659
    DFT Exchange-Correlation Energy =       0.0000000000000000
    Empirical Dispersion Energy =           0.0000000000000000
    PCM Polarization Energy =               0.0000000000000000
    EFP Energy =                            0.0000000000000000
    Total Energy =                       -321.8562850436544522
    Molecular point group: c1
  Basis Set: CC-PVTZ
  Basis Set:

  -Total Gradient:
     Atom            X                  Y                   Z
    ------   -----------------  -----------------  -----------------
       1       -0.000001129108    -0.000000668483     0.000001121290
       2       -0.000007057310    -0.000012053459     0.000004365576
       3       -0.001520920462     0.000104302042    -0.001441122892
       4        0.000002780038     0.000002907898     0.000001700637
       5       -0.000000021708     0.000002260671    -0.000001112623
       6        0.000211333427    -0.001636426332    -0.000173685214
       7        0.001262215844     0.000272544941     0.001248125677
       8       -0.000002080099    -0.000003741192    -0.000000619260
       9       -0.000009069876     0.001259896572     0.000360548068
      10        0.000000217720     0.000001382943    -0.000007359499
      11       -0.000003469754     0.000003475250    -0.000009365347
      12        0.000034680462    -0.000034668816     0.000003377097
      13        0.000032520829     0.000040787969     0.000014026490

  **** Optimization is complete! (in 10 steps) ****
    Final optimized geometry and variables:
    Molecular point group: c1

    Geometry (in Angstrom), charge = 0, multiplicity = 1:

    H            3.174212189138     1.099523491240    -0.821020131934
    C            2.449663018410     0.933726600429    -0.033723587211
    C            1.395539125652    -0.074158931435    -0.480378412916
    H            2.985851218745     0.580687146470     0.840562462788
    H            1.995288149673     1.886094647141     0.211917361590
    C            0.369291365619    -0.373963770236     0.628174476023
    H            1.878735493707    -0.998647312956    -0.766959680291
    H            0.882605333086     0.302573781740    -1.354999466700
    N           -1.011428713149    -0.211302233290     0.101669395628
    H            0.433989245822    -1.384232429586     0.991392066525
    H            0.446257936195     0.327375453058     1.441869500922
    O           -1.570124405549    -1.183934473456    -0.279816899686
    O           -1.449589243508     0.890345505990     0.071027849852

  Mulliken Charges: (a.u.)
   Center  Symbol    Alpha    Beta     Spin     Total
       1     H     0.44456  0.44456  0.00000  0.11087
       2     C     3.15013  3.15013  0.00000 -0.30026
       3     C     3.08901  3.08901  0.00000 -0.17802
       4     H     0.45311  0.45311  0.00000  0.09378
       5     H     0.44676  0.44676  0.00000  0.10648
       6     C     3.04117  3.04117  0.00000 -0.08234
       7     H     0.44282  0.44282  0.00000  0.11436
       8     H     0.43951  0.43951  0.00000  0.12099
       9     N     3.27916  3.27916  0.00000  0.44167
      10     H     0.43146  0.43146  0.00000  0.13709
      11     H     0.43652  0.43652  0.00000  0.12695
      12     O     4.17084  4.17084  0.00000 -0.34168
      13     O     4.17495  4.17495  0.00000 -0.34991

   Total alpha = 24.00000, Total beta = 24.00000, Total charge = -0.00000
