  ==> Input File <==

--------------------------------------------------------------------------
set {
	reference rhf
	basis cc-pvtz
}

set_num_threads( 4 )
memory 2 gb

molecule MOL {
0 1

H	 -2.847403	 0.388892	 -0.086158
O	 -2.041679	 -0.058866	 0.103463
C	 -0.959304	 0.780994	 -0.094939
C	 0.354905	 0.037902	 -0.006215
H	 -0.985899	 1.279578	 -1.057596
H	 -0.969809	 1.529522	 0.682889
F	 0.412060	 -0.931028	 -0.902708
F	 1.359641	 0.856111	 -0.239961
F	 0.545380	 -0.506387	 1.171682

	symmetry c1
}
set optking {
	frozen_dihedral = ("
		1 2 3 5
	")
}

ee = optimize('scf')
oeprop('DIPOLE', 'QUADRUPOLE', 'MULLIKEN_CHARGES')
f=open( 'psi4out.xyz', 'w' )
f.write( "9  " )
f.write( str(ee) + "\n" )
f.write( MOL.save_string_xyz() )
f.close()
--------------------------------------------------------------------------

    Molecular point group: c1
  Charge       = 0
  Multiplicity = 1
  Basis Set: CC-PVTZ
  Basis Set:
  @DF-RHF Final Energy:  -450.84297505349218
    Total Energy =                       -450.8429750534921823
    Molecular point group: c1
  Basis Set: CC-PVTZ
  Basis Set:
  Basis Set: CC-PVTZ
  Basis Set:
  @DF-RHF Final Energy:  -450.84427717799792
    Total Energy =                       -450.8442771779980376
  Basis Set: CC-PVTZ
  Basis Set:
  Basis Set: CC-PVTZ
  Basis Set:
  @DF-RHF Final Energy:  -450.84456556051475
    Total Energy =                       -450.8445655605145248
  Basis Set: CC-PVTZ
  Basis Set:
  Basis Set: CC-PVTZ
  Basis Set:
  @DF-RHF Final Energy:  -450.84457659074872
    Total Energy =                       -450.8445765907487726
  Basis Set: CC-PVTZ
  Basis Set:
  Charge       = 0
  Multiplicity = 1
  Basis Set: CC-PVTZ
  Basis Set:

    Orbital Energies (a.u.)
    -----------------------

    Doubly Occupied:

       1A    -26.333696     2A    -26.330081     3A    -26.330059
       4A    -20.582637     5A    -11.490898     6A    -11.310037
       7A     -1.741983     8A     -1.638180     9A     -1.636570
      10A     -1.406468    11A     -1.050817    12A     -0.923414
      13A     -0.833333    14A     -0.831583    15A     -0.788323
      16A     -0.738539    17A     -0.714220    18A     -0.704014
      19A     -0.673030    20A     -0.657346    21A     -0.643135
      22A     -0.641833    23A     -0.600492    24A     -0.530732
      25A     -0.483608

  @DF-RHF Final Energy:  -450.84457876199485

   => Energetics <=

    Nuclear Repulsion Energy =            277.8317018891630141
    One-Electron Energy =               -1178.1225066818062714
    Two-Electron Energy =                 449.4462260306484040
    DFT Exchange-Correlation Energy =       0.0000000000000000
    Empirical Dispersion Energy =           0.0000000000000000
    PCM Polarization Energy =               0.0000000000000000
    EFP Energy =                            0.0000000000000000
    Total Energy =                       -450.8445787619948533
    Molecular point group: c1
  Basis Set: CC-PVTZ
  Basis Set:

  -Total Gradient:
     Atom            X                  Y                   Z
    ------   -----------------  -----------------  -----------------
       1        0.000012107573    -0.000073064861    -0.000204782199
       2        0.000040865913     0.000239630861     0.000213443139
       3        0.000093595792    -0.000271101030    -0.000059805350
       4        0.000088563653     0.000191825754     0.000121066194
       5       -0.000148662760     0.000103801485     0.000069293550
       6       -0.000044194603     0.000000499563     0.000000997881
       7        0.000032289700    -0.000058774381    -0.000055530720
       8       -0.000058246169    -0.000122222447    -0.000029511911
       9       -0.000016319110    -0.000010594943    -0.000055170581

  **** Optimization is complete! (in 5 steps) ****
    Final optimized geometry and variables:
    Molecular point group: c1

    Geometry (in Angstrom), charge = 0, multiplicity = 1:

    H           -2.811187699846     0.324652871446    -0.095745393363
    O           -1.992225777766    -0.080698907366     0.121345146256
    C           -0.942926957919     0.797976575543    -0.100562193831
    C            0.350364139501     0.022777335258    -0.020678725367
    H           -0.981715288864     1.252812657152    -1.083756697366
    H           -0.895658196371     1.581640707513     0.647581463628
    F            0.421264291828    -0.915333506951    -0.936249444658
    F            1.365463001362     0.844035065028    -0.211298052331
    F            0.513544148084    -0.546758823294     1.150182913186

  Mulliken Charges: (a.u.)
   Center  Symbol    Alpha    Beta     Spin     Total
       1     H     0.39012  0.39012  0.00000  0.21977
       2     O     4.18501  4.18501  0.00000 -0.37001
       3     C     2.98602  2.98602  0.00000  0.02795
       4     C     2.67640  2.67640  0.00000  0.64721
       5     H     0.46510  0.46510  0.00000  0.06981
       6     H     0.46534  0.46534  0.00000  0.06932
       7     F     4.60904  4.60904  0.00000 -0.21808
       8     F     4.61423  4.61423  0.00000 -0.22846
       9     F     4.60875  4.60875  0.00000 -0.21751

   Total alpha = 25.00000, Total beta = 25.00000, Total charge =  0.00000
