                              Psi4 1.0.54 Driver

  ==> Input File <==

--------------------------------------------------------------------------
set {
	reference rhf
	basis cc-pvtz
}

set_num_threads( 4 )
memory 2 gb

molecule MOL {
0 1

O	 -2.817697	 1.304178	 0.001046
C	 -2.664672	 0.129869	 0.003507
C	 -3.797908	 -0.860100	 -0.001145
O	 -1.481217	 -0.452708	 0.001092
H	 -4.408836	 -0.679689	 -0.875387
H	 -3.443486	 -1.878443	 -0.002770
H	 -4.412123	 -0.683688	 0.871605
C	 -0.332055	 0.384012	 -0.000250
C	 0.892252	 -0.506059	 -0.000295
H	 -0.360822	 1.020205	 -0.874146
H	 -0.359817	 1.021310	 0.872861
C	 2.188199	 0.299473	 -0.001416
H	 0.857046	 -1.152781	 -0.871031
H	 0.857910	 -1.151798	 0.871202
C	 2.289584	 1.270254	 1.171798
H	 3.037077	 -0.379357	 0.022511
H	 2.268945	 0.854996	 -0.932463
C	 3.583940	 2.076262	 1.170392
H	 2.210790	 0.716092	 2.102793
H	 1.441904	 1.949223	 1.148849
H	 4.450211	 1.425748	 1.227409
H	 3.624198	 2.754669	 2.014578
H	 3.675517	 2.668189	 0.265909

	symmetry c1
}
set optking {
	frozen_dihedral = ("
		16 12 9 13
	")
}

ee,wfn = optimize('scf', return_wfn=True)
oeprop( wfn, 'DIPOLE', 'QUADRUPOLE', 'MULLIKEN_CHARGES')
f=open( 'psi4out.xyz', 'w' )
f.write( "23  " )
f.write( str(ee) + "\n" )
f.write( MOL.save_string_xyz() )
f.close()
--------------------------------------------------------------------------

    Molecular point group: c1
  Charge       = 0
  Multiplicity = 1
  Basis Set: CC-PVTZ
  Basis Set:
  @DF-RHF Final Energy:  -423.13148743328316
    Total Energy =                       -423.1314874332828140
    Molecular point group: c1
  Basis Set: CC-PVTZ
  Basis Set:
  Basis Set: CC-PVTZ
  Basis Set:
  @DF-RHF Final Energy:  -423.13144322996993
    Total Energy =                       -423.1314432299692498
  Basis Set: CC-PVTZ
  Basis Set:
  Basis Set: CC-PVTZ
  Basis Set:
  @DF-RHF Final Energy:  -423.13238236342630
    Total Energy =                       -423.1323823634265864
  Basis Set: CC-PVTZ
  Basis Set:
  Basis Set: CC-PVTZ
  Basis Set:
  @DF-RHF Final Energy:  -423.13181048784833
    Total Energy =                       -423.1318104878482700
  Basis Set: CC-PVTZ
  Basis Set:
  Basis Set: CC-PVTZ
  Basis Set:
  @DF-RHF Final Energy:  -423.13280332756273
    Total Energy =                       -423.1328033275622147
  Basis Set: CC-PVTZ
  Basis Set:
  Basis Set: CC-PVTZ
  Basis Set:
  @DF-RHF Final Energy:  -423.13283105704085
    Total Energy =                       -423.1328310570411304
  Basis Set: CC-PVTZ
  Basis Set:
  Basis Set: CC-PVTZ
  Basis Set:
  @DF-RHF Final Energy:  -423.13283840901084
    Total Energy =                       -423.1328384090104464
  Basis Set: CC-PVTZ
  Basis Set:
  Charge       = 0
  Multiplicity = 1
  Basis Set: CC-PVTZ
  Basis Set:

    Orbital Energies (a.u.)
    -----------------------

    Doubly Occupied:

       1A    -20.595739     2A    -20.529425     3A    -11.366283
       4A    -11.278800     5A    -11.230572     6A    -11.222576
       7A    -11.221475     8A    -11.219191     9A    -11.210765
      10A     -1.470997    11A     -1.363850    12A     -1.094954
      13A     -1.041263    14A     -1.003318    15A     -0.932247
      16A     -0.850948    17A     -0.790404    18A     -0.782026
      19A     -0.692399    20A     -0.687822    21A     -0.673165
      22A     -0.639214    23A     -0.612789    24A     -0.588308
      25A     -0.579641    26A     -0.573327    27A     -0.563499
      28A     -0.530299    29A     -0.528531    30A     -0.511181
      31A     -0.495764    32A     -0.476318    33A     -0.468872
      34A     -0.462389    35A     -0.453054    36A     -0.439275

  @DF-RHF Final Energy:  -423.13283892854224

   => Energetics <=

    Nuclear Repulsion Energy =            456.9630998895263474
    One-Electron Energy =               -1481.8305259202766138
    Two-Electron Energy =                 601.7345871022081383
    DFT Exchange-Correlation Energy =       0.0000000000000000
    Empirical Dispersion Energy =           0.0000000000000000
    PCM Polarization Energy =               0.0000000000000000
    EFP Energy =                            0.0000000000000000
    Total Energy =                       -423.1328389285421281
    Molecular point group: c1
  Basis Set: CC-PVTZ
  Basis Set:

  -Total Gradient:
     Atom            X                  Y                   Z
    ------   -----------------  -----------------  -----------------
       1       -0.000004778027    -0.000068127295    -0.000015069094
       2        0.000069245243    -0.000002695100     0.000016724917
       3       -0.000021168963     0.000023780995    -0.000000849156
       4       -0.000093161416     0.000043911369    -0.000033138201
       5        0.000016680763    -0.000004277871     0.000029467330
       6       -0.000007966112     0.000007335514    -0.000000074008
       7        0.000025276260    -0.000005462416    -0.000028984662
       8        0.000032175585     0.000021655713     0.000088654404
       9        0.000864629918    -0.001384493173     0.001409234866
      10       -0.000009248413    -0.000013777273    -0.000006896425
      11        0.000006058286    -0.000002006900    -0.000018924070
      12       -0.000176974981     0.000150012093    -0.002157818103
      13       -0.000702170052     0.001131058190    -0.000889018395
      14       -0.000007241049     0.000010303279    -0.000003252820
      15        0.000017694016    -0.000026052425     0.000026713871
      16       -0.000010035634     0.000119832534     0.001599403569
      17        0.000000527233    -0.000008093785    -0.000013164241
      18       -0.000001971746     0.000013323565    -0.000019134898
      19        0.000001411380     0.000024835696    -0.000016964893
      20        0.000055922306    -0.000034561294     0.000011685089
      21       -0.000054432536     0.000032874501    -0.000003102440
      22        0.000001034182     0.000000946265    -0.000009941637
      23       -0.000001506244    -0.000030322184     0.000034448995

  **** Optimization is complete! (in 8 steps) ****
    Final optimized geometry and variables:
    Molecular point group: c1

    Geometry (in Angstrom), charge = 0, multiplicity = 1:

    O           -2.619637090805     0.883732130629    -0.309382710643
    C           -2.447457346498    -0.287962923536    -0.322480098082
    C           -3.563252324489    -1.294935295769    -0.398320702105
    O           -1.256410090384    -0.851940193505    -0.272881131311
    H           -4.132897957565    -1.109855864920    -1.299073167579
    H           -3.193026830052    -2.307664451595    -0.397784183229
    H           -4.222603105814    -1.141712870235     0.445401905367
    C           -0.122540160128     0.002893842441    -0.196118379931
    C            1.108783398715    -0.879261857831    -0.135698209410
    H           -0.105833959857     0.644408357814    -1.067423092356
    H           -0.221506038036     0.631564862330     0.675523521849
    C            2.425402620422    -0.102765762096    -0.191053105669
    H            1.065234190705    -1.561427235946    -0.977686121175
    H            1.068228191720    -1.482044398714     0.765739792124
    C            2.624461062875     0.919808947822     0.928045180180
    H            3.237607713310    -0.821512453175    -0.140586809055
    H            2.513358766826     0.395549158908    -1.153025235322
    C            4.010931621561     1.554645083895     0.900755224405
    H            2.468813305980     0.435243713718     1.888464537389
    H            1.877915871722     1.703671696174     0.856585434673
    H            4.786746908548     0.806033710382     1.020748630370
    H            4.125396115302     2.280851266259     1.696966011136
    H            4.188371975377     2.065109222574    -0.039943102722

  Mulliken Charges: (a.u.)
   Center  Symbol    Alpha    Beta     Spin     Total
       1     O     4.20254  4.20254  0.00000 -0.40508
       2     C     2.81583  2.81583  0.00000  0.36835
       3     C     3.13965  3.13965  0.00000 -0.27929
       4     O     4.14581  4.14581  0.00000 -0.29161
       5     H     0.44214  0.44214  0.00000  0.11572
       6     H     0.44184  0.44184  0.00000  0.11631
       7     H     0.44222  0.44222  0.00000  0.11555
       8     C     2.97742  2.97742  0.00000  0.04516
       9     C     3.09121  3.09121  0.00000 -0.18242
      10     H     0.45381  0.45381  0.00000  0.09239
      11     H     0.45154  0.45154  0.00000  0.09692
      12     C     3.10414  3.10414  0.00000 -0.20828
      13     H     0.44493  0.44493  0.00000  0.11014
      14     H     0.44977  0.44977  0.00000  0.10045
      15     C     3.09055  3.09055  0.00000 -0.18110
      16     H     0.44719  0.44719  0.00000  0.10562
      17     H     0.45084  0.45084  0.00000  0.09832
      18     C     3.14917  3.14917  0.00000 -0.29834
      19     H     0.45246  0.45246  0.00000  0.09507
      20     H     0.45099  0.45099  0.00000  0.09802
      21     H     0.45441  0.45441  0.00000  0.09118
      22     H     0.44718  0.44718  0.00000  0.10565
      23     H     0.45437  0.45437  0.00000  0.09127

   Total alpha = 36.00000, Total beta = 36.00000, Total charge = -0.00000

*** Psi4 exiting successfully. Buy a developer a beer!
