  ==> Input File <==

--------------------------------------------------------------------------
set {
	reference rhf
	basis cc-pvtz
}

set_num_threads( 4 )
memory 2 gb

molecule MOL {
0 1

H	 1.289703	 -2.170069	 2.214422
O	 1.076834	 -1.913142	 1.329882
C	 0.082083	 -1.031651	 1.375330
C	 -0.318151	 -0.570512	 0.000144
O	 -0.400901	 -0.679792	 2.395570
C	 -1.454884	 0.441630	 -0.000560
H	 0.570608	 -0.165168	 -0.472818
H	 -0.578561	 -1.455835	 -0.571074
C	 -2.822577	 -0.232186	 0.000063
H	 -1.359760	 1.084704	 -0.867077
H	 -1.359641	 1.085996	 0.864983
H	 -2.954352	 -0.858985	 -0.875745
H	 -3.615886	 0.505352	 0.000019
H	 -2.953878	 -0.858359	 0.876394

	symmetry c1
}
set optking {
	frozen_dihedral = ("
		7 4 6 10
	")
}

ee = optimize('scf')
oeprop('DIPOLE', 'QUADRUPOLE', 'MULLIKEN_CHARGES')
f=open( 'psi4out.xyz', 'w' )
f.write( "14  " )
f.write( str(ee) + "\n" )
f.write( MOL.save_string_xyz() )
f.close()
--------------------------------------------------------------------------

    Molecular point group: c1
  Charge       = 0
  Multiplicity = 1
  Basis Set: CC-PVTZ
  Basis Set:
  @DF-RHF Final Energy:  -305.99911071369667
    Total Energy =                       -305.9991107136966093
    Molecular point group: c1
  Basis Set: CC-PVTZ
  Basis Set:
  Basis Set: CC-PVTZ
  Basis Set:
  @DF-RHF Final Energy:  -305.99932894246018
    Total Energy =                       -305.9993289424601244
  Basis Set: CC-PVTZ
  Basis Set:
  Basis Set: CC-PVTZ
  Basis Set:
  @DF-RHF Final Energy:  -305.99926440952402
    Total Energy =                       -305.9992644095241872
  Basis Set: CC-PVTZ
  Basis Set:
  Basis Set: CC-PVTZ
  Basis Set:
  @DF-RHF Final Energy:  -305.99935996368623
    Total Energy =                       -305.9993599636861745
  Basis Set: CC-PVTZ
  Basis Set:
  Basis Set: CC-PVTZ
  Basis Set:
  @DF-RHF Final Energy:  -305.99936141552297
    Total Energy =                       -305.9993614155229125
  Basis Set: CC-PVTZ
  Basis Set:
  Charge       = 0
  Multiplicity = 1
  Basis Set: CC-PVTZ
  Basis Set:

    Orbital Energies (a.u.)
    -----------------------

    Doubly Occupied:

       1A    -20.605102     2A    -20.541862     3A    -11.374961
       4A    -11.239714     5A    -11.223359     6A    -11.210413
       7A     -1.478911     8A     -1.370355     9A     -1.082283
      10A     -0.978266    11A     -0.862063    12A     -0.790293
      13A     -0.706256    14A     -0.696695    15A     -0.660952
      16A     -0.612657    17A     -0.599315    18A     -0.567185
      19A     -0.559195    20A     -0.495271    21A     -0.491709
      22A     -0.486600    23A     -0.480572    24A     -0.448277

  @DF-RHF Final Energy:  -305.99936172415335

   => Energetics <=

    Nuclear Repulsion Energy =            243.8844656713766597
    One-Electron Energy =                -900.6431212992305291
    Two-Electron Energy =                 350.7592939037001543
    DFT Exchange-Correlation Energy =       0.0000000000000000
    Empirical Dispersion Energy =           0.0000000000000000
    PCM Polarization Energy =               0.0000000000000000
    EFP Energy =                            0.0000000000000000
    Total Energy =                       -305.9993617241536867
    Molecular point group: c1
  Basis Set: CC-PVTZ
  Basis Set:

  -Total Gradient:
     Atom            X                  Y                   Z
    ------   -----------------  -----------------  -----------------
       1       -0.000003818634    -0.000003126646    -0.000003237526
       2        0.000015409122     0.000007095591     0.000008862020
       3       -0.000006817009    -0.000009948158    -0.000010581400
       4        0.001574092426     0.001896118656     0.003862154150
       5       -0.000020113421     0.000001096520    -0.000029500581
       6       -0.002276232029    -0.002744578938    -0.002729190053
       7       -0.000917356647    -0.001138833116    -0.002761324366
       8       -0.000016921349    -0.000010990238     0.000009504893
       9        0.000005476314     0.000007104863     0.000023468011
      10        0.001660564423     0.001989159394     0.001629171119
      11       -0.000007819137    -0.000001436354     0.000000839025
      12        0.000008658456     0.000008845703     0.000011158865
      13       -0.000017039692     0.000000425049    -0.000004608088
      14        0.000001917181    -0.000000932328    -0.000006716067

  **** Optimization is complete! (in 6 steps) ****
    Final optimized geometry and variables:
    Molecular point group: c1

    Geometry (in Angstrom), charge = 0, multiplicity = 1:

    H            1.902867158715    -1.490766149761     1.333124665382
    O            1.694472915409    -1.224314774026     0.450326126692
    C            0.703445324239    -0.339412491325     0.500830579025
    C            0.314886498337     0.137993300897    -0.872737708482
    O            0.217899926528     0.002835982147     1.523344669014
    C           -0.845351353788     1.131050397700    -0.892013048058
    H            1.202212461394     0.551082360741    -1.338942766084
    H            0.081856619422    -0.746927525937    -1.457081608508
    C           -2.216957432627     0.466501334563    -0.873666861384
    H           -0.743478488570     1.763264714519    -1.766927905744
    H           -0.754013736771     1.788089816836    -0.036349093846
    H           -2.358412740889    -0.165366028590    -1.744561811047
    H           -3.005681359142     1.209347155802    -0.872309149146
    H           -2.338811148631    -0.146480506530     0.011342552196

  Mulliken Charges: (a.u.)
   Center  Symbol    Alpha    Beta     Spin     Total
       1     H     0.38234  0.38234  0.00000  0.23533
       2     O     4.15963  4.15963  0.00000 -0.31927
       3     C     2.80312  2.80312  0.00000  0.39376
       4     C     3.11282  3.11282  0.00000 -0.22565
       5     O     4.19232  4.19232  0.00000 -0.38464
       6     C     3.08589  3.08589  0.00000 -0.17178
       7     H     0.43058  0.43058  0.00000  0.13884
       8     H     0.43960  0.43960  0.00000  0.12079
       9     C     3.14917  3.14917  0.00000 -0.29835
      10     H     0.44729  0.44729  0.00000  0.10543
      11     H     0.44447  0.44447  0.00000  0.11107
      12     H     0.45769  0.45769  0.00000  0.08462
      13     H     0.44782  0.44782  0.00000  0.10436
      14     H     0.44726  0.44726  0.00000  0.10549

   Total alpha = 24.00000, Total beta = 24.00000, Total charge = -0.00000
