  ==> Input File <==

--------------------------------------------------------------------------
set {
	reference rhf
	basis 6-31G*
}

set_num_threads( 4 )
memory 2 gb

molecule MOL {
0 1

H	 -2.798360	 -0.862255	 -0.071053
N	 -1.863561	 -0.715187	 0.256814
C	 -1.344686	 0.554728	 -0.219830
H	 -1.300452	 -1.461917	 -0.101532
C	 -2.281882	 1.140315	 -1.255151
H	 -1.199409	 1.293595	 0.569456
H	 -0.379454	 0.382138	 -0.686007
O	 -3.498456	 1.433240	 -0.629667
H	 -1.852658	 2.046535	 -1.681965
H	 -2.433789	 0.422724	 -2.058409
C	 -4.487773	 1.902315	 -1.489196
H	 -5.372662	 2.093654	 -0.897539
H	 -4.185067	 2.826887	 -1.977578
H	 -4.727993	 1.169336	 -2.256558

	symmetry c1
}
set optking {
	frozen_dihedral = ("
		6 3 2 4
	")
}

ee = optimize('scf')
oeprop('DIPOLE', 'QUADRUPOLE', 'MULLIKEN_CHARGES')
f=open( 'psi4out.xyz', 'w' )
f.write( "14  " )
f.write( str(ee) + "\n" )
f.write( MOL.save_string_xyz() )
f.close()
--------------------------------------------------------------------------

    Molecular point group: c1
  Charge       = 0
  Multiplicity = 1
  Basis Set: 6-31G*
  Basis Set:
  @DF-RHF Final Energy:  -248.11761626492691
    Total Energy =                       -248.1176162649269941
    Molecular point group: c1
  Basis Set: 6-31G*
  Basis Set:
  Basis Set: 6-31G*
  Basis Set:
  @DF-RHF Final Energy:  -248.11983700392827
    Total Energy =                       -248.1198370039281826
  Basis Set: 6-31G*
  Basis Set:
  Basis Set: 6-31G*
  Basis Set:
  @DF-RHF Final Energy:  -248.12027142928775
    Total Energy =                       -248.1202714292878113
  Basis Set: 6-31G*
  Basis Set:
  Basis Set: 6-31G*
  Basis Set:
  @DF-RHF Final Energy:  -248.12029901729824
    Total Energy =                       -248.1202990172982936
  Basis Set: 6-31G*
  Basis Set:
  Charge       = 0
  Multiplicity = 1
  Basis Set: 6-31G*
  Basis Set:

    Orbital Energies (a.u.)
    -----------------------

    Doubly Occupied:

       1A    -20.560749     2A    -15.523575     3A    -11.270205
       4A    -11.269200     5A    -11.241044     6A     -1.385294
       7A     -1.169014     8A     -1.000132     9A     -0.910182
      10A     -0.821428    11A     -0.685419    12A     -0.674734
      13A     -0.649519    14A     -0.621014    15A     -0.589438
      16A     -0.562571    17A     -0.518830    18A     -0.499081
      19A     -0.481196    20A     -0.420740    21A     -0.368800

  @DF-RHF Final Energy:  -248.12030267354777

   => Energetics <=

    Nuclear Repulsion Energy =            194.3531301626925938
    One-Electron Energy =                -722.5025398735184581
    Two-Electron Energy =                 280.0291070372780382
    DFT Exchange-Correlation Energy =       0.0000000000000000
    Empirical Dispersion Energy =           0.0000000000000000
    PCM Polarization Energy =               0.0000000000000000
    EFP Energy =                            0.0000000000000000
    Total Energy =                       -248.1203026735478829
    Molecular point group: c1
  Basis Set: 6-31G*
  Basis Set:

  -Total Gradient:
     Atom            X                  Y                   Z
    ------   -----------------  -----------------  -----------------
       1        0.000007530702     0.000029303630    -0.000014079815
       2       -0.003016914070    -0.000900618756    -0.004301897990
       3       -0.004227678884     0.001894217745     0.000550396203
       4        0.003159031146     0.000457147236     0.003472991829
       5       -0.000075249084    -0.000132763839     0.000125705676
       6        0.004003935508    -0.001459570165     0.000244664139
       7        0.000061438911     0.000020281004    -0.000040209874
       8        0.000010811305     0.000053204788    -0.000060686957
       9        0.000033627814     0.000040835751    -0.000024079674
      10        0.000066596441    -0.000003660098     0.000016524721
      11       -0.000043895313     0.000035526452     0.000022717430
      12       -0.000006335060    -0.000004920610    -0.000009665977
      13        0.000009248507    -0.000016471909     0.000009279072
      14        0.000017852074    -0.000012511233     0.000008341217

  **** Optimization is complete! (in 5 steps) ****
    Final optimized geometry and variables:
    Molecular point group: c1

    Geometry (in Angstrom), charge = 0, multiplicity = 1:

    H           -0.090960485143    -1.666409218059     0.887571531221
    N            0.894984425568    -1.552806501316     0.994752612586
    C            1.373106706807    -0.302490961747     0.432133963377
    H            1.380869140336    -2.349156453610     0.642204115166
    C            0.430183898953     0.320464460311    -0.581154996717
    H            1.576976976064     0.406047209635     1.229395493598
    H            2.326076937088    -0.472696377535    -0.062445111776
    O           -0.812285610621     0.518523657528     0.025180027890
    H            0.834364078917     1.268750312788    -0.935797132356
    H            0.322023487906    -0.337901769421    -1.444099505067
    C           -1.781607837649     1.062894177572    -0.812770277478
    H           -2.691710757337     1.164624164052    -0.237873748195
    H           -1.484661629638     2.043662891933    -1.178979210540
    H           -1.974815745330     0.419263690636    -1.669158609609

  Mulliken Charges: (a.u.)
   Center  Symbol    Alpha    Beta     Spin     Total
       1     H     0.32036  0.32036  0.00000  0.35928
       2     N     3.93502  3.93502  0.00000 -0.87004
       3     C     3.05661  3.05661  0.00000 -0.11322
       4     H     0.33139  0.33139  0.00000  0.33722
       5     C     2.99925  2.99925  0.00000  0.00150
       6     H     0.41386  0.41386  0.00000  0.17228
       7     H     0.42551  0.42551  0.00000  0.14898
       8     O     4.30513  4.30513  0.00000 -0.61027
       9     H     0.43012  0.43012  0.00000  0.13976
      10     H     0.43399  0.43399  0.00000  0.13201
      11     C     3.07954  3.07954  0.00000 -0.15907
      12     H     0.41064  0.41064  0.00000  0.17872
      13     H     0.42862  0.42862  0.00000  0.14275
      14     H     0.42995  0.42995  0.00000  0.14010

   Total alpha = 21.00000, Total beta = 21.00000, Total charge = -0.00000
