  ==> Input File <==

--------------------------------------------------------------------------
set {
	reference rhf
	basis 6-31G*
}

set_num_threads( 4 )
memory 2 gb

molecule MOL {
0 1

H	 -3.420663	 1.227371	 -1.044276
O	 -3.452007	 0.283848	 -0.965577
C	 -3.181085	 -0.079926	 0.364119
C	 -1.765924	 0.277073	 0.805136
H	 -3.327791	 -1.152017	 0.410903
H	 -3.905698	 0.375695	 1.036898
C	 -1.289990	 1.635525	 0.288790
H	 -1.719195	 0.261066	 1.894412
H	 -1.092522	 -0.506368	 0.461668
C	 0.122378	 1.993968	 0.755602
H	 -1.987775	 2.403102	 0.609151
H	 -1.319939	 1.631124	 -0.799547
C	 0.594080	 3.352369	 0.229930
H	 0.147932	 1.987031	 1.842671
H	 0.818497	 1.222403	 0.428940
C	 2.037095	 3.716671	 0.597550
H	 -0.075537	 4.130598	 0.592791
H	 0.502970	 3.356450	 -0.854275
C	 2.277779	 3.929992	 2.093201
H	 2.307760	 4.627068	 0.068203
H	 2.708052	 2.942461	 0.230645
H	 1.611304	 4.690813	 2.490821
H	 3.296911	 4.256241	 2.276966
H	 2.120098	 3.020913	 2.664056

	symmetry c1
}
set optking {
	frozen_dihedral = ("
		7 4 3 2
	")
}

ee = optimize('scf')
oeprop('DIPOLE', 'QUADRUPOLE', 'MULLIKEN_CHARGES')
f=open( 'psi4out.xyz', 'w' )
f.write( "24  " )
f.write( str(ee) + "\n" )
f.write( MOL.save_string_xyz() )
f.close()
--------------------------------------------------------------------------

    Molecular point group: c1
  Charge       = 0
  Multiplicity = 1
  Basis Set: 6-31G*
  Basis Set:
  @DF-RHF Final Energy:  -349.24417318984973
    Total Energy =                       -349.2441731898499597
    Molecular point group: c1
  Basis Set: 6-31G*
  Basis Set:
  Basis Set: 6-31G*
  Basis Set:
  @DF-RHF Final Energy:  -349.24448729221160
    Total Energy =                       -349.2444872922116019
  Basis Set: 6-31G*
  Basis Set:
  Basis Set: 6-31G*
  Basis Set:
  @DF-RHF Final Energy:  -349.24479208732936
    Total Energy =                       -349.2447920873293015
  Basis Set: 6-31G*
  Basis Set:
  Basis Set: 6-31G*
  Basis Set:
  @DF-RHF Final Energy:  -349.24479625919059
    Total Energy =                       -349.2447962591905934
  Basis Set: 6-31G*
  Basis Set:
  Basis Set: 6-31G*
  Basis Set:
  @DF-RHF Final Energy:  -349.24480191822727
    Total Energy =                       -349.2448019182272674
  Basis Set: 6-31G*
  Basis Set:
  Basis Set: 6-31G*
  Basis Set:
  @DF-RHF Final Energy:  -349.24480295806461
    Total Energy =                       -349.2448029580647813
  Basis Set: 6-31G*
  Basis Set:
  Charge       = 0
  Multiplicity = 1
  Basis Set: 6-31G*
  Basis Set:

    Orbital Energies (a.u.)
    -----------------------

    Doubly Occupied:

       1A    -20.552358     2A    -11.267701     3A    -11.219233
       4A    -11.216488     5A    -11.216183     6A    -11.216064
       7A    -11.215109     8A    -11.209305     9A     -1.359661
      10A     -1.091716    11A     -1.049151    12A     -0.986936
      13A     -0.919675    14A     -0.853868    15A     -0.794583
      16A     -0.779988    17A     -0.694447    18A     -0.650139
      19A     -0.625633    20A     -0.609973    21A     -0.604506
      22A     -0.588434    23A     -0.562061    24A     -0.539272
      25A     -0.521587    26A     -0.512863    27A     -0.490451
      28A     -0.486868    29A     -0.470375    30A     -0.462321
      31A     -0.456397    32A     -0.444956    33A     -0.421987

  @DF-RHF Final Energy:  -349.24480228488636

   => Energetics <=

    Nuclear Repulsion Energy =            385.1868890671153736
    One-Electron Energy =               -1236.6828013687934344
    Two-Electron Energy =                 502.2511100167917562
    DFT Exchange-Correlation Energy =       0.0000000000000000
    Empirical Dispersion Energy =           0.0000000000000000
    PCM Polarization Energy =               0.0000000000000000
    EFP Energy =                            0.0000000000000000
    Total Energy =                       -349.2448022848863616
    Molecular point group: c1
  Basis Set: 6-31G*
  Basis Set:

  -Total Gradient:
     Atom            X                  Y                   Z
    ------   -----------------  -----------------  -----------------
       1       -0.000002032789    -0.000021316171    -0.000006307579
       2       -0.001362068146     0.003839878989     0.001410151301
       3        0.002356890203    -0.005966471400    -0.003277449127
       4       -0.002350447468     0.003797200193     0.005191814781
       5       -0.000000572819     0.000010134267     0.000011454975
       6       -0.000010185419     0.000007682934    -0.000014425200
       7        0.001384581794    -0.001749179187    -0.003339058915
       8        0.000003316885    -0.000012239953    -0.000000289639
       9        0.000001374789     0.000034277837    -0.000005725309
      10       -0.000014160880    -0.000010051071    -0.000013604488
      11       -0.000017480320     0.000043048107     0.000006953052
      12        0.000026701064     0.000005383200     0.000019005160
      13       -0.000002577268     0.000029302176     0.000032175519
      14       -0.000020567274    -0.000006200991    -0.000036070448
      15       -0.000004613843    -0.000019771878    -0.000001122237
      16       -0.000003690506    -0.000031265093     0.000011378559
      17       -0.000003415500     0.000000761893     0.000021526325
      18        0.000009819196     0.000026324820     0.000002302844
      19        0.000007594845     0.000024265841    -0.000000328170
      20        0.000003761035    -0.000010918705    -0.000019913238
      21       -0.000013424912    -0.000019449721     0.000017576151
      22       -0.000011759164    -0.000002154485     0.000008567507
      23       -0.000004268120     0.000013395699    -0.000007042901
      24        0.000027224621     0.000017362698    -0.000011568925

  **** Optimization is complete! (in 7 steps) ****
    Final optimized geometry and variables:
    Molecular point group: c1

    Geometry (in Angstrom), charge = 0, multiplicity = 1:

    H           -2.961291307536    -0.647015586276    -1.499230873626
    O           -2.890483986766    -1.588669749648    -1.444134539386
    C           -2.552731644370    -1.955808210793    -0.131400152651
    C           -1.116113809663    -1.597822727029     0.266814737169
    H           -2.701265574296    -3.025358178860    -0.068305312874
    H           -3.249772617881    -1.493753929970     0.566845187431
    C           -0.640908931385    -0.235571367549    -0.243254159175
    H           -1.040861160781    -1.641807062311     1.351139697892
    H           -0.440971525179    -2.356898087868    -0.121572120077
    C            0.762685808934     0.126239276591     0.247361249406
    H           -1.336421021541     0.543519926867     0.073628761511
    H           -0.650107206589    -0.240876483014    -1.328793963378
    C            1.247829214077     1.478014698518    -0.283044023690
    H            0.768368686104     0.128267638576     1.334163891383
    H            1.459754302422    -0.651123880939    -0.061566042098
    C            2.685035031007     1.840993470665     0.107871311810
    H            0.574993582085     2.262661037544     0.060187369011
    H            1.177132619045     1.471468514727    -1.368804961720
    C            2.896545936568     2.077244773480     1.604446711874
    H            2.970892061828     2.741200050724    -0.430640594632
    H            3.358670441590     1.057494394376    -0.233121198003
    H            2.225118107569     2.846475352357     1.976787490148
    H            3.912921451323     2.403201371279     1.802966287795
    H            2.724638430251     1.177900655142     2.186398165018

  Mulliken Charges: (a.u.)
   Center  Symbol    Alpha    Beta     Spin     Total
       1     H     0.27909  0.27909  0.00000  0.44181
       2     O     4.37010  4.37010  0.00000 -0.74019
       3     C     2.99664  2.99664  0.00000  0.00672
       4     C     3.16385  3.16385  0.00000 -0.32771
       5     H     0.41408  0.41408  0.00000  0.17184
       6     H     0.43192  0.43192  0.00000  0.13617
       7     C     3.16473  3.16473  0.00000 -0.32947
       8     H     0.42282  0.42282  0.00000  0.15435
       9     H     0.41797  0.41797  0.00000  0.16405
      10     C     3.15280  3.15280  0.00000 -0.30560
      11     H     0.42954  0.42954  0.00000  0.14091
      12     H     0.41436  0.41436  0.00000  0.17128
      13     C     3.15274  3.15274  0.00000 -0.30547
      14     H     0.42139  0.42139  0.00000  0.15722
      15     H     0.42225  0.42225  0.00000  0.15551
      16     C     3.15252  3.15252  0.00000 -0.30504
      17     H     0.42498  0.42498  0.00000  0.15004
      18     H     0.42184  0.42184  0.00000  0.15632
      19     C     3.24123  3.24123  0.00000 -0.48246
      20     H     0.42079  0.42079  0.00000  0.15843
      21     H     0.42280  0.42280  0.00000  0.15439
      22     H     0.42250  0.42250  0.00000  0.15500
      23     H     0.41896  0.41896  0.00000  0.16209
      24     H     0.42010  0.42010  0.00000  0.15980

   Total alpha = 33.00000, Total beta = 33.00000, Total charge =  0.00000
