  ==> Input File <==

--------------------------------------------------------------------------
set {
	reference rhf
	basis cc-pvtz
}

set_num_threads( 4 )
memory 2 gb

molecule MOL {
0 1

H	 -1.835082	 1.385983	 0.000069
C	 -1.300516	 0.441153	 -0.000028
O	 -0.006604	 0.654344	 -0.000106
O	 -1.828920	 -0.612308	 0.000113
C	 0.682693	 0.546065	 1.242056
C	 2.143046	 0.832898	 0.985544
H	 0.534853	 -0.448603	 1.637955
H	 0.254575	 1.249881	 1.941572
H	 2.557309	 0.123210	 0.280775
H	 2.697328	 0.758496	 1.913493
H	 2.275624	 1.830229	 0.585890

	symmetry c1
}
set optking {
	frozen_dihedral = ("
		5 3 2 4
	")
}

ee = optimize('scf')
oeprop('DIPOLE', 'QUADRUPOLE', 'MULLIKEN_CHARGES')
f=open( 'psi4out.xyz', 'w' )
f.write( "11  " )
f.write( str(ee) + "\n" )
f.write( MOL.save_string_xyz() )
f.close()
--------------------------------------------------------------------------

    Molecular point group: c1
  Charge       = 0
  Multiplicity = 1
  Basis Set: CC-PVTZ
  Basis Set:
  @DF-RHF Final Energy:  -266.91260638511903
    Total Energy =                       -266.9126063851190338
    Molecular point group: c1
  Basis Set: CC-PVTZ
  Basis Set:
  Basis Set: CC-PVTZ
  Basis Set:
  @DF-RHF Final Energy:  -266.91085179002914
    Total Energy =                       -266.9108517900293123
  Basis Set: CC-PVTZ
  Basis Set:
  Basis Set: CC-PVTZ
  Basis Set:
  @DF-RHF Final Energy:  -266.91331111724088
    Total Energy =                       -266.9133111172410509
  Basis Set: CC-PVTZ
  Basis Set:
  Basis Set: CC-PVTZ
  Basis Set:
  @DF-RHF Final Energy:  -266.91382687817145
    Total Energy =                       -266.9138268781713350
  Basis Set: CC-PVTZ
  Basis Set:
  Basis Set: CC-PVTZ
  Basis Set:
  @DF-RHF Final Energy:  -266.91383611586298
    Total Energy =                       -266.9138361158628641
  Basis Set: CC-PVTZ
  Basis Set:
  Basis Set: CC-PVTZ
  Basis Set:
  @DF-RHF Final Energy:  -266.91384115528433
    Total Energy =                       -266.9138411552843309
  Basis Set: CC-PVTZ
  Basis Set:
  Charge       = 0
  Multiplicity = 1
  Basis Set: CC-PVTZ
  Basis Set:

    Orbital Energies (a.u.)
    -----------------------

    Doubly Occupied:

       1A    -20.585538     2A    -20.559885     3A    -11.373590
       4A    -11.298371     5A    -11.226311     6A     -1.469933
       7A     -1.381030     8A     -1.049774     9A     -0.890435
      10A     -0.824104    11A     -0.743279    12A     -0.692524
      13A     -0.652249    14A     -0.638476    15A     -0.563858
      16A     -0.542590    17A     -0.535396    18A     -0.508036
      19A     -0.467238    20A     -0.455521

  @DF-RHF Final Energy:  -266.91384143420032

   => Energetics <=

    Nuclear Repulsion Energy =            177.6082247399974392
    One-Electron Energy =                -716.1278596669392300
    Two-Electron Energy =                 271.6057934927413271
    DFT Exchange-Correlation Energy =       0.0000000000000000
    Empirical Dispersion Energy =           0.0000000000000000
    PCM Polarization Energy =               0.0000000000000000
    EFP Energy =                            0.0000000000000000
    Total Energy =                       -266.9138414342004353
    Molecular point group: c1
  Basis Set: CC-PVTZ
  Basis Set:

  -Total Gradient:
     Atom            X                  Y                   Z
    ------   -----------------  -----------------  -----------------
       1        0.000004774336    -0.000013607768    -0.000015822835
       2       -0.000214754347     0.001115219735     0.005894672328
       3        0.000800549102    -0.003993782847    -0.002647456521
       4       -0.000055707452     0.000145958168    -0.003740334542
       5       -0.000507508165     0.002741597960     0.000590416172
       6        0.000006381089    -0.000002082673    -0.000036697794
       7       -0.000009213559    -0.000006531189    -0.000024744743
       8       -0.000019541942     0.000008883020    -0.000012285604
       9        0.000011074289    -0.000000395102    -0.000003288000
      10       -0.000022206573     0.000000292771    -0.000002934286
      11        0.000006153220     0.000004447924    -0.000001524176

  **** Optimization is complete! (in 7 steps) ****
    Final optimized geometry and variables:
    Molecular point group: c1

    Geometry (in Angstrom), charge = 0, multiplicity = 1:

    H           -1.855041653408     0.983368248151    -0.467867407261
    C           -1.262413126851     0.070669489803    -0.437938093001
    O            0.051933849589     0.309481333410    -0.447167217643
    O           -1.743073172814    -0.997865846404    -0.456688101798
    C            0.741142691355     0.180423195220     0.790842634168
    C            2.206135580310     0.448131775420     0.543803101743
    H            0.585001833728    -0.818068376216     1.178284518682
    H            0.333269198275     0.893285048512     1.500422362788
    H            2.606842494108    -0.265036824209    -0.164492779237
    H            2.756731550939     0.360840020024     1.472977792242
    H            2.351404231074     1.445227791342     0.148571060461

  Mulliken Charges: (a.u.)
   Center  Symbol    Alpha    Beta     Spin     Total
       1     H     0.46265  0.46265  0.00000  0.07470
       2     C     2.83786  2.83786  0.00000  0.32427
       3     O     4.16108  4.16108  0.00000 -0.32216
       4     O     4.16613  4.16613  0.00000 -0.33226
       5     C     2.96764  2.96764  0.00000  0.06472
       6     C     3.13433  3.13433  0.00000 -0.26866
       7     H     0.45298  0.45298  0.00000  0.09403
       8     H     0.46523  0.46523  0.00000  0.06955
       9     H     0.44640  0.44640  0.00000  0.10721
      10     H     0.45593  0.45593  0.00000  0.08815
      11     H     0.44977  0.44977  0.00000  0.10046

   Total alpha = 20.00000, Total beta = 20.00000, Total charge = -0.00000
