  ==> Input File <==

--------------------------------------------------------------------------
set {
	reference rhf
	basis 6-31G*
}

set_num_threads( 1 )
memory 2 gb

molecule MOL {
0 1

O	 3.225979	 0.970355	 -0.599647
C	 2.701189	 0.057885	 -0.047330
C	 1.245376	 -0.013843	 0.345420
O	 3.347903	 -1.046386	 0.304773
C	 0.600141	 1.360412	 0.510372
H	 0.741890	 -0.612008	 -0.406839
H	 1.187420	 -0.586437	 1.267631
C	 -0.847454	 1.306524	 1.010431
H	 0.643094	 1.892582	 -0.435181
H	 1.195336	 1.940361	 1.207383
C	 -1.844508	 0.676056	 0.033955
H	 -1.167561	 2.323388	 1.225469
H	 -0.883797	 0.772290	 1.958736
C	 -3.289642	 0.745407	 0.531726
H	 -1.771033	 1.181021	 -0.928038
H	 -1.585013	 -0.364618	 -0.146687
C	 -4.294204	 0.113700	 -0.433642
H	 -3.561830	 1.785612	 0.702374
H	 -3.361595	 0.249970	 1.498713
C	 -5.735407	 0.190522	 0.069084
H	 -4.222930	 0.606935	 -1.400741
H	 -4.026321	 -0.927287	 -0.602060
H	 -6.423341	 -0.265233	 -0.636354
H	 -6.045514	 1.221519	 0.214249
H	 -5.847145	 -0.324014	 1.019369
C	 4.728119	 -1.109107	 -0.004993
H	 4.882018	 -1.033965	 -1.071845
H	 5.068212	 -2.067527	 0.355250
H	 5.265056	 -0.311663	 0.488280

	symmetry c1
}
set optking {
	frozen_dihedral = ("
		21 17 14 11,
		17 14 11 15,
		15 11 8 5,
		6 3 5 9,
		11 8 5 9,
		2 4 26 27,
		1 2 4 26
	")
}

ee = energy('scf')
oeprop('DIPOLE', 'QUADRUPOLE', 'MULLIKEN_CHARGES')
f=open( 'psi4out.xyz', 'w' )
f.write( "29  " )
f.write( str(ee) + "\n" )
f.write( MOL.save_string_xyz() )
f.close()
--------------------------------------------------------------------------

    Molecular point group: c1

    Geometry (in Angstrom), charge = 0, multiplicity = 1:

       Center              X                  Y                   Z               Mass
    ------------   -----------------  -----------------  -----------------  -----------------
           O          3.199145958949     0.690596656334    -0.750201112493    15.994914619560
           C          2.674355958949    -0.221873343666    -0.197884112493    12.000000000000
           C          1.218542958949    -0.293601343666     0.194865887507    12.000000000000
           O          3.321069958949    -1.326144343666     0.154218887507    15.994914619560
           C          0.573307958949     1.080653656334     0.359817887507    12.000000000000
           H          0.715056958949    -0.891766343666    -0.557393112493     1.007825032070
           H          1.160586958949    -0.866195343666     1.117076887507     1.007825032070
           C         -0.874287041051     1.026765656334     0.859876887507    12.000000000000
           H          0.616260958949     1.612823656334    -0.585735112493     1.007825032070
           H          1.168502958949     1.660602656334     1.056828887507     1.007825032070
           C         -1.871341041051     0.396297656334    -0.116599112493    12.000000000000
           H         -1.194394041051     2.043629656334     1.074914887507     1.007825032070
           H         -0.910630041051     0.492531656334     1.808181887507     1.007825032070
           C         -3.316475041051     0.465648656334     0.381171887507    12.000000000000
           H         -1.797866041051     0.901262656334    -1.078592112493     1.007825032070
           H         -1.611846041051    -0.644376343666    -0.297241112493     1.007825032070
           C         -4.321037041051    -0.166058343666    -0.584196112493    12.000000000000
           H         -3.588663041051     1.505853656334     0.551819887507     1.007825032070
           H         -3.388428041051    -0.029788343666     1.348158887507     1.007825032070
           C         -5.762240041051    -0.089236343666    -0.081470112493    12.000000000000
           H         -4.249763041051     0.327176656334    -1.551295112493     1.007825032070
           H         -4.053154041051    -1.207045343666    -0.752614112493     1.007825032070
           H         -6.450174041051    -0.544991343666    -0.786908112493     1.007825032070
           H         -6.072347041051     0.941760656334     0.063694887507     1.007825032070
           H         -5.873978041051    -0.603772343666     0.868814887507     1.007825032070
           C          4.701285958949    -1.388865343666    -0.155547112493    12.000000000000
           H          4.855184958949    -1.313723343666    -1.222399112493     1.007825032070
           H          5.041378958949    -2.347285343666     0.204695887507     1.007825032070
           H          5.238222958949    -0.591421343666     0.337725887507     1.007825032070

  Charge       = 0
  Multiplicity = 1
  Basis Set: 6-31G*
  Basis Set:

    Orbital Energies (a.u.)
    -----------------------

    Doubly Occupied:

       1A    -20.603864     2A    -20.544480     3A    -11.371819
       4A    -11.280501     5A    -11.234205     6A    -11.220688
       7A    -11.218291     8A    -11.216288     9A    -11.215938
      10A    -11.214655    11A    -11.209108    12A     -1.469027
      13A     -1.362211    14A     -1.098503    15A     -1.067042
      16A     -1.019571    17A     -0.977216    18A     -0.928774
      19A     -0.862061    20A     -0.799410    21A     -0.790685
      22A     -0.764710    23A     -0.700129    24A     -0.681961
      25A     -0.671965    26A     -0.651272    27A     -0.628740
      28A     -0.604368    29A     -0.593917    30A     -0.580610
      31A     -0.570210    32A     -0.545631    33A     -0.535672
      34A     -0.530392    35A     -0.517003    36A     -0.511385
      37A     -0.496121    38A     -0.477577    39A     -0.470131
      40A     -0.462317    41A     -0.459073    42A     -0.456209
      43A     -0.443527    44A     -0.432826

  @DF-RHF Final Energy:  -501.04351163254682

   => Energetics <=

    Nuclear Repulsion Energy =            609.9704075719505454
    One-Electron Energy =               -1891.0476031985183454
    Two-Electron Energy =                 780.0336839940213167
    DFT Exchange-Correlation Energy =       0.0000000000000000
    Empirical Dispersion Energy =           0.0000000000000000
    PCM Polarization Energy =               0.0000000000000000
    EFP Energy =                            0.0000000000000000
    Total Energy =                       -501.0435116325464833

  Mulliken Charges: (a.u.)
   Center  Symbol    Alpha    Beta     Spin     Total
       1     O     4.28611  4.28611  0.00000 -0.57222
       2     C     2.60447  2.60447  0.00000  0.79106
       3     C     3.21030  3.21030  0.00000 -0.42060
       4     O     4.30682  4.30682  0.00000 -0.61364
       5     C     3.15559  3.15559  0.00000 -0.31118
       6     H     0.39791  0.39791  0.00000  0.20418
       7     H     0.40176  0.40176  0.00000  0.19649
       8     C     3.15615  3.15615  0.00000 -0.31230
       9     H     0.40846  0.40846  0.00000  0.18308
      10     H     0.41335  0.41335  0.00000  0.17330
      11     C     3.15515  3.15515  0.00000 -0.31031
      12     H     0.41823  0.41823  0.00000  0.16353
      13     H     0.42359  0.42359  0.00000  0.15281
      14     C     3.15035  3.15035  0.00000 -0.30071
      15     H     0.42192  0.42192  0.00000  0.15616
      16     H     0.42375  0.42375  0.00000  0.15250
      17     C     3.15150  3.15150  0.00000 -0.30301
      18     H     0.42330  0.42330  0.00000  0.15340
      19     H     0.42395  0.42395  0.00000  0.15209
      20     C     3.23937  3.23937  0.00000 -0.47874
      21     H     0.42262  0.42262  0.00000  0.15476
      22     H     0.42342  0.42342  0.00000  0.15316
      23     H     0.41917  0.41917  0.00000  0.16167
      24     H     0.42154  0.42154  0.00000  0.15693
      25     H     0.42185  0.42185  0.00000  0.15631
      26     C     3.09278  3.09278  0.00000 -0.18556
      27     H     0.40912  0.40912  0.00000  0.18175
      28     H     0.40852  0.40852  0.00000  0.18296
      29     H     0.40893  0.40893  0.00000  0.18213

   Total alpha = 44.00000, Total beta = 44.00000, Total charge =  0.00000
