  ==> Input File <==

--------------------------------------------------------------------------
set {
	reference rhf
	basis 6-31G*
}

set_num_threads( 4 )
memory 2 gb

molecule MOL {
0 1

H	 -0.367348	 2.047014	 -0.308205
C	 0.352277	 1.337084	 0.083769
N	 -0.000016	 0.000074	 -0.335546
H	 1.328359	 1.600444	 -0.307950
H	 0.381933	 1.450534	 1.172486
C	 -1.049296	 0.004770	 -1.329154
C	 1.154608	 -0.750603	 -0.773135
H	 -1.335734	 -1.013605	 -1.566257
H	 -1.922837	 0.514978	 -0.939184
H	 -0.754974	 0.499826	 -2.260378
H	 1.889748	 -0.791957	 0.022624
H	 0.863550	 -1.767383	 -1.011632
H	 1.635936	 -0.319382	 -1.657047

	symmetry c1
}
set optking {
	frozen_dihedral = ("
		6 3 2 1
	")
}

ee = optimize('scf')
oeprop('DIPOLE', 'QUADRUPOLE', 'MULLIKEN_CHARGES')
f=open( 'psi4out.xyz', 'w' )
f.write( "13  " )
f.write( str(ee) + "\n" )
f.write( MOL.save_string_xyz() )
f.close()
--------------------------------------------------------------------------

    Molecular point group: c1
  Charge       = 0
  Multiplicity = 1
  Basis Set: 6-31G*
  Basis Set:
  @DF-RHF Final Energy:  -173.26235386226477
    Total Energy =                       -173.2623538622647743
    Molecular point group: c1
  Basis Set: 6-31G*
  Basis Set:
  Basis Set: 6-31G*
  Basis Set:
  @DF-RHF Final Energy:  -173.26327575075709
    Total Energy =                       -173.2632757507571171
  Basis Set: 6-31G*
  Basis Set:
  Basis Set: 6-31G*
  Basis Set:
  @DF-RHF Final Energy:  -173.26347509953442
    Total Energy =                       -173.2634750995344461
  Basis Set: 6-31G*
  Basis Set:
  Basis Set: 6-31G*
  Basis Set:
  @DF-RHF Final Energy:  -173.26349109678810
    Total Energy =                       -173.2634910967882718
  Basis Set: 6-31G*
  Basis Set:
  Charge       = 0
  Multiplicity = 1
  Basis Set: 6-31G*
  Basis Set:

    Orbital Energies (a.u.)
    -----------------------

    Doubly Occupied:

       1A    -15.538634     2A    -11.235721     3A    -11.235467
       4A    -11.235383     5A     -1.219408     6A     -0.951998
       7A     -0.951141     8A     -0.805289     9A     -0.636933
      10A     -0.629132    11A     -0.627596    12A     -0.549202
      13A     -0.545719    14A     -0.514718    15A     -0.502014
      16A     -0.500987    17A     -0.336554

  @DF-RHF Final Energy:  -173.26349267644645

   => Energetics <=

    Nuclear Repulsion Energy =            138.7539002619574831
    One-Electron Energy =                -508.0029938040779598
    Two-Electron Energy =                 195.9856008656740869
    DFT Exchange-Correlation Energy =       0.0000000000000000
    Empirical Dispersion Energy =           0.0000000000000000
    PCM Polarization Energy =               0.0000000000000000
    EFP Energy =                            0.0000000000000000
    Total Energy =                       -173.2634926764463899
    Molecular point group: c1
  Basis Set: 6-31G*
  Basis Set:

  -Total Gradient:
     Atom            X                  Y                   Z
    ------   -----------------  -----------------  -----------------
       1        0.002076079819     0.000594857376    -0.003252297481
       2       -0.003407733581    -0.000800348742     0.005050960706
       3        0.003303055285     0.000454386058    -0.003990507720
       4       -0.000005110986     0.000015035642    -0.000027168454
       5        0.000000026151    -0.000046389045    -0.000034176418
       6       -0.002019958192    -0.000214002651     0.002237794270
       7        0.000046054901     0.000024996922     0.000049110119
       8        0.000003223448     0.000002594514    -0.000004166550
       9       -0.000023243939    -0.000002387096    -0.000025090093
      10        0.000013028463    -0.000009780172     0.000010521335
      11        0.000029235025    -0.000021201934    -0.000010485811
      12        0.000002149864    -0.000001702764    -0.000003863103
      13       -0.000016806259     0.000003941892    -0.000000630801

  **** Optimization is complete! (in 5 steps) ****
    Final optimized geometry and variables:
    Molecular point group: c1

    Geometry (in Angstrom), charge = 0, multiplicity = 1:

    H           -0.494354803548     1.920176752180     0.381438329239
    C            0.236232570757     1.190146447261     0.709738355673
    N           -0.112420421008    -0.136725060056     0.233346003503
    H            1.195436476648     1.525137081042     0.313662400891
    H            0.296184142038     1.216610091846     1.793344329383
    C           -1.184436626815    -0.162998314863    -0.732029014810
    C            1.031605420237    -0.925252531575    -0.149773470106
    H           -1.459196105067    -1.190786918528    -0.942078179477
    H           -2.057488459229     0.335233539315    -0.327229618278
    H           -0.930036072324     0.316406235878    -1.683475951433
    H            1.746169899397    -0.956879237255     0.665454560766
    H            0.725466775553    -1.943966241966    -0.360394587725
    H            1.546781098076    -0.535478890260    -1.034174280248

  Mulliken Charges: (a.u.)
   Center  Symbol    Alpha    Beta     Spin     Total
       1     H     0.42020  0.42020  0.00000  0.15960
       2     C     3.14206  3.14206  0.00000 -0.28412
       3     N     3.77269  3.77269  0.00000 -0.54537
       4     H     0.42824  0.42824  0.00000  0.14352
       5     H     0.41605  0.41605  0.00000  0.16789
       6     C     3.13921  3.13921  0.00000 -0.27841
       7     C     3.13983  3.13983  0.00000 -0.27966
       8     H     0.41836  0.41836  0.00000  0.16327
       9     H     0.41668  0.41668  0.00000  0.16664
      10     H     0.43611  0.43611  0.00000  0.12777
      11     H     0.41679  0.41679  0.00000  0.16641
      12     H     0.41814  0.41814  0.00000  0.16373
      13     H     0.43564  0.43564  0.00000  0.12872

   Total alpha = 17.00000, Total beta = 17.00000, Total charge = -0.00000
