  ==> Input File <==

--------------------------------------------------------------------------
set {
	reference rhf
	basis cc-pvtz
}

set_num_threads( 4 )
memory 2 gb

molecule MOL {
0 1

H	 1.991542	 2.108619	 1.033262
N	 1.136048	 1.600586	 0.958278
C	 1.263552	 0.494993	 0.021953
H	 0.436167	 2.245312	 0.655241
C	 -0.016533	 -0.325589	 -0.026925
H	 2.079072	 -0.134634	 0.361792
H	 1.519456	 0.820830	 -0.987170
C	 -1.280353	 0.525521	 0.047747
H	 -0.016686	 -0.912532	 -0.939714
H	 -0.014099	 -1.037598	 0.796369
C	 -2.560681	 -0.301323	 -0.007747
H	 -1.279957	 1.241025	 -0.770189
H	 -1.270445	 1.110526	 0.963468
H	 -2.617064	 -0.872870	 -0.928010
H	 -3.439525	 0.331102	 0.043462
H	 -2.609427	 -1.002736	 0.818585

	symmetry c1
}
set optking {
	frozen_dihedral = ("
		6 3 5 9
	")
}

ee = optimize('scf')
oeprop('DIPOLE', 'QUADRUPOLE', 'MULLIKEN_CHARGES')
f=open( 'psi4out.xyz', 'w' )
f.write( "16  " )
f.write( str(ee) + "\n" )
f.write( MOL.save_string_xyz() )
f.close()
--------------------------------------------------------------------------

    Molecular point group: c1
  Charge       = 0
  Multiplicity = 1
  Basis Set: CC-PVTZ
  Basis Set:
  @DF-RHF Final Energy:  -212.39503506237114
    Total Energy =                       -212.3950350623712211
    Molecular point group: c1
  Basis Set: CC-PVTZ
  Basis Set:
  Basis Set: CC-PVTZ
  Basis Set:
  @DF-RHF Final Energy:  -212.39575353087849
    Total Energy =                       -212.3957535308786646
  Basis Set: CC-PVTZ
  Basis Set:
  Basis Set: CC-PVTZ
  Basis Set:
  @DF-RHF Final Energy:  -212.39672774690962
    Total Energy =                       -212.3967277469097326
  Basis Set: CC-PVTZ
  Basis Set:
  Basis Set: CC-PVTZ
  Basis Set:
  @DF-RHF Final Energy:  -212.39679503842498
    Total Energy =                       -212.3967950384250116
  Basis Set: CC-PVTZ
  Basis Set:
  Basis Set: CC-PVTZ
  Basis Set:
  @DF-RHF Final Energy:  -212.39680355788755
    Total Energy =                       -212.3968035578874947
  Basis Set: CC-PVTZ
  Basis Set:
  Charge       = 0
  Multiplicity = 1
  Basis Set: CC-PVTZ
  Basis Set:

    Orbital Energies (a.u.)
    -----------------------

    Doubly Occupied:

       1A    -15.526240     2A    -11.239079     3A    -11.210100
       4A    -11.208039     5A    -11.204504     6A     -1.177939
       7A     -1.056165     8A     -0.960258     9A     -0.852411
      10A     -0.777701    11A     -0.665777    12A     -0.649676
      13A     -0.596486    14A     -0.585275    15A     -0.547306
      16A     -0.525427    17A     -0.512668    18A     -0.471882
      19A     -0.466098    20A     -0.452443    21A     -0.382872

  @DF-RHF Final Energy:  -212.39680630234415

   => Energetics <=

    Nuclear Repulsion Energy =            189.6451505186134341
    One-Electron Energy =                -661.9472225960024616
    Two-Electron Energy =                 259.9052657750447679
    DFT Exchange-Correlation Energy =       0.0000000000000000
    Empirical Dispersion Energy =           0.0000000000000000
    PCM Polarization Energy =               0.0000000000000000
    EFP Energy =                            0.0000000000000000
    Total Energy =                       -212.3968063023442596
    Molecular point group: c1
  Basis Set: CC-PVTZ
  Basis Set:

  -Total Gradient:
     Atom            X                  Y                   Z
    ------   -----------------  -----------------  -----------------
       1       -0.000021117539    -0.000014109067    -0.000010027229
       2       -0.000055115930     0.000013506785    -0.000008399707
       3        0.000544330240    -0.000940302335    -0.007229886024
       4       -0.000000481519     0.000014542817     0.000024237553
       5        0.003123187953    -0.004791978062     0.004507360105
       6       -0.000912196633     0.001496010559     0.005407044217
       7        0.000007177221    -0.000025305364    -0.000013430810
       8        0.000030391023     0.000026679729    -0.000047923575
       9       -0.002719057654     0.004236473975    -0.002649148344
      10        0.000020697868    -0.000033747932     0.000009048578
      11       -0.000008106834    -0.000005557142     0.000012712627
      12       -0.000024075449     0.000020629989    -0.000004044844
      13       -0.000001106320     0.000000711219    -0.000000466634
      14        0.000003783474     0.000006461329    -0.000003042580
      15        0.000011644660     0.000000031710     0.000003211891
      16        0.000000045435    -0.000004048213     0.000002754775

  **** Optimization is complete! (in 6 steps) ****
    Final optimized geometry and variables:
    Molecular point group: c1

    Geometry (in Angstrom), charge = 0, multiplicity = 1:

    H            2.404555129408     1.596907377611     0.853794139347
    N            1.498568282658     1.190844245259     0.756756482769
    C            1.529921689882     0.092974829169    -0.202385841572
    H            0.883033536833     1.918458114426     0.462319207143
    C            0.241947044721    -0.733331988483    -0.181294015117
    H            2.349102574851    -0.543484479495     0.110542686254
    H            1.732506952064     0.428432537451    -1.218800966260
    C           -1.044167842288     0.093430163713    -0.149691314744
    H            0.213375205240    -1.328632819890    -1.090184011535
    H            0.252601820813    -1.409170725080     0.666871808194
    C           -2.296695990064    -0.771777777100    -0.246097720931
    H           -1.038718601389     0.804493177705    -0.973768961875
    H           -1.082636658721     0.673683994176     0.764349733650
    H           -2.313487259063    -1.339200535400    -1.170771319059
    H           -3.195517385859    -0.166659217551    -0.213067522221
    H           -2.344692100006    -1.479242669690     0.575078132579

  Mulliken Charges: (a.u.)
   Center  Symbol    Alpha    Beta     Spin     Total
       1     H     0.42924  0.42924  0.00000  0.14152
       2     N     3.69287  3.69287  0.00000 -0.38574
       3     C     3.03771  3.03771  0.00000 -0.07543
       4     H     0.42730  0.42730  0.00000  0.14540
       5     C     3.07374  3.07374  0.00000 -0.14747
       6     H     0.45380  0.45380  0.00000  0.09241
       7     H     0.46362  0.46362  0.00000  0.07275
       8     C     3.09465  3.09465  0.00000 -0.18930
       9     H     0.45787  0.45787  0.00000  0.08427
      10     H     0.45431  0.45431  0.00000  0.09139
      11     C     3.15049  3.15049  0.00000 -0.30097
      12     H     0.45672  0.45672  0.00000  0.08657
      13     H     0.44819  0.44819  0.00000  0.10363
      14     H     0.45621  0.45621  0.00000  0.08757
      15     H     0.44913  0.44913  0.00000  0.10173
      16     H     0.45416  0.45416  0.00000  0.09167

   Total alpha = 21.00000, Total beta = 21.00000, Total charge = -0.00000
