  ==> Input File <==

--------------------------------------------------------------------------
set {
	reference rhf
	basis 6-31G*
}

set_num_threads( 1 )
memory 2 gb

molecule MOL {
0 1

H	 -6.072774	 -2.489177	 1.639428
O	 -6.093985	 -2.815925	 2.527041
C	 -5.076507	 -3.768256	 2.705535
C	 -3.682221	 -3.154186	 2.765631
H	 -5.298272	 -4.263880	 3.641938
H	 -5.119953	 -4.523744	 1.921870
C	 -3.248886	 -2.465917	 1.468953
H	 -3.654927	 -2.440101	 3.584597
H	 -2.974034	 -3.944250	 3.009836
C	 -1.825016	 -1.907438	 1.543214
H	 -3.942891	 -1.661241	 1.242637
H	 -3.311580	 -3.175612	 0.643882
C	 -1.309753	 -1.282496	 0.241564
H	 -1.770800	 -1.170375	 2.342367
H	 -1.151716	 -2.713081	 1.828358
C	 -2.037799	 -0.007733	 -0.193645
H	 -0.253728	 -1.052750	 0.367442
H	 -1.364788	 -2.020098	 -0.557655
C	 -3.489788	 0.042957	 0.286558
H	 -2.017067	 0.064384	 -1.280144
H	 -1.513726	 0.868678	 0.179924
C	 -4.216917	 1.317354	 -0.141063
H	 -4.025645	 -0.823308	 -0.095450
H	 -3.513059	 -0.038752	 1.371301
H	 -4.239342	 1.411634	 -1.223113
H	 -5.243387	 1.322503	 0.212445
H	 -3.726170	 2.201406	 0.256408

	symmetry c1
}
set optking {
	frozen_dihedral = ("
		14 10 7 4,
		14 10 13 16,
		10 7 4 8,
		8 4 3 2,
		20 16 19 22,
		4 3 2 1
	")
}

ee = energy('scf')
oeprop('DIPOLE', 'QUADRUPOLE', 'MULLIKEN_CHARGES')
f=open( 'psi4out.xyz', 'w' )
f.write( "27  " )
f.write( str(ee) + "\n" )
f.write( MOL.save_string_xyz() )
f.close()
--------------------------------------------------------------------------

    Molecular point group: c1

    Geometry (in Angstrom), charge = 0, multiplicity = 1:

       Center              X                  Y                   Z               Mass
    ------------   -----------------  -----------------  -----------------  -----------------
           H         -2.570489551727    -0.918600854554     0.380925474541     1.007825032070
           O         -2.591700551727    -1.245348854554     1.268538474541    15.994914619560
           C         -1.574222551727    -2.197679854554     1.447032474541    12.000000000000
           C         -0.179936551727    -1.583609854554     1.507128474541    12.000000000000
           H         -1.795987551727    -2.693303854554     2.383435474541     1.007825032070
           H         -1.617668551727    -2.953167854554     0.663367474541     1.007825032070
           C          0.253398448273    -0.895340854554     0.210450474541    12.000000000000
           H         -0.152642551727    -0.869524854554     2.326094474541     1.007825032070
           H          0.528250448273    -2.373673854554     1.751333474541     1.007825032070
           C          1.677268448273    -0.336861854554     0.284711474541    12.000000000000
           H         -0.440606551727    -0.090664854554    -0.015865525459     1.007825032070
           H          0.190704448273    -1.605035854554    -0.614620525459     1.007825032070
           C          2.192531448273     0.288080145446    -1.016938525459    12.000000000000
           H          1.731484448273     0.400201145446     1.083864474541     1.007825032070
           H          2.350568448273    -1.142504854554     0.569855474541     1.007825032070
           C          1.464485448273     1.562843145446    -1.452147525459    12.000000000000
           H          3.248556448273     0.517826145446    -0.891060525459     1.007825032070
           H          2.137496448273    -0.449521854554    -1.816157525459     1.007825032070
           C          0.012496448273     1.613533145446    -0.971944525459    12.000000000000
           H          1.485217448273     1.634960145446    -2.538646525459     1.007825032070
           H          1.988558448273     2.439254145446    -1.078578525459     1.007825032070
           C         -0.714632551727     2.887930145446    -1.399565525459    12.000000000000
           H         -0.523360551727     0.747268145446    -1.353952525459     1.007825032070
           H         -0.010774551727     1.531824145446     0.112798474541     1.007825032070
           H         -0.737057551727     2.982210145446    -2.481615525459     1.007825032070
           H         -1.741102551727     2.893079145446    -1.046057525459     1.007825032070
           H         -0.223885551727     3.771982145446    -1.002094525459     1.007825032070

  Charge       = 0
  Multiplicity = 1
  Basis Set: 6-31G*
  Basis Set:

    Orbital Energies (a.u.)
    -----------------------

    Doubly Occupied:

       1A    -20.552066     2A    -11.265666     3A    -11.216886
       4A    -11.216339     5A    -11.215795     6A    -11.215276
       7A    -11.211868     8A    -11.209106     9A    -11.208828
      10A     -1.358586    11A     -1.103363    12A     -1.054972
      13A     -1.010062    14A     -0.951962    15A     -0.892576
      16A     -0.838131    17A     -0.786860    18A     -0.778139
      19A     -0.693000    20A     -0.659599    21A     -0.630974
      22A     -0.618818    23A     -0.599698    24A     -0.588043
      25A     -0.574917    26A     -0.569414    27A     -0.537491
      28A     -0.519414    29A     -0.505927    30A     -0.503600
      31A     -0.498169    32A     -0.476934    33A     -0.462790
      34A     -0.453978    35A     -0.445870    36A     -0.427810
      37A     -0.420195

  @DF-RHF Final Energy:  -388.24820445521294

   => Energetics <=

    Nuclear Repulsion Energy =            484.4834446830915908
    One-Electron Energy =               -1486.9177867522582801
    Two-Electron Energy =                 614.1861376139549975
    DFT Exchange-Correlation Energy =       0.0000000000000000
    Empirical Dispersion Energy =           0.0000000000000000
    PCM Polarization Energy =               0.0000000000000000
    EFP Energy =                            0.0000000000000000
    Total Energy =                       -388.2482044552116349

  Mulliken Charges: (a.u.)
   Center  Symbol    Alpha    Beta     Spin     Total
       1     H     0.27965  0.27965  0.00000  0.44071
       2     O     4.37096  4.37096  0.00000 -0.74193
       3     C     2.99759  2.99759  0.00000  0.00481
       4     C     3.15899  3.15899  0.00000 -0.31798
       5     H     0.41468  0.41468  0.00000  0.17065
       6     H     0.43226  0.43226  0.00000  0.13549
       7     C     3.16631  3.16631  0.00000 -0.33262
       8     H     0.41743  0.41743  0.00000  0.16514
       9     H     0.42586  0.42586  0.00000  0.14828
      10     C     3.15954  3.15954  0.00000 -0.31907
      11     H     0.41746  0.41746  0.00000  0.16508
      12     H     0.42756  0.42756  0.00000  0.14489
      13     C     3.15544  3.15544  0.00000 -0.31088
      14     H     0.42152  0.42152  0.00000  0.15696
      15     H     0.41938  0.41938  0.00000  0.16124
      16     C     3.14827  3.14827  0.00000 -0.29653
      17     H     0.41884  0.41884  0.00000  0.16231
      18     H     0.42275  0.42275  0.00000  0.15450
      19     C     3.17150  3.17150  0.00000 -0.34301
      20     H     0.42091  0.42091  0.00000  0.15818
      21     H     0.42127  0.42127  0.00000  0.15746
      22     C     3.23626  3.23626  0.00000 -0.47252
      23     H     0.41942  0.41942  0.00000  0.16117
      24     H     0.41246  0.41246  0.00000  0.17509
      25     H     0.42229  0.42229  0.00000  0.15542
      26     H     0.41999  0.41999  0.00000  0.16002
      27     H     0.42143  0.42143  0.00000  0.15715

   Total alpha = 37.00000, Total beta = 37.00000, Total charge =  0.00000
