  ==> Input File <==

--------------------------------------------------------------------------
set {
	reference rhf
	basis cc-pvtz
}

set_num_threads( 4 )
memory 2 gb

molecule MOL {
0 1

H	 2.342730	 0.877684	 -1.045694
C	 2.360424	 0.000000	 -0.411793
C	 1.173749	 0.000000	 0.526870
H	 3.286567	 0.000000	 0.151574
H	 2.342730	 -0.877684	 -1.045694
O	 -0.000000	 0.000000	 -0.223739
H	 1.203779	 0.876757	 1.172538
H	 1.203779	 -0.876757	 1.172538
C	 -1.173749	 0.000000	 0.526870
C	 -0.870865	 0.513585	 1.917473
H	 -1.583856	 -1.007804	 0.578200
H	 -1.923123	 0.628734	 0.047679
H	 -0.137051	 -0.117187	 2.403390
H	 -1.771650	 0.522329	 2.520493
H	 -0.476676	 1.521081	 1.872308

	symmetry c1
}
set optking {
	frozen_dihedral = ("
		11 9 6 3
	")
}

ee = optimize('scf')
oeprop('DIPOLE', 'QUADRUPOLE', 'MULLIKEN_CHARGES')
f=open( 'psi4out.xyz', 'w' )
f.write( "15  " )
f.write( str(ee) + "\n" )
f.write( MOL.save_string_xyz() )
f.close()
--------------------------------------------------------------------------

    Molecular point group: c1
  Charge       = 0
  Multiplicity = 1
  Basis Set: CC-PVTZ
  Basis Set:
  @DF-RHF Final Energy:  -232.21161192506344
    Total Energy =                       -232.2116119250636075
    Molecular point group: c1
  Basis Set: CC-PVTZ
  Basis Set:
  Basis Set: CC-PVTZ
  Basis Set:
  @DF-RHF Final Energy:  -232.21283533539062
    Total Energy =                       -232.2128353353906505
  Basis Set: CC-PVTZ
  Basis Set:
  Basis Set: CC-PVTZ
  Basis Set:
  @DF-RHF Final Energy:  -232.22048313302247
    Total Energy =                       -232.2204831330226966
  Basis Set: CC-PVTZ
  Basis Set:
  Basis Set: CC-PVTZ
  Basis Set:
  @DF-RHF Final Energy:  -232.22376141520306
    Total Energy =                       -232.2237614152028868
  Basis Set: CC-PVTZ
  Basis Set:
  @DF-RHF Final Energy:  -232.22432574241660
    Total Energy =                       -232.2243257424166814
  Basis Set: CC-PVTZ
  Basis Set:
  @DF-RHF Final Energy:  -232.22479460968484
    Total Energy =                       -232.2247946096848068
  Basis Set: CC-PVTZ
  Basis Set:
  Basis Set: CC-PVTZ
  Basis Set:
  @DF-RHF Final Energy:  -232.22487226482065
    Total Energy =                       -232.2248722648207604
  Basis Set: CC-PVTZ
  Basis Set:
  Basis Set: CC-PVTZ
  Basis Set:
  @DF-RHF Final Energy:  -232.22487754273880
    Total Energy =                       -232.2248775427389660
  Basis Set: CC-PVTZ
  Basis Set:
  Charge       = 0
  Multiplicity = 1
  Basis Set: CC-PVTZ
  Basis Set:

    Orbital Energies (a.u.)
    -----------------------

    Doubly Occupied:

       1A    -20.540170     2A    -11.266339     3A    -11.264753
       4A    -11.214896     5A    -11.205169     6A     -1.372059
       7A     -1.040913     8A     -0.991482     9A     -0.872265
      10A     -0.797278    11A     -0.675094    12A     -0.662112
      13A     -0.620414    14A     -0.598153    15A     -0.548263
      16A     -0.536016    17A     -0.523545    18A     -0.503715
      19A     -0.497053    20A     -0.452066    21A     -0.403840

  @DF-RHF Final Energy:  -232.22487802806984

   => Energetics <=

    Nuclear Repulsion Energy =            193.3255545359430130
    One-Electron Energy =                -697.9296733608754266
    Two-Electron Energy =                 272.3792407968625184
    DFT Exchange-Correlation Energy =       0.0000000000000000
    Empirical Dispersion Energy =           0.0000000000000000
    PCM Polarization Energy =               0.0000000000000000
    EFP Energy =                            0.0000000000000000
    Total Energy =                       -232.2248780280698952
    Molecular point group: c1
  Basis Set: CC-PVTZ
  Basis Set:

  -Total Gradient:
     Atom            X                  Y                   Z
    ------   -----------------  -----------------  -----------------
       1        0.000004094463     0.000001985950    -0.000005511005
       2       -0.000006771636     0.000010274292    -0.000000471733
       3        0.000055888960     0.004086255701     0.000209112151
       4       -0.000002022116     0.000000860051     0.000000387958
       5       -0.000001501117     0.000000558042     0.000002938585
       6       -0.000711789616    -0.005903175768    -0.001303256423
       7       -0.000004198877    -0.000002379764    -0.000010917394
       8        0.000005530307     0.000001676812     0.000006031599
       9        0.003116835817     0.000744048761     0.005110522254
      10       -0.000002886402     0.000008631113     0.000018580377
      11       -0.002465066100     0.001051048805    -0.004021520581
      12        0.000007924410    -0.000002696506    -0.000009318253
      13       -0.000001579292     0.000001996274    -0.000002473966
      14        0.000004162132     0.000000577198     0.000001022124
      15        0.000001379068     0.000000339037     0.000004874309

  **** Optimization is complete! (in 9 steps) ****
    Final optimized geometry and variables:
    Molecular point group: c1

    Geometry (in Angstrom), charge = 0, multiplicity = 1:

    H            2.020226279112     0.748317720193    -1.643621600640
    C            2.076417397202    -0.138694831335    -1.024885850584
    C            0.983156454552    -0.122913451980     0.022223030661
    H            3.051405461310    -0.168422211885    -0.551210663208
    H            1.976943483871    -1.005939597695    -1.665502804119
    O           -0.245180119181    -0.078003614583    -0.636966091636
    H            1.108535919879     0.737912342296     0.671376172347
    H            1.056173177790    -1.014003918588     0.643971433678
    C           -1.438249969197    -0.099809610197     0.100106852706
    C           -1.383646256998     0.432009791824     1.522600883849
    H           -1.842215286957    -1.109829385277     0.084694052695
    H           -2.137118541227     0.505395291940    -0.465444026689
    H           -0.746612435686    -0.160468477927     2.166596440323
    H           -2.385469758384     0.405182254285     1.935559443501
    H           -1.040668654959     1.459304312265     1.549927062753

  Mulliken Charges: (a.u.)
   Center  Symbol    Alpha    Beta     Spin     Total
       1     H     0.45185  0.45185  0.00000  0.09631
       2     C     3.13610  3.13610  0.00000 -0.27220
       3     C     2.96673  2.96673  0.00000  0.06654
       4     H     0.45957  0.45957  0.00000  0.08087
       5     H     0.45153  0.45153  0.00000  0.09695
       6     O     4.18317  4.18317  0.00000 -0.36634
       7     H     0.46998  0.46998  0.00000  0.06004
       8     H     0.47339  0.47339  0.00000  0.05322
       9     C     2.97295  2.97295  0.00000  0.05411
      10     C     3.16414  3.16414  0.00000 -0.32829
      11     H     0.46608  0.46608  0.00000  0.06785
      12     H     0.45880  0.45880  0.00000  0.08241
      13     H     0.45042  0.45042  0.00000  0.09917
      14     H     0.44516  0.44516  0.00000  0.10969
      15     H     0.45015  0.45015  0.00000  0.09969

   Total alpha = 21.00000, Total beta = 21.00000, Total charge = -0.00000
