                              Psi4 1.0.54 Driver

  ==> Input File <==

--------------------------------------------------------------------------
set {
	reference rhf
	basis cc-pvtz
}

set_num_threads( 4 )
memory 2 gb

molecule MOL {
0 1

O	 -2.071633	 -1.227563	 -0.223463
C	 -1.652164	 -0.152425	 0.058082
C	 -0.327811	 0.006324	 0.778296
C	 -2.402515	 1.108629	 -0.298924
C	 0.843231	 -0.001575	 -0.211665
H	 -0.319484	 0.928173	 1.350354
H	 -0.227804	 -0.823091	 1.466705
C	 1.927376	 -1.006561	 0.166307
H	 1.281579	 0.991418	 -0.270897
H	 0.460552	 -0.231131	 -1.200212
C	 3.088179	 -1.026888	 -0.822271
H	 2.302577	 -0.775533	 1.159471
H	 1.488190	 -1.997931	 0.228283
H	 3.570695	 -0.056918	 -0.880330
H	 2.748145	 -1.286376	 -1.818971
H	 3.838349	 -1.751995	 -0.529240
H	 -3.240910	 0.874416	 -0.936711
H	 -1.747554	 1.818823	 -0.790984
H	 -2.760419	 1.579708	 0.610998

	symmetry c1
}
set optking {
	frozen_dihedral = ("
		9 5 3 2
	")
}

ee,wfn = optimize('scf', return_wfn=True)
oeprop( wfn, 'DIPOLE', 'QUADRUPOLE', 'MULLIKEN_CHARGES')
f=open( 'psi4out.xyz', 'w' )
f.write( "19  " )
f.write( str(ee) + "\n" )
f.write( MOL.save_string_xyz() )
f.close()
--------------------------------------------------------------------------

    Molecular point group: c1
  Charge       = 0
  Multiplicity = 1
  Basis Set: CC-PVTZ
  Basis Set:
  @DF-RHF Final Energy:  -309.17204319120941
    Total Energy =                       -309.1720431912096387
    Molecular point group: c1
  Basis Set: CC-PVTZ
  Basis Set:
  Basis Set: CC-PVTZ
  Basis Set:
  @DF-RHF Final Energy:  -309.17216393619253
    Total Energy =                       -309.1721639361924758
  Basis Set: CC-PVTZ
  Basis Set:
  Basis Set: CC-PVTZ
  Basis Set:
  @DF-RHF Final Energy:  -309.17248688307217
    Total Energy =                       -309.1724868830721107
  Basis Set: CC-PVTZ
  Basis Set:
  Basis Set: CC-PVTZ
  Basis Set:
  @DF-RHF Final Energy:  -309.17259483250882
    Total Energy =                       -309.1725948325084801
  Basis Set: CC-PVTZ
  Basis Set:
  @DF-RHF Final Energy:  -309.17265116070183
    Total Energy =                       -309.1726511607017756
  Basis Set: CC-PVTZ
  Basis Set:
  @DF-RHF Final Energy:  -309.17268723187954
    Total Energy =                       -309.1726872318798200
  Basis Set: CC-PVTZ
  Basis Set:
  Basis Set: CC-PVTZ
  Basis Set:
  @DF-RHF Final Energy:  -309.17270114440197
    Total Energy =                       -309.1727011444016853
  Basis Set: CC-PVTZ
  Basis Set:
  Basis Set: CC-PVTZ
  Basis Set:
  @DF-RHF Final Energy:  -309.17270422887015
    Total Energy =                       -309.1727042288700318
  Basis Set: CC-PVTZ
  Basis Set:
  Charge       = 0
  Multiplicity = 1
  Basis Set: CC-PVTZ
  Basis Set:

    Orbital Energies (a.u.)
    -----------------------

    Doubly Occupied:

       1A    -20.536882     2A    -11.319207     3A    -11.231090
       4A    -11.227581     5A    -11.226480     6A    -11.222093
       7A    -11.212610     8A     -1.396832     9A     -1.091780
      10A     -1.030201    11A     -0.982143    12A     -0.892880
      13A     -0.808584    14A     -0.735544    15A     -0.664291
      16A     -0.640815    17A     -0.629071    18A     -0.613478
      19A     -0.583335    20A     -0.576098    21A     -0.555015
      22A     -0.529885    23A     -0.521732    24A     -0.502979
      25A     -0.479790    26A     -0.475461    27A     -0.468412
      28A     -0.399370

  @DF-RHF Final Energy:  -309.17270480283082

   => Energetics <=

    Nuclear Repulsion Energy =            302.9030849285196609
    One-Electron Energy =               -1019.0442988491161032
    Two-Electron Energy =                 406.9685091177656204
    DFT Exchange-Correlation Energy =       0.0000000000000000
    Empirical Dispersion Energy =           0.0000000000000000
    PCM Polarization Energy =               0.0000000000000000
    EFP Energy =                            0.0000000000000000
    Total Energy =                       -309.1727048028308218
    Molecular point group: c1
  Basis Set: CC-PVTZ
  Basis Set:

  -Total Gradient:
     Atom            X                  Y                   Z
    ------   -----------------  -----------------  -----------------
       1       -0.000002498679     0.000005957327    -0.000000247333
       2        0.000145793913    -0.001433555619    -0.000010381689
       3        0.000166457232     0.001802918372     0.000273368606
       4       -0.000047280136     0.000022383721     0.000053791304
       5       -0.001580487826     0.000161388861    -0.001611361719
       6       -0.000024697000    -0.000006540957     0.000015534532
       7       -0.000004277626     0.000002427399     0.000010236175
       8       -0.000017712351     0.000008486069    -0.000014593331
       9        0.001314962745    -0.000558524265     0.001319982992
      10        0.000009395134     0.000002713548    -0.000008120623
      11        0.000011366135    -0.000000864227     0.000000070190
      12       -0.000001367398    -0.000003757104     0.000004030855
      13        0.000006895104    -0.000002154272    -0.000005584908
      14        0.000000204967    -0.000000787958    -0.000000683084
      15       -0.000002548182    -0.000000989155     0.000004192864
      16       -0.000000262779     0.000004036603     0.000002050484
      17        0.000002751259    -0.000009549389    -0.000007838532
      18        0.000011637614    -0.000015144152    -0.000008783958
      19        0.000011667867     0.000021555197    -0.000015662825

  **** Optimization is complete! (in 9 steps) ****
    Final optimized geometry and variables:
    Molecular point group: c1

    Geometry (in Angstrom), charge = 0, multiplicity = 1:

    O           -2.128699987317    -0.926909680463     0.177407456422
    C           -1.581764366910     0.123197915145     0.274065520574
    C           -0.212976252671     0.245052135738     0.909696149653
    C           -2.214419154134     1.394174541789    -0.243950885083
    C            0.907417264137     0.353894839585    -0.154380075942
    H           -0.191199825729     1.107125644045     1.566500588755
    H           -0.068622815059    -0.639019938296     1.514468847369
    C            2.037632686083    -0.646847269733     0.078538688617
    H            1.324379528699     1.355030335379    -0.147549048149
    H            0.500822538754     0.192786582625    -1.147797865347
    C            3.156517692902    -0.528654437687    -0.949857572787
    H            2.444027682329    -0.500088401947     1.075383110753
    H            1.629119291541    -1.652313811683     0.058900813392
    H            3.605979739961     0.458704237547    -0.929977394036
    H            2.784788296798    -0.702116537983    -1.954173105072
    H            3.940259073022    -1.252121416337    -0.758529777625
    H           -3.094532518788     1.161497401299    -0.823525067062
    H           -1.511910498702     1.959815723121    -0.845069510771
    H           -2.493038972022     2.019273980735     0.598439118274

  Mulliken Charges: (a.u.)
   Center  Symbol    Alpha    Beta     Spin     Total
       1     O     4.17656  4.17656  0.00000 -0.35311
       2     C     2.85798  2.85798  0.00000  0.28404
       3     C     3.10373  3.10373  0.00000 -0.20747
       4     C     3.15559  3.15559  0.00000 -0.31117
       5     C     3.09695  3.09695  0.00000 -0.19389
       6     H     0.44439  0.44439  0.00000  0.11122
       7     H     0.43983  0.43983  0.00000  0.12033
       8     C     3.08390  3.08390  0.00000 -0.16779
       9     H     0.44986  0.44986  0.00000  0.10027
      10     H     0.45132  0.45132  0.00000  0.09735
      11     C     3.15046  3.15046  0.00000 -0.30092
      12     H     0.45243  0.45243  0.00000  0.09513
      13     H     0.44734  0.44734  0.00000  0.10532
      14     H     0.45572  0.45572  0.00000  0.08857
      15     H     0.45363  0.45363  0.00000  0.09274
      16     H     0.44677  0.44677  0.00000  0.10647
      17     H     0.43588  0.43588  0.00000  0.12824
      18     H     0.44944  0.44944  0.00000  0.10113
      19     H     0.44823  0.44823  0.00000  0.10355

   Total alpha = 28.00000, Total beta = 28.00000, Total charge = -0.00000

*** Psi4 exiting successfully. Buy a developer a beer!
