  ==> Input File <==

--------------------------------------------------------------------------
set {
	reference rhf
	basis 6-31G*
}

set_num_threads( 4 )
memory 2 gb

molecule MOL {
0 1

O	 1.201454	 1.411600	 -0.122725
C	 0.861134	 0.272526	 -0.014869
C	 -0.623889	 -0.118271	 -0.003699
C	 1.910761	 -0.816568	 0.119890
C	 -0.895332	 -1.256461	 -1.002431
C	 -1.473649	 1.103340	 -0.370799
C	 -0.983900	 -0.581483	 1.422328
H	 -0.615301	 -0.972064	 -2.012700
H	 -1.954261	 -1.493213	 -1.010207
H	 -0.360539	 -2.164946	 -0.747760
H	 -1.227476	 1.468527	 -1.361691
H	 -2.526716	 0.838935	 -0.358521
H	 -1.314819	 1.915855	 0.325860
H	 -2.039679	 -0.828001	 1.472951
H	 -0.427637	 -1.464071	 1.720694
H	 -0.789023	 0.202493	 2.147048
H	 2.041935	 -1.312745	 -0.837222
H	 2.849500	 -0.360179	 0.402017
H	 1.638453	 -1.573893	 0.844824

	symmetry c1
}
set optking {
	frozen_dihedral = ("
		1 2 3 5
	")
}

ee = optimize('scf')
oeprop('DIPOLE', 'QUADRUPOLE', 'MULLIKEN_CHARGES')
f=open( 'psi4out.xyz', 'w' )
f.write( "19  " )
f.write( str(ee) + "\n" )
f.write( MOL.save_string_xyz() )
f.close()
--------------------------------------------------------------------------

    Molecular point group: c1
  Charge       = 0
  Multiplicity = 1
  Basis Set: 6-31G*
  Basis Set:
  @DF-RHF Final Energy:  -309.06299654307674
    Total Energy =                       -309.0629965430769630
    Molecular point group: c1
  Basis Set: 6-31G*
  Basis Set:
  Basis Set: 6-31G*
  Basis Set:
  @DF-RHF Final Energy:  -309.06011205295039
    Total Energy =                       -309.0601120529505010
  Basis Set: 6-31G*
  Basis Set:
  Basis Set: 6-31G*
  Basis Set:
  @DF-RHF Final Energy:  -309.06297145581721
    Total Energy =                       -309.0629714558173191
  Basis Set: 6-31G*
  Basis Set:
  Basis Set: 6-31G*
  Basis Set:
  @DF-RHF Final Energy:  -309.06307676858484
    Total Energy =                       -309.0630767685847786
  Basis Set: 6-31G*
  Basis Set:
  Basis Set: 6-31G*
  Basis Set:
  @DF-RHF Final Energy:  -309.06307817865314
    Total Energy =                       -309.0630781786533134
  Basis Set: 6-31G*
  Basis Set:
  Basis Set: 6-31G*
  Basis Set:
  @DF-RHF Final Energy:  -309.06307468702693
    Total Energy =                       -309.0630746870268695
  Basis Set: 6-31G*
  Basis Set:
  Basis Set: 6-31G*
  Basis Set:
  @DF-RHF Final Energy:  -309.06308042927219
    Total Energy =                       -309.0630804292720768
  Basis Set: 6-31G*
  Basis Set:
  Charge       = 0
  Multiplicity = 1
  Basis Set: 6-31G*
  Basis Set:

    Orbital Energies (a.u.)
    -----------------------

    Doubly Occupied:

       1A    -20.548330     2A    -11.322758     3A    -11.246459
       4A    -11.226657     5A    -11.224721     6A    -11.224492
       7A    -11.207952     8A     -1.394641     9A     -1.109714
      10A     -1.001702    11A     -0.947170    12A     -0.934499
      13A     -0.835264    14A     -0.703553    15A     -0.664422
      16A     -0.631523    17A     -0.619541    18A     -0.598276
      19A     -0.592441    20A     -0.564672    21A     -0.546342
      22A     -0.543984    23A     -0.523533    24A     -0.512971
      25A     -0.498228    26A     -0.471153    27A     -0.466875
      28A     -0.392731

  @DF-RHF Final Energy:  -309.06308059946610

   => Energetics <=

    Nuclear Repulsion Energy =            326.2639537187664587
    One-Electron Energy =               -1065.5448590178618815
    Two-Electron Energy =                 430.2178246996293751
    DFT Exchange-Correlation Energy =       0.0000000000000000
    Empirical Dispersion Energy =           0.0000000000000000
    PCM Polarization Energy =               0.0000000000000000
    EFP Energy =                            0.0000000000000000
    Total Energy =                       -309.0630805994659909
    Molecular point group: c1
  Basis Set: 6-31G*
  Basis Set:

  -Total Gradient:
     Atom            X                  Y                   Z
    ------   -----------------  -----------------  -----------------
       1       -0.000002245217    -0.000060456487    -0.000522255102
       2       -0.000019100212     0.000175528651     0.000651919408
       3        0.000089610570    -0.000348155909     0.000163947290
       4        0.000003211987     0.000002096093    -0.000030016730
       5       -0.000063414359     0.000232308056    -0.000271328763
       6        0.000001253385    -0.000001202919    -0.000002080692
       7       -0.000002323549    -0.000000094331    -0.000019642834
       8       -0.000000087766     0.000001848473     0.000001874192
       9       -0.000000066389     0.000002149241    -0.000000126568
      10       -0.000001628968     0.000000157093     0.000001274246
      11       -0.000001866909    -0.000002158850     0.000001684068
      12        0.000000825518     0.000001311978     0.000002823434
      13        0.000001163458     0.000004189626     0.000000652918
      14       -0.000002354725    -0.000000163261    -0.000000120278
      15       -0.000000346224    -0.000000347445     0.000002919347
      16        0.000002695922    -0.000001370359    -0.000000585431
      17        0.000000591922    -0.000004365103     0.000010134001
      18       -0.000000845485     0.000000412756     0.000002249394
      19       -0.000005072961    -0.000001687309     0.000006678100

  **** Optimization is complete! (in 8 steps) ****
    Final optimized geometry and variables:
    Molecular point group: c1

    Geometry (in Angstrom), charge = 0, multiplicity = 1:

    O            1.203302504544     1.410328003910    -0.128933582458
    C            0.860570993384     0.272467844619    -0.015823717490
    C           -0.624330363089    -0.117609718570     0.001557650018
    C            1.911069576551    -0.819047337909     0.095363269977
    C           -0.883922555624    -1.259988966391    -0.996529099981
    C           -1.472978443366     1.100500161176    -0.379166515935
    C           -0.997457839175    -0.573934460057     1.425831956009
    H           -0.598501739388    -0.975428048104    -2.005161500391
    H           -1.941428813233    -1.502782828846    -1.010265988544
    H           -0.345030925528    -2.164574357613    -0.736037610075
    H           -1.226223481395     1.455442104450    -1.373093778154
    H           -2.526286588118     0.836851688779    -0.363397285662
    H           -1.314144392619     1.920574370928     0.309049353029
    H           -2.056786332406    -0.805594484872     1.470593450867
    H           -0.456198300364    -1.463423686738     1.729791767766
    H           -0.797480214615     0.208284343795     2.151384373993
    H            2.063239650888    -1.268337891209    -0.881796505718
    H            2.842891338191    -0.372332450762     0.413626611257
    H            1.630787102365    -1.610475300278     0.779001320743

  Mulliken Charges: (a.u.)
   Center  Symbol    Alpha    Beta     Spin     Total
       1     O     4.26382  4.26382  0.00000 -0.52764
       2     C     2.72527  2.72527  0.00000  0.54945
       3     C     3.07060  3.07060  0.00000 -0.14121
       4     C     3.28856  3.28856  0.00000 -0.57713
       5     C     3.24186  3.24186  0.00000 -0.48371
       6     C     3.22578  3.22578  0.00000 -0.45156
       7     C     3.24112  3.24112  0.00000 -0.48224
       8     H     0.41437  0.41437  0.00000  0.17125
       9     H     0.41325  0.41325  0.00000  0.17350
      10     H     0.41706  0.41706  0.00000  0.16588
      11     H     0.41383  0.41383  0.00000  0.17234
      12     H     0.42392  0.42392  0.00000  0.15216
      13     H     0.40827  0.40827  0.00000  0.18345
      14     H     0.41289  0.41289  0.00000  0.17422
      15     H     0.41836  0.41836  0.00000  0.16327
      16     H     0.41072  0.41072  0.00000  0.17857
      17     H     0.40344  0.40344  0.00000  0.19312
      18     H     0.39610  0.39610  0.00000  0.20779
      19     H     0.41076  0.41076  0.00000  0.17848

   Total alpha = 28.00000, Total beta = 28.00000, Total charge =  0.00000
