  ==> Input File <==

--------------------------------------------------------------------------
set {
	reference rhf
	basis 6-31G*
}

set_num_threads( 4 )
memory 2 gb

molecule MOL {
0 1

H	 2.591676	 2.013956	 0.335017
O	 3.341076	 1.666752	 -0.126416
C	 3.569581	 0.339145	 0.272707
C	 2.539767	 -0.640285	 -0.279495
H	 4.553106	 0.084646	 -0.100901
H	 3.608576	 0.269204	 1.359154
C	 1.115811	 -0.397273	 0.226630
H	 2.556196	 -0.582511	 -1.364741
H	 2.852081	 -1.648031	 -0.010655
C	 0.115918	 -1.429151	 -0.302766
H	 0.797950	 0.599468	 -0.066350
H	 1.109961	 -0.420744	 1.316472
C	 -0.434124	 -1.133401	 -1.702882
H	 0.581373	 -2.413117	 -0.299457
H	 -0.720615	 -1.487732	 0.390402
C	 0.598874	 -1.209856	 -2.830511
H	 -1.230944	 -1.843557	 -1.914009
H	 -0.899097	 -0.148704	 -1.705746
C	 -0.016728	 -1.011774	 -4.217318
H	 1.098168	 -2.177097	 -2.795014
H	 1.373269	 -0.461538	 -2.680063
C	 1.013244	 -1.081234	 -5.344259
H	 -0.782864	 -1.766339	 -4.382112
H	 -0.524390	 -0.050010	 -4.251583
H	 1.515888	 -2.044253	 -5.357182
H	 0.546116	 -0.939242	 -6.313931
H	 1.773972	 -0.314251	 -5.228526

	symmetry c1
}
set optking {
	frozen_dihedral = ("
		14 10 7 4
	")
}

ee = optimize('scf')
oeprop('DIPOLE', 'QUADRUPOLE', 'MULLIKEN_CHARGES')
f=open( 'psi4out.xyz', 'w' )
f.write( "27  " )
f.write( str(ee) + "\n" )
f.write( MOL.save_string_xyz() )
f.close()
--------------------------------------------------------------------------

    Molecular point group: c1
  Charge       = 0
  Multiplicity = 1
  Basis Set: 6-31G*
  Basis Set:
  @DF-RHF Final Energy:  -388.27363419506401
    Total Energy =                       -388.2736341950643464
    Molecular point group: c1
  Basis Set: 6-31G*
  Basis Set:
  Basis Set: 6-31G*
  Basis Set:
  @DF-RHF Final Energy:  -388.27678975553494
    Total Energy =                       -388.2767897555347645
  Basis Set: 6-31G*
  Basis Set:
  Basis Set: 6-31G*
  Basis Set:
  @DF-RHF Final Energy:  -388.27705222092129
    Total Energy =                       -388.2770522209214050
  Basis Set: 6-31G*
  Basis Set:
  Basis Set: 6-31G*
  Basis Set:
  @DF-RHF Final Energy:  -388.27704273147623
    Total Energy =                       -388.2770427314770814
  Basis Set: 6-31G*
  Basis Set:
  Basis Set: 6-31G*
  Basis Set:
  @DF-RHF Final Energy:  -388.27707822741257
    Total Energy =                       -388.2770782274126304
  Basis Set: 6-31G*
  Basis Set:
  Basis Set: 6-31G*
  Basis Set:
  @DF-RHF Final Energy:  -388.27708039922180
    Total Energy =                       -388.2770803992217452
  Basis Set: 6-31G*
  Basis Set:
  Basis Set: 6-31G*
  Basis Set:
  @DF-RHF Final Energy:  -388.27708202125200
    Total Energy =                       -388.2770820212515446
  Basis Set: 6-31G*
  Basis Set:
  Charge       = 0
  Multiplicity = 1
  Basis Set: 6-31G*
  Basis Set:

    Orbital Energies (a.u.)
    -----------------------

    Doubly Occupied:

       1A    -20.552079     2A    -11.266649     3A    -11.221025
       4A    -11.218005     5A    -11.215016     6A    -11.214095
       7A    -11.213924     8A    -11.212002     9A    -11.207246
      10A     -1.358768    11A     -1.092797    12A     -1.058967
      13A     -1.009785    14A     -0.949918    15A     -0.888044
      16A     -0.826249    17A     -0.793290    18A     -0.775886
      19A     -0.694753    20A     -0.647248    21A     -0.630926
      22A     -0.614007    23A     -0.611187    24A     -0.583409
      25A     -0.570320    26A     -0.552500    27A     -0.546115
      28A     -0.523284    29A     -0.509520    30A     -0.495608
      31A     -0.484694    32A     -0.470859    33A     -0.466805
      34A     -0.458791    35A     -0.454685    36A     -0.435228
      37A     -0.422019

  @DF-RHF Final Energy:  -388.27708240263269

   => Energetics <=

    Nuclear Repulsion Energy =            469.1007465566315204
    One-Electron Energy =               -1456.2642532562886117
    Two-Electron Energy =                 598.8864242970252008
    DFT Exchange-Correlation Energy =       0.0000000000000000
    Empirical Dispersion Energy =           0.0000000000000000
    PCM Polarization Energy =               0.0000000000000000
    EFP Energy =                            0.0000000000000000
    Total Energy =                       -388.2770824026318905
    Molecular point group: c1
  Basis Set: 6-31G*
  Basis Set:

  -Total Gradient:
     Atom            X                  Y                   Z
    ------   -----------------  -----------------  -----------------
       1        0.000004843653     0.000001993231     0.000000451780
       2        0.000004726059     0.000004921260    -0.000003701854
       3       -0.000009006525    -0.000006933767     0.000021240476
       4       -0.000094063732     0.000434828366    -0.000631560050
       5       -0.000001529743    -0.000000405311     0.000000741400
       6        0.000006763341     0.000006713685     0.000007524131
       7        0.000050047769    -0.000631777939     0.001068586704
       8       -0.000006804553    -0.000007046893     0.000018639573
       9       -0.000001096060    -0.000002612307     0.000001146968
      10        0.000413464541     0.000365667067    -0.001380019356
      11       -0.000001667486    -0.000000805051    -0.000000501751
      12        0.000011312968     0.000003223265    -0.000007467628
      13        0.000007703922    -0.000022975947     0.000006189981
      14       -0.000383498431    -0.000127966110     0.000889697702
      15       -0.000009607524    -0.000011848608    -0.000007898097
      16        0.000024735935     0.000015389006     0.000014987949
      17       -0.000005533106    -0.000001452878     0.000006201227
      18        0.000013631882    -0.000005371473     0.000016101037
      19       -0.000005129823    -0.000009759492    -0.000003652022
      20       -0.000001191019    -0.000004404296    -0.000000444957
      21       -0.000009058741    -0.000003879485    -0.000002078092
      22       -0.000003923093     0.000003218492    -0.000001382125
      23       -0.000005660677     0.000000343640    -0.000009067757
      24       -0.000000505912     0.000000021829    -0.000003606018
      25       -0.000001215103    -0.000000410916    -0.000000111162
      26        0.000001340556     0.000001288847    -0.000000032102
      27        0.000000920901     0.000000041784     0.000000014040

  **** Optimization is complete! (in 8 steps) ****
    Final optimized geometry and variables:
    Molecular point group: c1

    Geometry (in Angstrom), charge = 0, multiplicity = 1:

    H            1.270388785224     2.517832876929     2.086829029730
    O            2.063293540264     2.182664148653     1.694251974629
    C            2.243461795300     0.839213450776     2.065020272615
    C            1.272142693943    -0.109774085521     1.370789306893
    H            3.259317812623     0.591040999389     1.785496899819
    H            2.169526745139     0.729187584750     3.146382721952
    C           -0.190721746667     0.122495836290     1.765876528818
    H            1.407141342368    -0.009138270630     0.300924709353
    H            1.552291613581    -1.129273132918     1.631251110154
    C           -1.207009563451    -0.882619517278     1.194997148601
    H           -0.494504245076     1.128411479539     1.481252600843
    H           -0.251504366011     0.081921380270     2.852357136346
    C           -1.766031458971    -0.595002789691    -0.205580251516
    H           -0.780939961154    -1.884031755789     1.224805996962
    H           -2.058349786222    -0.908267313720     1.870930253126
    C           -0.781929452092    -0.676649695831    -1.375615245937
    H           -2.570145240791    -1.306014864197    -0.385613684005
    H           -2.233088615865     0.388635703570    -0.202357901044
    C           -1.479145264349    -0.594575649257    -2.735746265934
    H           -0.220632108852    -1.607961207575    -1.316734400132
    H           -0.054440227622     0.126804205852    -1.309048216358
    C           -0.503787139702    -0.647236699612    -3.911111522588
    H           -2.194617720364    -1.409416909034    -2.823790759269
    H           -2.057496868294     0.325612699332    -2.788419901007
    H            0.068423616977    -1.570766374757    -3.904479041775
    H           -1.027738129986    -0.590095659742    -4.860273170636
    H            0.201818944628     0.177802675555    -3.872712517471

  Mulliken Charges: (a.u.)
   Center  Symbol    Alpha    Beta     Spin     Total
       1     H     0.27987  0.27987  0.00000  0.44026
       2     O     4.37135  4.37135  0.00000 -0.74270
       3     C     2.99792  2.99792  0.00000  0.00416
       4     C     3.16310  3.16310  0.00000 -0.32619
       5     H     0.41453  0.41453  0.00000  0.17094
       6     H     0.43217  0.43217  0.00000  0.13566
       7     C     3.16422  3.16422  0.00000 -0.32844
       8     H     0.41077  0.41077  0.00000  0.17846
       9     H     0.42470  0.42470  0.00000  0.15060
      10     C     3.15387  3.15387  0.00000 -0.30774
      11     H     0.42525  0.42525  0.00000  0.14950
      12     H     0.42333  0.42333  0.00000  0.15334
      13     C     3.15201  3.15201  0.00000 -0.30403
      14     H     0.42266  0.42266  0.00000  0.15468
      15     H     0.42018  0.42018  0.00000  0.15963
      16     C     3.15414  3.15414  0.00000 -0.30828
      17     H     0.42241  0.42241  0.00000  0.15519
      18     H     0.42394  0.42394  0.00000  0.15212
      19     C     3.15132  3.15132  0.00000 -0.30264
      20     H     0.42461  0.42461  0.00000  0.15078
      21     H     0.41920  0.41920  0.00000  0.16160
      22     C     3.23937  3.23937  0.00000 -0.47875
      23     H     0.42349  0.42349  0.00000  0.15303
      24     H     0.42310  0.42310  0.00000  0.15381
      25     H     0.42207  0.42207  0.00000  0.15587
      26     H     0.41956  0.41956  0.00000  0.16087
      27     H     0.42086  0.42086  0.00000  0.15829

   Total alpha = 37.00000, Total beta = 37.00000, Total charge =  0.00000
