                              Psi4 1.0.54 Driver

  ==> Input File <==

--------------------------------------------------------------------------
set {
	reference rhf
	basis cc-pvtz
}

set_num_threads( 4 )
memory 2 gb

molecule MOL {
0 1

H	 -0.896771	 -3.732582	 -0.504091
O	 -1.130053	 -2.839003	 -0.302066
C	 -0.023267	 -2.101587	 -0.315406
C	 -0.310616	 -0.658853	 0.000791
O	 1.038873	 -2.565522	 -0.549060
C	 0.926581	 0.227233	 0.000178
H	 -0.811578	 -0.636702	 0.963223
H	 -1.043671	 -0.313838	 -0.721228
C	 2.220156	 -0.582071	 -0.000088
H	 0.899945	 0.878221	 -0.866390
H	 0.900542	 0.878581	 0.866486
C	 3.466689	 0.296012	 -0.000457
H	 2.239073	 -1.234095	 -0.869382
H	 2.239505	 -1.233985	 0.869270
H	 3.493549	 0.935857	 -0.875887
H	 4.368821	 -0.304526	 -0.001199
H	 3.494559	 0.935166	 0.875458

	symmetry c1
}
set optking {
	frozen_dihedral = ("
		7 4 6 10
	")
}

ee,wfn = optimize('scf', return_wfn=True)
oeprop( wfn, 'DIPOLE', 'QUADRUPOLE', 'MULLIKEN_CHARGES')
f=open( 'psi4out.xyz', 'w' )
f.write( "17  " )
f.write( str(ee) + "\n" )
f.write( MOL.save_string_xyz() )
f.close()
--------------------------------------------------------------------------

    Molecular point group: c1
  Charge       = 0
  Multiplicity = 1
  Basis Set: CC-PVTZ
  Basis Set:
  @DF-RHF Final Energy:  -345.01253484113619
    Total Energy =                       -345.0125348411359028
    Molecular point group: c1
  Basis Set: CC-PVTZ
  Basis Set:
  Basis Set: CC-PVTZ
  Basis Set:
  @DF-RHF Final Energy:  -345.03162574028966
    Total Energy =                       -345.0316257402897691
  Basis Set: CC-PVTZ
  Basis Set:
  Basis Set: CC-PVTZ
  Basis Set:
  @DF-RHF Final Energy:  -345.03551260169286
    Total Energy =                       -345.0355126016930285
  Basis Set: CC-PVTZ
  Basis Set:
  Basis Set: CC-PVTZ
  Basis Set:
  @DF-RHF Final Energy:  -345.03469541870891
    Total Energy =                       -345.0346954187088500
  Basis Set: CC-PVTZ
  Basis Set:
  @DF-RHF Final Energy:  -345.03771085633531
    Total Energy =                       -345.0377108563354227
  @DF-RHF Final Energy:  -345.03808407871253
    Total Energy =                       -345.0380840787124725
  @DF-RHF Final Energy:  -345.03841574484727
    Total Energy =                       -345.0384157448471569
  @DF-RHF Final Energy:  -345.03871432884694
    Total Energy =                       -345.0387143288469929
  @DF-RHF Final Energy:  -345.03910760092049
    Total Energy =                       -345.0391076009204880
  @DF-RHF Final Energy:  -345.03929799741439
    Total Energy =                       -345.0392979974145078
  @DF-RHF Final Energy:  -345.03916176244684
    Total Energy =                       -345.0391617624468381
  @DF-RHF Final Energy:  -345.03946262058940
    Total Energy =                       -345.0394626205894042
  @DF-RHF Final Energy:  -345.03953266678610
    Total Energy =                       -345.0395326667860445
  @DF-RHF Final Energy:  -345.03962624919001
    Total Energy =                       -345.0396262491900643
  @DF-RHF Final Energy:  -345.03970468412939
    Total Energy =                       -345.0397046841294468
  @DF-RHF Final Energy:  -345.03983057705102
    Total Energy =                       -345.0398305770511342
  @DF-RHF Final Energy:  -345.03972393117817
    Total Energy =                       -345.0397239311783437
  @DF-RHF Final Energy:  -345.04000274916109
    Total Energy =                       -345.0400027491614310
  @DF-RHF Final Energy:  -345.04003149741226
    Total Energy =                       -345.0400314974124285
  Basis Set: CC-PVTZ
  Basis Set:
  @DF-RHF Final Energy:  -345.04003501350275
    Total Energy =                       -345.0400350135029157
  Basis Set: CC-PVTZ
  Basis Set:
  Basis Set: CC-PVTZ
  Basis Set:
  @DF-RHF Final Energy:  -345.04003882192234
    Total Energy =                       -345.0400388219223373
  Basis Set: CC-PVTZ
  Basis Set:
  Basis Set: CC-PVTZ
  Basis Set:
  @DF-RHF Final Energy:  -345.04003992264046
    Total Energy =                       -345.0400399226404033
  Basis Set: CC-PVTZ
  Basis Set:
  Charge       = 0
  Multiplicity = 1
  Basis Set: CC-PVTZ
  Basis Set:

    Orbital Energies (a.u.)
    -----------------------

    Doubly Occupied:

       1A    -20.605444     2A    -20.537835     3A    -11.373142
       4A    -11.237508     5A    -11.231760     6A    -11.220420
       7A    -11.212087     8A     -1.477565     9A     -1.367666
      10A     -1.091129    11A     -1.017794    12A     -0.912223
      13A     -0.839567    14A     -0.791239    15A     -0.705818
      16A     -0.681963    17A     -0.648986    18A     -0.644541
      19A     -0.591575    20A     -0.587595    21A     -0.575969
      22A     -0.544790    23A     -0.516175    24A     -0.489295
      25A     -0.487259    26A     -0.470688    27A     -0.467907
      28A     -0.440846

  @DF-RHF Final Energy:  -345.04003994125509

   => Energetics <=

    Nuclear Repulsion Energy =            313.7893980540968073
    One-Electron Energy =               -1092.1213048976544542
    Two-Electron Energy =                 433.2918669023023313
    DFT Exchange-Correlation Energy =       0.0000000000000000
    Empirical Dispersion Energy =           0.0000000000000000
    PCM Polarization Energy =               0.0000000000000000
    EFP Energy =                            0.0000000000000000
    Total Energy =                       -345.0400399412552588
    Molecular point group: c1
  Basis Set: CC-PVTZ
  Basis Set:

  -Total Gradient:
     Atom            X                  Y                   Z
    ------   -----------------  -----------------  -----------------
       1        0.000000619383     0.000002575394    -0.000001074324
       2       -0.000003803309     0.000003530831    -0.000004441111
       3        0.000005036906     0.000001314066    -0.000000643978
       4        0.002290280744    -0.002979520947     0.002220983051
       5       -0.000001028451    -0.000003321015    -0.000001616799
       6        0.001747839093    -0.002796054978    -0.002583411524
       7       -0.002181482960     0.002917230238    -0.001450486103
       8        0.000001717567    -0.000003361642    -0.000001904659
       9       -0.000001456253    -0.000000435178     0.000005101527
      10       -0.001859386862     0.002858388038     0.001822526852
      11        0.000000232038     0.000000099679     0.000000080856
      12        0.000001938903     0.000000923360    -0.000005782520
      13        0.000002810516     0.000003608510    -0.000000083601
      14       -0.000000716952    -0.000001216623     0.000001511530
      15        0.000000213889     0.000000964536    -0.000000174351
      16       -0.000000017817    -0.000000319389    -0.000000054020
      17       -0.000002796433    -0.000004404882    -0.000000530824

  **** Optimization is complete! (in 23 steps) ****
    Final optimized geometry and variables:
    Molecular point group: c1

    Geometry (in Angstrom), charge = 0, multiplicity = 1:

    H           -0.662578889892    -2.546859331067     0.752826477685
    O           -0.828153223448    -1.645404407545     0.986245011877
    C           -0.985391790888    -0.946118628046    -0.132945664795
    C           -1.233698475612     0.517167931618     0.116125359037
    O           -0.926367110854    -1.451163337716    -1.201553597385
    C            0.032225677145     1.410010903855     0.006651041473
    H           -1.702712356259     0.646690784868     1.080492096546
    H           -1.949880449189     0.827864672456    -0.631367738936
    C            1.382220307720     0.705043982396     0.118153506158
    H           -0.015068604937     1.969669176005    -0.919676039881
    H           -0.031252294801     2.154816280096     0.792541473763
    C            2.547761518548     1.685933552386     0.049430087393
    H            1.481845350839    -0.023822375627    -0.678679834656
    H            1.429558303991     0.154905148370     1.052625683813
    H            2.543960947597     2.232924483684    -0.887300713201
    H            3.496477720047     1.168067430948     0.125658955869
    H            2.500162886493     2.410245259976     0.855677685661

  Mulliken Charges: (a.u.)
   Center  Symbol    Alpha    Beta     Spin     Total
       1     H     0.38058  0.38058  0.00000  0.23884
       2     O     4.16634  4.16634  0.00000 -0.33268
       3     C     2.79152  2.79152  0.00000  0.41697
       4     C     3.09808  3.09808  0.00000 -0.19615
       5     O     4.20252  4.20252  0.00000 -0.40504
       6     C     3.09154  3.09154  0.00000 -0.18308
       7     H     0.43988  0.43988  0.00000  0.12025
       8     H     0.43664  0.43664  0.00000  0.12672
       9     C     3.09759  3.09759  0.00000 -0.19519
      10     H     0.44730  0.44730  0.00000  0.10540
      11     H     0.45037  0.45037  0.00000  0.09927
      12     C     3.15145  3.15145  0.00000 -0.30291
      13     H     0.44405  0.44405  0.00000  0.11189
      14     H     0.44631  0.44631  0.00000  0.10739
      15     H     0.45389  0.45389  0.00000  0.09222
      16     H     0.44674  0.44674  0.00000  0.10652
      17     H     0.45522  0.45522  0.00000  0.08957

   Total alpha = 28.00000, Total beta = 28.00000, Total charge =  0.00000

*** Psi4 exiting successfully. Buy a developer a beer!
