  ==> Input File <==

--------------------------------------------------------------------------
set {
	reference rhf
	basis 6-31G*
}

set_num_threads( 4 )
memory 2 gb

molecule MOL {
0 1

H	 2.166143	 1.081862	 1.081213
O	 1.292962	 0.705986	 1.136527
C	 1.050492	 0.053836	 0.000068
C	 -0.318135	 -0.576402	 0.000164
O	 1.845676	 0.001161	 -0.880787
C	 -1.454360	 0.441875	 -0.000474
H	 -0.374042	 -1.230163	 -0.866135
H	 -0.374274	 -1.229227	 0.867154
C	 -2.826123	 -0.230780	 0.000056
H	 -1.357605	 1.085198	 -0.868380
H	 -1.357504	 1.086451	 0.866496
H	 -2.959731	 -0.858053	 -0.876869
H	 -3.619374	 0.509403	 -0.000080
H	 -2.959371	 -0.857318	 0.877556

	symmetry c1
}
set optking {
	frozen_dihedral = ("
		2 3 4 7
	")
}

ee = optimize('scf')
oeprop('DIPOLE', 'QUADRUPOLE', 'MULLIKEN_CHARGES')
f=open( 'psi4out.xyz', 'w' )
f.write( "14  " )
f.write( str(ee) + "\n" )
f.write( MOL.save_string_xyz() )
f.close()
--------------------------------------------------------------------------

    Molecular point group: c1
  Charge       = 0
  Multiplicity = 1
  Basis Set: 6-31G*
  Basis Set:
  @DF-RHF Final Energy:  -305.87911436701177
    Total Energy =                       -305.8791143670116526
    Molecular point group: c1
  Basis Set: 6-31G*
  Basis Set:
  Basis Set: 6-31G*
  Basis Set:
  @DF-RHF Final Energy:  -305.87943341531303
    Total Energy =                       -305.8794334153134287
  Basis Set: 6-31G*
  Basis Set:
  Basis Set: 6-31G*
  Basis Set:
  @DF-RHF Final Energy:  -305.87938160526443
    Total Energy =                       -305.8793816052645980
  Basis Set: 6-31G*
  Basis Set:
  Basis Set: 6-31G*
  Basis Set:
  @DF-RHF Final Energy:  -305.87946044694377
    Total Energy =                       -305.8794604469437672
  Basis Set: 6-31G*
  Basis Set:
  Basis Set: 6-31G*
  Basis Set:
  @DF-RHF Final Energy:  -305.87947691811792
    Total Energy =                       -305.8794769181174615
  Basis Set: 6-31G*
  Basis Set:
  Charge       = 0
  Multiplicity = 1
  Basis Set: 6-31G*
  Basis Set:

    Orbital Energies (a.u.)
    -----------------------

    Doubly Occupied:

       1A    -20.613244     2A    -20.550260     3A    -11.380194
       4A    -11.239760     5A    -11.235335     6A    -11.221159
       7A     -1.474196     8A     -1.364638     9A     -1.086565
      10A     -0.979685    11A     -0.849534    12A     -0.811900
      13A     -0.701551    14A     -0.685121    15A     -0.644912
      16A     -0.632157    17A     -0.593356    18A     -0.565559
      19A     -0.553462    20A     -0.518839    21A     -0.499793
      22A     -0.488669    23A     -0.472934    24A     -0.437920

  @DF-RHF Final Energy:  -305.87947699777794

   => Energetics <=

    Nuclear Repulsion Energy =            240.4325442194086691
    One-Electron Energy =                -893.4225566515855235
    Two-Electron Energy =                 347.1105354343987983
    DFT Exchange-Correlation Energy =       0.0000000000000000
    Empirical Dispersion Energy =           0.0000000000000000
    PCM Polarization Energy =               0.0000000000000000
    EFP Energy =                            0.0000000000000000
    Total Energy =                       -305.8794769977780561
    Molecular point group: c1
  Basis Set: 6-31G*
  Basis Set:

  -Total Gradient:
     Atom            X                  Y                   Z
    ------   -----------------  -----------------  -----------------
       1        0.000006655163     0.000025653488     0.000008252827
       2        0.000039237362    -0.000046541194     0.000010463368
       3       -0.000046635016     0.000021879892    -0.000031840236
       4       -0.000038571002     0.000077032681    -0.000056979755
       5        0.000002553719    -0.000005471699     0.000033561044
       6        0.000016933317    -0.000057618102     0.000026413441
       7        0.000030264146    -0.000070689103     0.000002045146
       8        0.000002720251    -0.000005961752     0.000001317298
       9        0.000010005857     0.000035530117     0.000010915056
      10       -0.000013846161    -0.000031116690    -0.000002990613
      11       -0.000036611765     0.000037010665     0.000007480290
      12        0.000011602339     0.000015471609    -0.000008535691
      13       -0.000012616254     0.000003565052     0.000010681911
      14        0.000028308043     0.000001255034    -0.000010784084

  **** Optimization is complete! (in 6 steps) ****
    Final optimized geometry and variables:
    Molecular point group: c1

    Geometry (in Angstrom), charge = 0, multiplicity = 1:

    H            2.210301393283     1.012562201902     1.001919899723
    O            1.348906343114     0.614327931433     1.081016608885
    C            1.084410235551    -0.028814379859    -0.056534088300
    C           -0.274964397740    -0.676366782175    -0.043262584531
    O            1.855702850499    -0.055389280387    -0.959773526983
    C           -1.411621640253     0.356834910124    -0.047268313360
    H           -0.335026662827    -1.315496590381    -0.914457198325
    H           -0.348217120327    -1.296526309021     0.844761467728
    C           -2.786038063022    -0.309129984617    -0.067176835711
    H           -1.306479495859     0.999382715356    -0.917194875417
    H           -1.322789080486     0.992210371705     0.827208919225
    H           -2.910507710701    -0.927929254465    -0.950736964584
    H           -3.575892359673     0.434745617319    -0.069283169803
    H           -2.927980353848    -0.941253844379     0.804506898008

  Mulliken Charges: (a.u.)
   Center  Symbol    Alpha    Beta     Spin     Total
       1     H     0.26757  0.26757  0.00000  0.46486
       2     O     4.34757  4.34757  0.00000 -0.69514
       3     C     2.63255  2.63255  0.00000  0.73489
       4     C     3.19816  3.19816  0.00000 -0.39632
       5     O     4.27825  4.27825  0.00000 -0.55649
       6     C     3.16514  3.16514  0.00000 -0.33028
       7     H     0.39742  0.39742  0.00000  0.20515
       8     H     0.40270  0.40270  0.00000  0.19459
       9     C     3.24125  3.24125  0.00000 -0.48250
      10     H     0.41183  0.41183  0.00000  0.17634
      11     H     0.40636  0.40636  0.00000  0.18728
      12     H     0.41791  0.41791  0.00000  0.16418
      13     H     0.41442  0.41442  0.00000  0.17116
      14     H     0.41886  0.41886  0.00000  0.16229

   Total alpha = 24.00000, Total beta = 24.00000, Total charge =  0.00000
