  ==> Input File <==

--------------------------------------------------------------------------
set {
	reference rhf
	basis 6-31G*
}

set_num_threads( 4 )
memory 2 gb

molecule MOL {
0 1

H	 3.522913	 -0.855391	 1.446744
O	 2.704283	 -1.113607	 1.034525
C	 1.947878	 -0.024539	 0.899631
C	 0.624473	 -0.343591	 0.253101
O	 2.313554	 1.046730	 1.259743
C	 -0.265902	 0.883932	 0.072916
H	 0.842571	 -0.831830	 -0.691053
H	 0.137737	 -1.094559	 0.870262
C	 -1.728698	 0.646073	 0.462102
H	 -0.209144	 1.219470	 -0.958188
H	 0.135059	 1.692851	 0.673903
C	 -2.482460	 -0.343073	 -0.431425
H	 -2.245265	 1.602650	 0.432430
H	 -1.779332	 0.308348	 1.496285
C	 -3.960546	 -0.461025	 -0.060175
H	 -2.395034	 -0.026811	 -1.468912
H	 -2.024850	 -1.327147	 -0.371646
H	 -4.472726	 -1.168004	 -0.705284
H	 -4.465146	 0.496508	 -0.151489
H	 -4.081218	 -0.800940	 0.964585

	symmetry c1
}
set optking {
	frozen_dihedral = ("
		7 4 6 10
	")
}

ee = optimize('scf')
oeprop('DIPOLE', 'QUADRUPOLE', 'MULLIKEN_CHARGES')
f=open( 'psi4out.xyz', 'w' )
f.write( "20  " )
f.write( str(ee) + "\n" )
f.write( MOL.save_string_xyz() )
f.close()
--------------------------------------------------------------------------

    Molecular point group: c1
  Charge       = 0
  Multiplicity = 1
  Basis Set: 6-31G*
  Basis Set:
  @DF-RHF Final Energy:  -383.94518887730760
    Total Energy =                       -383.9451888773078849
    Molecular point group: c1
  Basis Set: 6-31G*
  Basis Set:
  Basis Set: 6-31G*
  Basis Set:
  @DF-RHF Final Energy:  -383.94550002474267
    Total Energy =                       -383.9455000247423868
  Basis Set: 6-31G*
  Basis Set:
  Basis Set: 6-31G*
  Basis Set:
  @DF-RHF Final Energy:  -383.94552478657226
    Total Energy =                       -383.9455247865722640
  Basis Set: 6-31G*
  Basis Set:
  Basis Set: 6-31G*
  Basis Set:
  @DF-RHF Final Energy:  -383.94556360750795
    Total Energy =                       -383.9455636075078928
  Basis Set: 6-31G*
  Basis Set:
  @DF-RHF Final Energy:  -383.94546693088432
    Total Energy =                       -383.9454669308846064
  Basis Set: 6-31G*
  Basis Set:
  @DF-RHF Final Energy:  -383.94561078588748
    Total Energy =                       -383.9456107858876521
  Basis Set: 6-31G*
  Basis Set:
  Basis Set: 6-31G*
  Basis Set:
  @DF-RHF Final Energy:  -383.94561023138522
    Total Energy =                       -383.9456102313853307
  Basis Set: 6-31G*
  Basis Set:
  Basis Set: 6-31G*
  Basis Set:
  @DF-RHF Final Energy:  -383.94561378032728
    Total Energy =                       -383.9456137803267666
  Basis Set: 6-31G*
  Basis Set:
  Charge       = 0
  Multiplicity = 1
  Basis Set: 6-31G*
  Basis Set:

    Orbital Energies (a.u.)
    -----------------------

    Doubly Occupied:

       1A    -20.612692     2A    -20.552270     3A    -11.381732
       4A    -11.240684     5A    -11.221379     6A    -11.220088
       7A    -11.219287     8A    -11.212065     9A     -1.475063
      10A     -1.365965    11A     -1.094901    12A     -1.039607
      13A     -0.961276    14A     -0.868511    15A     -0.815888
      16A     -0.776127    17A     -0.700486    18A     -0.690494
      19A     -0.663531    20A     -0.635879    21A     -0.600821
      22A     -0.593190    23A     -0.574451    24A     -0.551225
      25A     -0.546625    26A     -0.509048    27A     -0.497865
      28A     -0.479687    29A     -0.467457    30A     -0.466055
      31A     -0.456675    32A     -0.445314

  @DF-RHF Final Energy:  -383.94561430264264

   => Energetics <=

    Nuclear Repulsion Energy =            376.1969789864248241
    One-Electron Energy =               -1268.4125059949835759
    Two-Electron Energy =                 508.2699127059159991
    DFT Exchange-Correlation Energy =       0.0000000000000000
    Empirical Dispersion Energy =           0.0000000000000000
    PCM Polarization Energy =               0.0000000000000000
    EFP Energy =                            0.0000000000000000
    Total Energy =                       -383.9456143026427526
    Molecular point group: c1
  Basis Set: 6-31G*
  Basis Set:

  -Total Gradient:
     Atom            X                  Y                   Z
    ------   -----------------  -----------------  -----------------
       1        0.000001474153     0.000001054192    -0.000000713031
       2       -0.000008917543     0.000004086322    -0.000005380816
       3       -0.000006322903    -0.000003805125     0.000020648213
       4       -0.003718291846    -0.002554359860     0.000396738279
       5        0.000015850264    -0.000000613654    -0.000012346266
       6        0.003540020276     0.002634769013     0.000659263664
       7        0.002501262214     0.001691558786    -0.000419206549
       8        0.000010087526    -0.000004734261    -0.000007232559
       9       -0.000000312580    -0.000013133288     0.000001952996
      10       -0.002335755037    -0.001747998972    -0.000636346748
      11       -0.000004197018    -0.000009946479    -0.000002548766
      12       -0.000000616172     0.000011257274     0.000000975410
      13        0.000001019476    -0.000005829488    -0.000001469564
      14       -0.000001459805    -0.000001593229     0.000006483093
      15       -0.000002317974    -0.000000539302     0.000000325197
      16        0.000005779236     0.000001236728     0.000002796270
      17        0.000004692428    -0.000003308865    -0.000001506032
      18       -0.000000735926    -0.000002678905     0.000001484968
      19       -0.000002398776    -0.000000347316    -0.000003932794
      20        0.000001139990     0.000004926428     0.000000015033

  **** Optimization is complete! (in 9 steps) ****
    Final optimized geometry and variables:
    Molecular point group: c1

    Geometry (in Angstrom), charge = 0, multiplicity = 1:

    H            3.586964699823    -0.926710887561     0.940842371781
    O            2.747673283651    -1.164667008578     0.559234653613
    C            2.016624384387    -0.055964080236     0.444105886840
    C            0.661626043818    -0.355229170898    -0.152312255092
    O            2.426972852026     1.005611387186     0.784081022216
    C           -0.215031150314     0.889482293967    -0.358329763709
    H            0.859067656844    -0.872871154407    -1.085407198274
    H            0.190314609077    -1.081147728295     0.503504217055
    C           -1.687273289963     0.666633971449     0.006364006814
    H           -0.165092924387     1.194724744563    -1.399705490061
    H            0.182599616140     1.704366138827     0.231723340670
    C           -2.413718523315    -0.338913556819    -0.890611395574
    H           -2.204063869198     1.622007971339    -0.049718961620
    H           -1.757347999648     0.344481027439     1.044314496785
    C           -3.885762906951    -0.510509000475    -0.516982412018
    H           -2.339815480020    -0.010920412602    -1.925586637442
    H           -1.919609997507    -1.306651483167    -0.842372670393
    H           -4.377124631329    -1.224496241733    -1.170552268159
    H           -4.421446742108     0.431386776394    -0.593234381088
    H           -3.992044018829    -0.868313932799     0.503236094059

  Mulliken Charges: (a.u.)
   Center  Symbol    Alpha    Beta     Spin     Total
       1     H     0.26767  0.26767  0.00000  0.46467
       2     O     4.35006  4.35006  0.00000 -0.70012
       3     C     2.62916  2.62916  0.00000  0.74168
       4     C     3.21228  3.21228  0.00000 -0.42456
       5     O     4.27839  4.27839  0.00000 -0.55678
       6     C     3.16166  3.16166  0.00000 -0.32331
       7     H     0.39562  0.39562  0.00000  0.20877
       8     H     0.39670  0.39670  0.00000  0.20660
       9     C     3.15673  3.15673  0.00000 -0.31347
      10     H     0.41754  0.41754  0.00000  0.16492
      11     H     0.39353  0.39353  0.00000  0.21293
      12     C     3.15438  3.15438  0.00000 -0.30876
      13     H     0.41874  0.41874  0.00000  0.16252
      14     H     0.42300  0.42300  0.00000  0.15401
      15     C     3.23911  3.23911  0.00000 -0.47822
      16     H     0.42239  0.42239  0.00000  0.15521
      17     H     0.42249  0.42249  0.00000  0.15502
      18     H     0.41856  0.41856  0.00000  0.16288
      19     H     0.42067  0.42067  0.00000  0.15866
      20     H     0.42132  0.42132  0.00000  0.15735

   Total alpha = 32.00000, Total beta = 32.00000, Total charge = -0.00000
