  ==> Input File <==

--------------------------------------------------------------------------
set {
	reference rhf
	basis 6-31G*
}

set_num_threads( 4 )
memory 2 gb

molecule MOL {
0 1

O	 -0.982046	 2.266015	 1.535226
C	 -0.989038	 1.949324	 0.384534
C	 0.243653	 1.343931	 -0.263755
C	 -2.225025	 2.102418	 -0.473530
C	 0.379448	 -0.143569	 0.099626
H	 1.108178	 1.886417	 0.103136
H	 0.204166	 1.460410	 -1.343060
C	 1.631333	 -0.777471	 -0.511575
H	 0.397911	 -0.227290	 1.180383
H	 -0.500379	 -0.686181	 -0.242753
C	 2.915987	 -0.544314	 0.291766
H	 1.766672	 -0.399098	 -1.523130
H	 1.471257	 -1.849544	 -0.605828
C	 3.373361	 0.914346	 0.347591
H	 3.708709	 -1.142521	 -0.150311
H	 2.780642	 -0.921148	 1.303579
H	 3.506512	 1.320010	 -0.651625
H	 4.322697	 0.999599	 0.867103
H	 2.660624	 1.545032	 0.868198
H	 -2.043035	 2.843718	 -1.247235
H	 -3.061590	 2.416605	 0.134934
H	 -2.463203	 1.168641	 -0.974664

	symmetry c1
}
set optking {
	frozen_dihedral = ("
		3 5 8 12
	")
}

ee = optimize('scf')
oeprop('DIPOLE', 'QUADRUPOLE', 'MULLIKEN_CHARGES')
f=open( 'psi4out.xyz', 'w' )
f.write( "22  " )
f.write( str(ee) + "\n" )
f.write( MOL.save_string_xyz() )
f.close()
--------------------------------------------------------------------------

    Molecular point group: c1
  Charge       = 0
  Multiplicity = 1
  Basis Set: 6-31G*
  Basis Set:
  @DF-RHF Final Energy:  -348.08980088555950
    Total Energy =                       -348.0898008855591002
    Molecular point group: c1
  Basis Set: 6-31G*
  Basis Set:
  Basis Set: 6-31G*
  Basis Set:
  @DF-RHF Final Energy:  -348.09324541991720
    Total Energy =                       -348.0932454199169683
  Basis Set: 6-31G*
  Basis Set:
  Basis Set: 6-31G*
  Basis Set:
  @DF-RHF Final Energy:  -348.09351785245821
    Total Energy =                       -348.0935178524580351
  Basis Set: 6-31G*
  Basis Set:
  Basis Set: 6-31G*
  Basis Set:
  @DF-RHF Final Energy:  -348.09242433565686
    Total Energy =                       -348.0924243356566876
  Basis Set: 6-31G*
  Basis Set:
  @DF-RHF Final Energy:  -348.09353393998549
    Total Energy =                       -348.0935339399857185
  @DF-RHF Final Energy:  -348.09294593236325
    Total Energy =                       -348.0929459323634205
  @DF-RHF Final Energy:  -348.09352451145799
    Total Energy =                       -348.0935245114579857
  @DF-RHF Final Energy:  -348.09354741627959
    Total Energy =                       -348.0935474162798755
  Basis Set: 6-31G*
  Basis Set:
  @DF-RHF Final Energy:  -348.09355211782997
    Total Energy =                       -348.0935521178298586
  Basis Set: 6-31G*
  Basis Set:
  Basis Set: 6-31G*
  Basis Set:
  @DF-RHF Final Energy:  -348.09357578606262
    Total Energy =                       -348.0935757860627291
  Basis Set: 6-31G*
  Basis Set:
  Basis Set: 6-31G*
  Basis Set:
  @DF-RHF Final Energy:  -348.09357837906600
    Total Energy =                       -348.0935783790661162
  Basis Set: 6-31G*
  Basis Set:
  Charge       = 0
  Multiplicity = 1
  Basis Set: 6-31G*
  Basis Set:

    Orbital Energies (a.u.)
    -----------------------

    Doubly Occupied:

       1A    -20.547133     2A    -11.324044     3A    -11.230471
       4A    -11.227987     5A    -11.227788     6A    -11.223028
       7A    -11.220325     8A    -11.211384     9A     -1.392824
      10A     -1.093308    11A     -1.042014    12A     -0.998291
      13A     -0.944062    14A     -0.857001    15A     -0.783048
      16A     -0.734020    17A     -0.657474    18A     -0.649726
      19A     -0.626489    20A     -0.609278    21A     -0.598292
      22A     -0.586493    23A     -0.556695    24A     -0.550935
      25A     -0.531543    26A     -0.525548    27A     -0.498861
      28A     -0.487917    29A     -0.467970    30A     -0.464103
      31A     -0.453276    32A     -0.395631

  @DF-RHF Final Energy:  -348.09357845777549

   => Energetics <=

    Nuclear Repulsion Energy =            378.5947157539410455
    One-Electron Energy =               -1221.9426706413150896
    Two-Electron Energy =                 495.2543764295986648
    DFT Exchange-Correlation Energy =       0.0000000000000000
    Empirical Dispersion Energy =           0.0000000000000000
    PCM Polarization Energy =               0.0000000000000000
    EFP Energy =                            0.0000000000000000
    Total Energy =                       -348.0935784577753793
    Molecular point group: c1
  Basis Set: 6-31G*
  Basis Set:

  -Total Gradient:
     Atom            X                  Y                   Z
    ------   -----------------  -----------------  -----------------
       1        0.000000233291    -0.000005898168     0.000002364956
       2       -0.000003642800     0.000001038282    -0.000003194925
       3        0.000385686123     0.000193699101     0.000581978972
       4        0.000002718244     0.000018017864    -0.000000033559
       5       -0.000685315703    -0.000464936546    -0.000911037228
       6        0.000007992422     0.000002778899     0.000003393227
       7        0.000000006766     0.000001018575     0.000000377490
       8        0.000862152287     0.001024086548     0.000641885841
       9       -0.000000328341    -0.000002064412     0.000000201342
      10        0.000005326771    -0.000001478479    -0.000000823686
      11       -0.000008276110     0.000002283692     0.000011410602
      12       -0.000566162083    -0.000757905548    -0.000328196206
      13       -0.000007391132     0.000001263410     0.000004161979
      14        0.000009968128    -0.000007196055    -0.000006072054
      15        0.000000104511     0.000007493154    -0.000000784534
      16        0.000002477904    -0.000003383809     0.000001269459
      17        0.000000173823    -0.000000437905    -0.000000552389
      18        0.000003611739     0.000002516947     0.000000751908
      19       -0.000008568849     0.000001832838     0.000002000712
      20       -0.000001075583    -0.000005515727    -0.000000967444
      21       -0.000000745249    -0.000001490851     0.000000240593
      22        0.000001053843    -0.000005721809     0.000001624943

  **** Optimization is complete! (in 12 steps) ****
    Final optimized geometry and variables:
    Molecular point group: c1

    Geometry (in Angstrom), charge = 0, multiplicity = 1:

    O           -1.623047440514     1.403233607036     1.328368537992
    C           -1.604272258979     1.057417711675     0.186146423485
    C           -0.332238096714     0.513656350977    -0.441349913966
    C           -2.841001056226     1.120712927617    -0.682531844273
    C           -0.141912247182    -0.967853438357    -0.068385619980
    H            0.490201213266     1.112403936369    -0.076201430302
    H           -0.369407619435     0.614412983038    -1.522551063216
    C            1.103599249213    -1.639266123529    -0.672132391088
    H           -0.122925964521    -1.056446576039     1.013957768634
    H           -1.019031655242    -1.516863662228    -0.403480881716
    C            2.419230396323    -1.489197157670     0.104398428245
    H            1.238055404450    -1.302176237407    -1.698701447280
    H            0.899241765696    -2.704896820135    -0.739661223114
    C            3.003602789170    -0.078614069545     0.200749086109
    H            3.153500160853    -2.132256708876    -0.374802939552
    H            2.281726349096    -1.886866449183     1.107532923625
    H            3.077664545137     0.387777304752    -0.778003592221
    H            4.002686432530    -0.113503345992     0.624018718379
    H            2.409383215896     0.567161689177     0.836899823238
    H           -2.698656242901     1.861059230143    -1.465404877066
    H           -3.699811930848     1.391920743460    -0.084473491357
    H           -3.018063160839     0.167477393697    -1.171965059418

  Mulliken Charges: (a.u.)
   Center  Symbol    Alpha    Beta     Spin     Total
       1     O     4.26259  4.26259  0.00000 -0.52518
       2     C     2.73803  2.73803  0.00000  0.52395
       3     C     3.20083  3.20083  0.00000 -0.40165
       4     C     3.28948  3.28948  0.00000 -0.57896
       5     C     3.16518  3.16518  0.00000 -0.33036
       6     H     0.39765  0.39765  0.00000  0.20470
       7     H     0.41760  0.41760  0.00000  0.16479
       8     C     3.15509  3.15509  0.00000 -0.31019
       9     H     0.40595  0.40595  0.00000  0.18809
      10     H     0.41936  0.41936  0.00000  0.16128
      11     C     3.15114  3.15114  0.00000 -0.30228
      12     H     0.42322  0.42322  0.00000  0.15356
      13     H     0.41804  0.41804  0.00000  0.16391
      14     C     3.24418  3.24418  0.00000 -0.48836
      15     H     0.42051  0.42051  0.00000  0.15899
      16     H     0.42056  0.42056  0.00000  0.15889
      17     H     0.42294  0.42294  0.00000  0.15412
      18     H     0.41756  0.41756  0.00000  0.16489
      19     H     0.41629  0.41629  0.00000  0.16742
      20     H     0.40680  0.40680  0.00000  0.18640
      21     H     0.39713  0.39713  0.00000  0.20574
      22     H     0.40987  0.40987  0.00000  0.18026

   Total alpha = 32.00000, Total beta = 32.00000, Total charge =  0.00000
