  ==> Input File <==

--------------------------------------------------------------------------
set {
	reference rhf
	basis 6-31G*
}

set_num_threads( 4 )
memory 2 gb

molecule MOL {
0 1

H	 -2.078599	 -1.195644	 1.349977
C	 -2.435624	 -0.809112	 0.397472
O	 -1.392607	 -0.295399	 -0.366433
H	 -2.882667	 -1.618363	 -0.163248
H	 -3.196957	 -0.055478	 0.594540
C	 -0.719715	 0.768384	 0.229244
C	 0.719720	 0.768376	 -0.229267
H	 -1.185038	 1.714362	 -0.050570
H	 -0.750528	 0.687237	 1.313896
O	 1.392611	 -0.295398	 0.366430
H	 0.750534	 0.687200	 -1.313918
H	 1.185043	 1.714359	 0.050526
C	 2.706965	 -0.449871	 -0.062409
H	 2.756559	 -0.644779	 -1.131878
H	 3.305899	 0.433456	 0.155466
H	 3.125548	 -1.294566	 0.467107

	symmetry c1
}
set optking {
	frozen_dihedral = ("
		2 3 6 7
	")
}

ee = optimize('scf')
oeprop('DIPOLE', 'QUADRUPOLE', 'MULLIKEN_CHARGES')
f=open( 'psi4out.xyz', 'w' )
f.write( "16  " )
f.write( str(ee) + "\n" )
f.write( MOL.save_string_xyz() )
f.close()
--------------------------------------------------------------------------

    Molecular point group: c1
  Charge       = 0
  Multiplicity = 1
  Basis Set: 6-31G*
  Basis Set:
  @DF-RHF Final Energy:  -306.97657385461650
    Total Energy =                       -306.9765738546163902
    Molecular point group: c1
  Basis Set: 6-31G*
  Basis Set:
  Basis Set: 6-31G*
  Basis Set:
  @DF-RHF Final Energy:  -306.97665118530136
    Total Energy =                       -306.9766511853015913
  Basis Set: 6-31G*
  Basis Set:
  Basis Set: 6-31G*
  Basis Set:
  @DF-RHF Final Energy:  -306.97666751264279
    Total Energy =                       -306.9766675126426776
  Basis Set: 6-31G*
  Basis Set:
  Charge       = 0
  Multiplicity = 1
  Basis Set: 6-31G*
  Basis Set:

    Orbital Energies (a.u.)
    -----------------------

    Doubly Occupied:

       1A    -20.554212     2A    -20.551341     3A    -11.268361
       4A    -11.267703     5A    -11.264105     6A    -11.262204
       7A     -1.387270     8A     -1.368825     9A     -1.030215
      10A     -0.936807    11A     -0.890598    12A     -0.823848
      13A     -0.681785    14A     -0.681096    15A     -0.656206
      16A     -0.632553    17A     -0.630218    18A     -0.599338
      19A     -0.545077    20A     -0.538932    21A     -0.510586
      22A     -0.476970    23A     -0.462438    24A     -0.417088
      25A     -0.410211

  @DF-RHF Final Energy:  -306.97666810561202

   => Energetics <=

    Nuclear Repulsion Energy =            259.7815815876051602
    One-Electron Energy =                -933.8205245757752664
    Two-Electron Energy =                 367.0622748825580857
    DFT Exchange-Correlation Energy =       0.0000000000000000
    Empirical Dispersion Energy =           0.0000000000000000
    PCM Polarization Energy =               0.0000000000000000
    EFP Energy =                            0.0000000000000000
    Total Energy =                       -306.9766681056120206
    Molecular point group: c1
  Basis Set: 6-31G*
  Basis Set:

  -Total Gradient:
     Atom            X                  Y                   Z
    ------   -----------------  -----------------  -----------------
       1        0.000005053507     0.000018705628    -0.000006845306
       2        0.000923799719    -0.000979401579     0.000646399863
       3       -0.001223147649     0.001082201411    -0.000493956282
       4       -0.000009160095    -0.000002765532    -0.000004463751
       5        0.000027420398     0.000003962106    -0.000015805071
       6       -0.000059626346     0.000663565994    -0.001157836113
       7        0.000338159915    -0.000779398354     0.001085815267
       8        0.000001086455    -0.000002788589     0.000006167574
       9        0.000002181173    -0.000020977989    -0.000005806282
      10       -0.000019754028     0.000015954505    -0.000052511923
      11        0.000004933603    -0.000014307827     0.000010612658
      12        0.000003041377     0.000026974908    -0.000011727964
      13        0.000006718549    -0.000013212467    -0.000000198498
      14        0.000002834267    -0.000000049592     0.000000329450
      15       -0.000006421932     0.000001938896     0.000000973137
      16        0.000002881086    -0.000000401518    -0.000001146761

  **** Optimization is complete! (in 4 steps) ****
    Final optimized geometry and variables:
    Molecular point group: c1

    Geometry (in Angstrom), charge = 0, multiplicity = 1:

    H           -2.131593002288    -1.137478605596     1.289219818863
    C           -2.485316625796    -0.756412722305     0.334308032211
    O           -1.439654020697    -0.229895990009    -0.418704404830
    H           -2.913840382839    -1.571778614141    -0.232252345368
    H           -3.261411696079    -0.015782522600     0.521288853786
    C           -0.763401721236     0.838344840319     0.171197585633
    C            0.675433053660     0.838194398092    -0.290834148138
    H           -1.238179069544     1.780158019219    -0.101046142088
    H           -0.777785672965     0.756159244806     1.254894364862
    O            1.343721697250    -0.226008480180     0.310477234728
    H            0.706808078709     0.750653773877    -1.374987696968
    H            1.144212435694     1.784192846539    -0.016654818023
    C            2.654506470583    -0.395685408108    -0.124261753798
    H            2.696251954812    -0.600831613108    -1.192048362533
    H            3.261594078947     0.484650073336     0.081988044206
    H            3.069372222509    -1.238838246329     0.410749012645

  Mulliken Charges: (a.u.)
   Center  Symbol    Alpha    Beta     Spin     Total
       1     H     0.42540  0.42540  0.00000  0.14920
       2     C     3.07940  3.07940  0.00000 -0.15880
       3     O     4.30340  4.30340  0.00000 -0.60680
       4     H     0.41267  0.41267  0.00000  0.17466
       5     H     0.43209  0.43209  0.00000  0.13582
       6     C     2.99405  2.99405  0.00000  0.01191
       7     C     2.99345  2.99345  0.00000  0.01310
       8     H     0.42863  0.42863  0.00000  0.14274
       9     H     0.42302  0.42302  0.00000  0.15397
      10     O     4.30215  4.30215  0.00000 -0.60430
      11     H     0.42258  0.42258  0.00000  0.15485
      12     H     0.43272  0.43272  0.00000  0.13455
      13     C     3.07936  3.07936  0.00000 -0.15872
      14     H     0.42780  0.42780  0.00000  0.14440
      15     H     0.43158  0.43158  0.00000  0.13684
      16     H     0.41171  0.41171  0.00000  0.17658

   Total alpha = 25.00000, Total beta = 25.00000, Total charge =  0.00000
