  ==> Input File <==

--------------------------------------------------------------------------
set {
	reference rhf
	basis 6-31G*
}

set_num_threads( 1 )
memory 2 gb

molecule MOL {
0 1

O	 -2.796348	 1.274709	 0.433760
C	 -2.655162	 0.111424	 0.230163
C	 -3.789634	 -0.880335	 0.204581
O	 -1.481751	 -0.454642	 0.000584
H	 -4.501203	 -0.575520	 -0.553456
H	 -3.443728	 -1.883124	 0.001597
H	 -4.297733	 -0.852465	 1.161105
C	 -0.334255	 0.388708	 0.000906
C	 0.891947	 -0.504646	 0.000751
H	 -0.365390	 1.025305	 -0.873475
H	 -0.365484	 1.024911	 0.875569
C	 2.191998	 0.301789	 0.000897
H	 0.855148	 -1.151283	 -0.871571
H	 0.855132	 -1.151660	 0.872805
C	 3.441114	 -0.581407	 0.000108
H	 2.215074	 0.954890	 -0.869742
H	 2.215465	 0.953923	 0.872248
C	 4.739576	 0.224112	 -0.001102
H	 3.419457	 -1.233487	 -0.870178
H	 3.420834	 -1.233096	 0.870717
H	 4.804918	 0.861552	 -0.878265
H	 5.606527	 -0.429058	 -0.001824
H	 4.806469	 0.861674	 0.875853

	symmetry c1
}
set optking {
	frozen_dihedral = ("
		13 9 8 10,
		16 12 9 13,
		19 15 12 16,
		1 2 4 8
	")
}

ee = energy('scf')
oeprop('DIPOLE', 'QUADRUPOLE', 'MULLIKEN_CHARGES')
f=open( 'psi4out.xyz', 'w' )
f.write( "23  " )
f.write( str(ee) + "\n" )
f.write( MOL.save_string_xyz() )
f.close()
--------------------------------------------------------------------------

    Molecular point group: c1

    Geometry (in Angstrom), charge = 0, multiplicity = 1:

       Center              X                  Y                   Z               Mass
    ------------   -----------------  -----------------  -----------------  -----------------
           O         -2.802065211558     1.282525494961     0.335380512582    15.994914619560
           C         -2.660879211558     0.119240494961     0.131783512582    12.000000000000
           C         -3.795351211558    -0.872518505039     0.106201512582    12.000000000000
           O         -1.487468211558    -0.446825505039    -0.097795487418    15.994914619560
           H         -4.506920211558    -0.567703505039    -0.651835487418     1.007825032070
           H         -3.449445211558    -1.875307505039    -0.096782487418     1.007825032070
           H         -4.303450211558    -0.844648505039     1.062725512582     1.007825032070
           C         -0.339972211558     0.396524494961    -0.097473487418    12.000000000000
           C          0.886229788442    -0.496829505039    -0.097628487418    12.000000000000
           H         -0.371107211558     1.033121494961    -0.971854487418     1.007825032070
           H         -0.371201211558     1.032727494961     0.777189512582     1.007825032070
           C          2.186280788442     0.309605494961    -0.097482487418    12.000000000000
           H          0.849430788442    -1.143466505039    -0.969950487418     1.007825032070
           H          0.849414788442    -1.143843505039     0.774425512582     1.007825032070
           C          3.435396788442    -0.573590505039    -0.098271487418    12.000000000000
           H          2.209356788442     0.962706494961    -0.968121487418     1.007825032070
           H          2.209747788442     0.961739494961     0.773868512582     1.007825032070
           C          4.733858788442     0.231928494961    -0.099481487418    12.000000000000
           H          3.413739788442    -1.225670505039    -0.968557487418     1.007825032070
           H          3.415116788442    -1.225279505039     0.772337512582     1.007825032070
           H          4.799200788442     0.869368494961    -0.976644487418     1.007825032070
           H          5.600809788442    -0.421241505039    -0.100203487418     1.007825032070
           H          4.800751788442     0.869490494961     0.777473512582     1.007825032070

  Charge       = 0
  Multiplicity = 1
  Basis Set: 6-31G*
  Basis Set:

    Orbital Energies (a.u.)
    -----------------------

    Doubly Occupied:

       1A    -20.603057     2A    -20.540524     3A    -11.374231
       4A    -11.281135     5A    -11.232482     6A    -11.224308
       7A    -11.223711     8A    -11.221633     9A    -11.212944
      10A     -1.468062    11A     -1.360812    12A     -1.094153
      13A     -1.042249    14A     -1.003457    15A     -0.930893
      16A     -0.841745    17A     -0.802581    18A     -0.774404
      19A     -0.693093    20A     -0.684404    21A     -0.667651
      22A     -0.646740    23A     -0.605986    24A     -0.588402
      25A     -0.582310    26A     -0.567167    27A     -0.558078
      28A     -0.537319    29A     -0.523289    30A     -0.505158
      31A     -0.490765    32A     -0.477920    33A     -0.471156
      34A     -0.466177    35A     -0.450798    36A     -0.435107

  @DF-RHF Final Energy:  -422.97929949232622

   => Energetics <=

    Nuclear Repulsion Energy =            449.7529438277619533
    One-Electron Energy =               -1467.0967832120572893
    Two-Electron Energy =                 594.3645398919676381
    DFT Exchange-Correlation Energy =       0.0000000000000000
    Empirical Dispersion Energy =           0.0000000000000000
    PCM Polarization Energy =               0.0000000000000000
    EFP Energy =                            0.0000000000000000
    Total Energy =                       -422.9792994923276410

  Mulliken Charges: (a.u.)
   Center  Symbol    Alpha    Beta     Spin     Total
       1     O     4.28389  4.28389  0.00000 -0.56777
       2     C     2.61543  2.61543  0.00000  0.76914
       3     C     3.28785  3.28785  0.00000 -0.57570
       4     O     4.31255  4.31255  0.00000 -0.62510
       5     H     0.39742  0.39742  0.00000  0.20515
       6     H     0.39983  0.39983  0.00000  0.20034
       7     H     0.39754  0.39754  0.00000  0.20493
       8     C     2.99662  2.99662  0.00000  0.00676
       9     C     3.16457  3.16457  0.00000 -0.32915
      10     H     0.41321  0.41321  0.00000  0.17358
      11     H     0.40697  0.40697  0.00000  0.18606
      12     C     3.16008  3.16008  0.00000 -0.32016
      13     H     0.41429  0.41429  0.00000  0.17143
      14     H     0.41443  0.41443  0.00000  0.17114
      15     C     3.15141  3.15141  0.00000 -0.30282
      16     H     0.42104  0.42104  0.00000  0.15792
      17     H     0.42052  0.42052  0.00000  0.15895
      18     C     3.23988  3.23988  0.00000 -0.47975
      19     H     0.42141  0.42141  0.00000  0.15717
      20     H     0.42137  0.42137  0.00000  0.15727
      21     H     0.42091  0.42091  0.00000  0.15817
      22     H     0.41800  0.41800  0.00000  0.16400
      23     H     0.42078  0.42078  0.00000  0.15845

   Total alpha = 36.00000, Total beta = 36.00000, Total charge =  0.00000
