  ==> Input File <==

--------------------------------------------------------------------------
set {
	reference rhf
	basis cc-pvtz
}

set_num_threads( 4 )
memory 2 gb

molecule MOL {
0 1

H	 -3.162190	 0.493205	 -0.000107
C	 -2.363908	 -0.234727	 0.000005
O	 -1.158738	 0.454634	 -0.000087
H	 -2.464314	 -0.863616	 -0.882153
H	 -2.464327	 -0.863359	 0.882345
C	 -0.541745	 0.537555	 1.246011
C	 0.755514	 1.308991	 1.110372
H	 -0.345444	 -0.462503	 1.633294
H	 -1.201652	 1.034304	 1.957633
C	 1.494165	 1.444024	 2.437214
H	 1.382667	 0.805050	 0.383289
H	 0.533255	 2.289965	 0.705103
H	 1.748037	 0.472915	 2.849018
H	 2.416023	 1.998438	 2.311423
H	 0.893079	 1.968007	 3.172881

	symmetry c1
}
set optking {
	frozen_dihedral = ("
		6 3 2 4
	")
}

ee = optimize('scf')
oeprop('DIPOLE', 'QUADRUPOLE', 'MULLIKEN_CHARGES')
f=open( 'psi4out.xyz', 'w' )
f.write( "15  " )
f.write( str(ee) + "\n" )
f.write( MOL.save_string_xyz() )
f.close()
--------------------------------------------------------------------------

    Molecular point group: c1
  Charge       = 0
  Multiplicity = 1
  Basis Set: CC-PVTZ
  Basis Set:
  @DF-RHF Final Energy:  -232.22468409787555
    Total Energy =                       -232.2246840978754108
    Molecular point group: c1
  Basis Set: CC-PVTZ
  Basis Set:
  Basis Set: CC-PVTZ
  Basis Set:
  @DF-RHF Final Energy:  -232.22536883075750
    Total Energy =                       -232.2253688307572475
  Basis Set: CC-PVTZ
  Basis Set:
  Basis Set: CC-PVTZ
  Basis Set:
  @DF-RHF Final Energy:  -232.22550214605349
    Total Energy =                       -232.2255021460533726
  Basis Set: CC-PVTZ
  Basis Set:
  Charge       = 0
  Multiplicity = 1
  Basis Set: CC-PVTZ
  Basis Set:

    Orbital Energies (a.u.)
    -----------------------

    Doubly Occupied:

       1A    -20.544846     2A    -11.264782     3A    -11.261376
       4A    -11.212339     5A    -11.210521     6A     -1.378060
       7A     -1.058123     8A     -0.956094     9A     -0.877430
      10A     -0.809281    11A     -0.674368    12A     -0.654253
      13A     -0.631289    14A     -0.608942    15A     -0.563584
      16A     -0.545102    17A     -0.503077    18A     -0.488872
      19A     -0.479106    20A     -0.462158    21A     -0.412818

  @DF-RHF Final Energy:  -232.22550261830668

   => Energetics <=

    Nuclear Repulsion Energy =            189.7515280296374840
    One-Electron Energy =                -690.7612253916106511
    Two-Electron Energy =                 268.7841947436663190
    DFT Exchange-Correlation Energy =       0.0000000000000000
    Empirical Dispersion Energy =           0.0000000000000000
    PCM Polarization Energy =               0.0000000000000000
    EFP Energy =                            0.0000000000000000
    Total Energy =                       -232.2255026183068480
    Molecular point group: c1
  Basis Set: CC-PVTZ
  Basis Set:

  -Total Gradient:
     Atom            X                  Y                   Z
    ------   -----------------  -----------------  -----------------
       1       -0.000002265839     0.000006502646    -0.000010285886
       2       -0.000892081711     0.001634363918    -0.001679788369
       3       -0.001239751976     0.002077648719     0.000780485522
       4        0.001067939558    -0.001900988153     0.001249504608
       5        0.000017554190     0.000002741312    -0.000002290134
       6        0.001062384971    -0.001868022457    -0.000346625594
       7       -0.000017865775     0.000005915298     0.000002608801
       8       -0.000002951839     0.000002119162     0.000037690672
       9       -0.000001779896     0.000002994583    -0.000061601614
      10        0.000010714624     0.000029785954     0.000014546414
      11       -0.000027271230    -0.000007148310     0.000004313628
      12        0.000017557927     0.000010248926     0.000000848393
      13       -0.000002818880     0.000001717542    -0.000009569190
      14        0.000006121651     0.000004181170     0.000011998736
      15        0.000004514226    -0.000002060308     0.000008164012

  **** Optimization is complete! (in 4 steps) ****
    Final optimized geometry and variables:
    Molecular point group: c1

    Geometry (in Angstrom), charge = 0, multiplicity = 1:

    H           -2.818119673024    -0.218973652815    -0.963133420288
    C           -1.984848299569    -0.914982644712    -0.964572447592
    O           -0.767480644829    -0.238765529363    -0.942189438654
    H           -2.028202343289    -1.524375470209    -1.857870155353
    H           -2.091549118972    -1.576998818085    -0.109931806844
    C           -0.148854563168    -0.145567101385     0.303414026293
    C            1.150759333782     0.619427697344     0.154873067702
    H            0.045552035468    -1.141868668193     0.699224984592
    H           -0.801124574667     0.362648300081     1.013883007120
    C            1.898080320683     0.759630792796     1.476502691455
    H            1.770915618922     0.107661384206    -0.572865473604
    H            0.930982089356     1.598839187877    -0.255580399837
    H            2.150714972350    -0.210026309038     1.892606067815
    H            2.821419082077     1.309686207762     1.341973167894
    H            1.303509690950     1.290361007694     2.212712522152

  Mulliken Charges: (a.u.)
   Center  Symbol    Alpha    Beta     Spin     Total
       1     H     0.46242  0.46242  0.00000  0.07515
       2     C     3.02978  3.02978  0.00000 -0.05956
       3     O     4.17553  4.17553  0.00000 -0.35107
       4     H     0.45308  0.45308  0.00000  0.09383
       5     H     0.47434  0.47434  0.00000  0.05132
       6     C     2.95555  2.95555  0.00000  0.08890
       7     C     3.08171  3.08171  0.00000 -0.16341
       8     H     0.47497  0.47497  0.00000  0.05005
       9     H     0.47641  0.47641  0.00000  0.04719
      10     C     3.15587  3.15587  0.00000 -0.31175
      11     H     0.45124  0.45124  0.00000  0.09751
      12     H     0.45104  0.45104  0.00000  0.09792
      13     H     0.45593  0.45593  0.00000  0.08815
      14     H     0.44628  0.44628  0.00000  0.10745
      15     H     0.45584  0.45584  0.00000  0.08832

   Total alpha = 21.00000, Total beta = 21.00000, Total charge =  0.00000
