  ==> Input File <==

--------------------------------------------------------------------------
set {
	reference rhf
	basis 6-31G*
}

set_num_threads( 4 )
memory 2 gb

molecule MOL {
0 1

H	 -2.273092	 1.173159	 0.000295
O	 -1.438904	 1.618192	 0.000114
C	 -0.409536	 0.736003	 0.000030
C	 0.062734	 0.331554	 1.238812
C	 0.156325	 0.250734	 -1.176939
H	 -0.402243	 0.730291	 2.121306
C	 1.110241	 -0.566239	 1.317600
C	 1.208158	 -0.650776	 -1.067772
C	 -0.360293	 0.693357	 -2.527568
H	 1.472008	 -0.876062	 2.281773
C	 1.690204	 -1.063625	 0.161648
H	 1.656194	 -1.034972	 -1.967773
H	 -0.263400	 1.768005	 -2.667879
H	 0.195653	 0.216520	 -3.324766
H	 -1.407623	 0.433545	 -2.667544
H	 2.505263	 -1.762186	 0.215401

	symmetry c1
}
set optking {
	frozen_dihedral = ("
		4 3 2 1
	")
}

ee = optimize('scf')
oeprop('DIPOLE', 'QUADRUPOLE', 'MULLIKEN_CHARGES')
f=open( 'psi4out.xyz', 'w' )
f.write( "16  " )
f.write( str(ee) + "\n" )
f.write( MOL.save_string_xyz() )
f.close()
--------------------------------------------------------------------------

    Molecular point group: c1
  Charge       = 0
  Multiplicity = 1
  Basis Set: 6-31G*
  Basis Set:
  @DF-RHF Final Energy:  -344.58966522486247
    Total Energy =                       -344.5896652248625855
    Molecular point group: c1
  Basis Set: 6-31G*
  Basis Set:
  Basis Set: 6-31G*
  Basis Set:
  @DF-RHF Final Energy:  -344.59078612816205
    Total Energy =                       -344.5907861281621081
  Basis Set: 6-31G*
  Basis Set:
  Basis Set: 6-31G*
  Basis Set:
  @DF-RHF Final Energy:  -344.59086315893143
    Total Energy =                       -344.5908631589315405
  Basis Set: 6-31G*
  Basis Set:
  Basis Set: 6-31G*
  Basis Set:
  @DF-RHF Final Energy:  -344.59087346880563
    Total Energy =                       -344.5908734688056256
  Basis Set: 6-31G*
  Basis Set:
  Basis Set: 6-31G*
  Basis Set:
  @DF-RHF Final Energy:  -344.59087605953971
    Total Energy =                       -344.5908760595394824
  Basis Set: 6-31G*
  Basis Set:
  Charge       = 0
  Multiplicity = 1
  Basis Set: 6-31G*
  Basis Set:

    Orbital Energies (a.u.)
    -----------------------

    Doubly Occupied:

       1A    -20.575346     2A    -11.282718     3A    -11.234414
       4A    -11.229236     5A    -11.228197     6A    -11.225484
       7A    -11.224782     8A    -11.218686     9A     -1.389482
      10A     -1.148371    11A     -1.044179    12A     -1.002813
      13A     -0.932051    14A     -0.828395    15A     -0.804537
      16A     -0.724505    17A     -0.665674    18A     -0.654202
      19A     -0.621381    20A     -0.589822    21A     -0.570681
      22A     -0.564559    23A     -0.543679    24A     -0.516265
      25A     -0.499459    26A     -0.482308    27A     -0.460894
      28A     -0.328925    29A     -0.317881

  @DF-RHF Final Energy:  -344.59087670845344

   => Energetics <=

    Nuclear Repulsion Energy =            349.6196177213182068
    One-Electron Energy =               -1160.6031395695085848
    Two-Electron Energy =                 466.3926451397371693
    DFT Exchange-Correlation Energy =       0.0000000000000000
    Empirical Dispersion Energy =           0.0000000000000000
    PCM Polarization Energy =               0.0000000000000000
    EFP Energy =                            0.0000000000000000
    Total Energy =                       -344.5908767084531519
    Molecular point group: c1
  Basis Set: 6-31G*
  Basis Set:

  -Total Gradient:
     Atom            X                  Y                   Z
    ------   -----------------  -----------------  -----------------
       1        0.000015137969     0.000005013281     0.000023227984
       2       -0.000091167224     0.000056551324    -0.000024789498
       3        0.000099229740    -0.000082826588     0.000013466227
       4       -0.000095388738     0.000070716313     0.000023881895
       5        0.000041059520    -0.000024450850    -0.000032629194
       6        0.000009238460    -0.000009370256    -0.000019832980
       7        0.000071144864    -0.000059464468    -0.000037182846
       8       -0.000083417361     0.000071955644    -0.000046436074
       9       -0.000011897279    -0.000029430715     0.000030480686
      10        0.000003921203    -0.000009181038     0.000007957334
      11        0.000014370905    -0.000000728886     0.000086015807
      12        0.000004017133    -0.000005720697    -0.000008857411
      13        0.000014824744     0.000006633876    -0.000002557454
      14        0.000006565345     0.000000778660    -0.000018696943
      15        0.000009926925     0.000005454327     0.000010219826
      16       -0.000007566207     0.000004070069    -0.000004267357

  **** Optimization is complete! (in 6 steps) ****
    Final optimized geometry and variables:
    Molecular point group: c1

    Geometry (in Angstrom), charge = 0, multiplicity = 1:

    H           -2.451478443086     0.992446077942     0.231700779581
    O           -1.610388392887     1.430272058673     0.227184030748
    C           -0.594575663246     0.507860448208     0.293386276281
    C           -0.119139645498     0.113365418977     1.530130640632
    C           -0.031636710282     0.025461421790    -0.885157726911
    H           -0.571980107814     0.523735358861     2.414453508994
    C            0.930397011277    -0.787700617662     1.614069450619
    C            1.019803357768    -0.875065712804    -0.778787838205
    C           -0.556837031160     0.480194406623    -2.225112195660
    H            1.298997316046    -1.093477134580     2.576798923266
    C            1.500469105027    -1.284337998058     0.455782635324
    H            1.470891941652    -1.260637662651    -1.676476535450
    H           -0.533640637251     1.560782283610    -2.306444596537
    H            0.034039643386     0.062614986062    -3.031749337865
    H           -1.587331601097     0.170176094892    -2.373891767591
    H            2.316945975874    -1.982016441696     0.508700373378

  Mulliken Charges: (a.u.)
   Center  Symbol    Alpha    Beta     Spin     Total
       1     H     0.27183  0.27183  0.00000  0.45633
       2     O     4.38828  4.38828  0.00000 -0.77656
       3     C     2.83614  2.83614  0.00000  0.32771
       4     C     3.11315  3.11315  0.00000 -0.22629
       5     C     2.99931  2.99931  0.00000  0.00138
       6     H     0.39493  0.39493  0.00000  0.21015
       7     C     3.10218  3.10218  0.00000 -0.20436
       8     C     3.11352  3.11352  0.00000 -0.22705
       9     C     3.24377  3.24377  0.00000 -0.48754
      10     H     0.39901  0.39901  0.00000  0.20197
      11     C     3.10021  3.10021  0.00000 -0.20041
      12     H     0.40096  0.40096  0.00000  0.19807
      13     H     0.40316  0.40316  0.00000  0.19368
      14     H     0.41570  0.41570  0.00000  0.16859
      15     H     0.41775  0.41775  0.00000  0.16449
      16     H     0.40009  0.40009  0.00000  0.19983

   Total alpha = 29.00000, Total beta = 29.00000, Total charge = -0.00000
