  ==> Input File <==

--------------------------------------------------------------------------
set {
	reference rhf
	basis 6-31G*
}

set_num_threads( 4 )
memory 2 gb

molecule MOL {
0 1

H	 2.866480	 -0.465706	 0.876907
C	 2.405773	 -0.024801	 0.000000
N	 0.988830	 -0.304158	 0.000000
H	 2.866480	 -0.465706	 -0.876907
H	 2.629928	 1.045948	 0.000000
C	 0.221217	 0.728697	 0.670782
C	 0.682386	 -1.610428	 0.552919
H	 0.503724	 0.820055	 1.724510
H	 0.417264	 1.683306	 0.192731
C	 -1.261646	 0.408757	 0.577254
H	 1.216123	 -2.368632	 -0.011437
H	 0.998499	 -1.689521	 1.598058
C	 -0.812706	 -1.868337	 0.462517
H	 -1.843830	 1.120458	 1.147832
H	 -1.579829	 0.454215	 -0.462776
O	 -1.535001	 -0.857570	 1.107957
H	 -1.071073	 -2.799087	 0.950336
H	 -1.109767	 -1.930013	 -0.582912

	symmetry c1
}
set optking {
	frozen_dihedral = ("
		6 3 2 5
	")
}

ee = optimize('scf')
oeprop('DIPOLE', 'QUADRUPOLE', 'MULLIKEN_CHARGES')
f=open( 'psi4out.xyz', 'w' )
f.write( "18  " )
f.write( str(ee) + "\n" )
f.write( MOL.save_string_xyz() )
f.close()
--------------------------------------------------------------------------

    Molecular point group: c1
  Charge       = 0
  Multiplicity = 1
  Basis Set: 6-31G*
  Basis Set:
  @DF-RHF Final Energy:  -325.02506582525166
    Total Energy =                       -325.0250658252518292
    Molecular point group: c1
  Basis Set: 6-31G*
  Basis Set:
  Basis Set: 6-31G*
  Basis Set:
  @DF-RHF Final Energy:  -325.02602282186240
    Total Energy =                       -325.0260228218625684
  Basis Set: 6-31G*
  Basis Set:
  Basis Set: 6-31G*
  Basis Set:
  @DF-RHF Final Energy:  -325.02615180038111
    Total Energy =                       -325.0261518003811148
  Basis Set: 6-31G*
  Basis Set:
  Basis Set: 6-31G*
  Basis Set:
  @DF-RHF Final Energy:  -325.02615755640380
    Total Energy =                       -325.0261575564039731
  Basis Set: 6-31G*
  Basis Set:
  Charge       = 0
  Multiplicity = 1
  Basis Set: 6-31G*
  Basis Set:

    Orbital Energies (a.u.)
    -----------------------

    Doubly Occupied:

       1A    -20.553769     2A    -15.546715     3A    -11.265874
       4A    -11.265825     5A    -11.244340     6A    -11.243936
       7A    -11.241111     8A     -1.383017     9A     -1.229870
      10A     -1.038636    11A     -0.980882    12A     -0.883181
      13A     -0.869197    14A     -0.773421    15A     -0.683213
      16A     -0.645110    17A     -0.643375    18A     -0.633722
      19A     -0.626918    20A     -0.570699    21A     -0.558181
      22A     -0.542997    23A     -0.527293    24A     -0.500936
      25A     -0.485626    26A     -0.452232    27A     -0.407810
      28A     -0.347153

  @DF-RHF Final Energy:  -325.02615846169391

   => Energetics <=

    Nuclear Repulsion Energy =            341.2046206226161189
    One-Electron Energy =               -1118.1714790452624584
    Two-Electron Energy =                 451.9406999609519744
    DFT Exchange-Correlation Energy =       0.0000000000000000
    Empirical Dispersion Energy =           0.0000000000000000
    PCM Polarization Energy =               0.0000000000000000
    EFP Energy =                            0.0000000000000000
    Total Energy =                       -325.0261584616943082
    Molecular point group: c1
  Basis Set: 6-31G*
  Basis Set:

  -Total Gradient:
     Atom            X                  Y                   Z
    ------   -----------------  -----------------  -----------------
       1        0.000017747153    -0.000006186598     0.000001489740
       2       -0.000304724302     0.000479167089    -0.006905128034
       3        0.000583436664    -0.002222191533     0.005427402105
       4       -0.000028309068    -0.000005972862     0.000036037810
       5        0.000137749659     0.000156087894     0.004488728841
       6       -0.000406031382     0.001600100454    -0.003012569947
       7        0.000011460299    -0.000005385282    -0.000027526433
       8        0.000014349363    -0.000010325605    -0.000014476793
       9       -0.000007146119    -0.000004921535     0.000000024407
      10       -0.000023768461    -0.000000748943    -0.000016576443
      11        0.000006516934     0.000002667579     0.000002469993
      12       -0.000007029699     0.000010046112    -0.000013367618
      13        0.000004675467    -0.000012687024     0.000028020336
      14       -0.000011704881    -0.000004412231     0.000004108009
      15        0.000003262933     0.000007147840    -0.000002142801
      16        0.000017464536     0.000022136625    -0.000007160403
      17       -0.000017482358    -0.000010880733     0.000001096939
      18        0.000009533263     0.000006358751     0.000009570292

  **** Optimization is complete! (in 5 steps) ****
    Final optimized geometry and variables:
    Molecular point group: c1

    Geometry (in Angstrom), charge = 0, multiplicity = 1:

    H            2.839672843810     0.099117303751     0.381602299883
    C            2.315824279782     0.466816077185    -0.504863077188
    N            0.894188364828     0.204138474341    -0.452815758217
    H            2.760100006328    -0.002174882756    -1.376200638548
    H            2.495312772636     1.534334470537    -0.545540937931
    C            0.118810522728     1.241662283195     0.197684968112
    C            0.579639800062    -1.110764252728     0.064834821029
    H            0.380133863832     1.348391547111     1.255743816395
    H            0.317141057983     2.190399152034    -0.289542474229
    C           -1.361500575469     0.915534200109     0.082619759952
    H            1.115826386954    -1.857081807571    -0.513630667457
    H            0.890543471994    -1.215742832546     1.109374043048
    C           -0.915417390514    -1.362527261681    -0.040799912059
    H           -1.955506708473     1.624185241898     0.644905996400
    H           -1.663459646394     0.960352354454    -0.962257022438
    O           -1.638024994157    -0.353057614935     0.606584409598
    H           -1.182636978490    -2.296153607143     0.436817045315
    H           -1.204227224895    -1.413327523581    -1.089027227558

  Mulliken Charges: (a.u.)
   Center  Symbol    Alpha    Beta     Spin     Total
       1     H     0.43093  0.43093  0.00000  0.13814
       2     C     3.13803  3.13803  0.00000 -0.27607
       3     N     3.79259  3.79259  0.00000 -0.58519
       4     H     0.41475  0.41475  0.00000  0.17050
       5     H     0.41815  0.41815  0.00000  0.16370
       6     C     3.06520  3.06520  0.00000 -0.13041
       7     C     3.06552  3.06552  0.00000 -0.13105
       8     H     0.42909  0.42909  0.00000  0.14182
       9     H     0.41694  0.41694  0.00000  0.16613
      10     C     2.99803  2.99803  0.00000  0.00394
      11     H     0.41703  0.41703  0.00000  0.16594
      12     H     0.42847  0.42847  0.00000  0.14305
      13     C     2.99766  2.99766  0.00000  0.00469
      14     H     0.41343  0.41343  0.00000  0.17313
      15     H     0.42430  0.42430  0.00000  0.15140
      16     O     4.31218  4.31218  0.00000 -0.62436
      17     H     0.41340  0.41340  0.00000  0.17320
      18     H     0.42428  0.42428  0.00000  0.15143

   Total alpha = 28.00000, Total beta = 28.00000, Total charge = -0.00000
