  ==> Input File <==

--------------------------------------------------------------------------
set {
	reference rhf
	basis 6-31G*
}

set_num_threads( 4 )
memory 2 gb

molecule MOL {
0 1

H	 1.148083	 -1.049780	 0.784252
O	 1.319262	 -0.618148	 -0.041729
C	 0.709265	 0.639550	 -0.033818
C	 -0.782329	 0.600759	 0.171664
H	 0.932952	 1.090167	 -0.994084
H	 1.157443	 1.282273	 0.723195
C	 -1.521600	 -0.490177	 0.181743
H	 -1.247114	 1.563970	 0.315477
H	 -1.095144	 -1.464127	 0.023673
H	 -2.584754	 -0.444045	 0.335204

	symmetry c1
}
set optking {
	frozen_dihedral = ("
		5 3 2 1
	")
}

ee = optimize('scf')
oeprop('DIPOLE', 'QUADRUPOLE', 'MULLIKEN_CHARGES')
f=open( 'psi4out.xyz', 'w' )
f.write( "10  " )
f.write( str(ee) + "\n" )
f.write( MOL.save_string_xyz() )
f.close()
--------------------------------------------------------------------------

    Molecular point group: c1
  Charge       = 0
  Multiplicity = 1
  Basis Set: 6-31G*
  Basis Set:
  @DF-RHF Final Energy:  -191.91719652180274
    Total Energy =                       -191.9171965218028788
    Molecular point group: c1
  Basis Set: 6-31G*
  Basis Set:
  Basis Set: 6-31G*
  Basis Set:
  @DF-RHF Final Energy:  -191.91720354831955
    Total Energy =                       -191.9172035483195202
  Basis Set: 6-31G*
  Basis Set:
  Charge       = 0
  Multiplicity = 1
  Basis Set: 6-31G*
  Basis Set:

    Orbital Energies (a.u.)
    -----------------------

    Doubly Occupied:

       1A    -20.560407     2A    -11.278353     3A    -11.232139
       4A    -11.220514     5A     -1.369245     6A     -1.058636
       7A     -0.929028     8A     -0.769769     9A     -0.686638
      10A     -0.662320    11A     -0.616864    12A     -0.570489
      13A     -0.540596    14A     -0.490567    15A     -0.448483
      16A     -0.365649

  @DF-RHF Final Energy:  -191.91720589683337

   => Energetics <=

    Nuclear Repulsion Energy =            119.4155558344567680
    One-Electron Energy =                -497.0661271157759984
    Two-Electron Energy =                 185.7333653844858645
    DFT Exchange-Correlation Energy =       0.0000000000000000
    Empirical Dispersion Energy =           0.0000000000000000
    PCM Polarization Energy =               0.0000000000000000
    EFP Energy =                            0.0000000000000000
    Total Energy =                       -191.9172058968333658
    Molecular point group: c1
  Basis Set: 6-31G*
  Basis Set:

  -Total Gradient:
     Atom            X                  Y                   Z
    ------   -----------------  -----------------  -----------------
       1       -0.000523038115    -0.000242888617    -0.000221988265
       2        0.000505551503     0.000296278470     0.000213700872
       3        0.000414807699     0.000196753946     0.000208499178
       4        0.000058688238    -0.000026124589    -0.000011888965
       5       -0.000453665231    -0.000229656077    -0.000222258895
       6       -0.000013146295     0.000008948165     0.000031353383
       7       -0.000032147984     0.000013299342    -0.000043095382
       8        0.000025882010     0.000002309300     0.000011220345
       9        0.000004554717    -0.000016532010     0.000025141654
      10        0.000012513453    -0.000002387929     0.000009316074

  **** Optimization is complete! (in 3 steps) ****
    Final optimized geometry and variables:
    Molecular point group: c1

    Geometry (in Angstrom), charge = 0, multiplicity = 1:

    H            1.150675860157    -1.043009582522     0.720276770032
    O            1.316020199155    -0.619682137289    -0.111313289547
    C            0.704787108163     0.637031503585    -0.111185681119
    C           -0.786261003793     0.598225210355     0.098859602575
    H            0.921663518566     1.078057977401    -1.077501165944
    H            1.154688663376     1.286523630595     0.639007052193
    C           -1.528316843470    -0.491018558952     0.099893550327
    H           -1.248819562648     1.560493761050     0.254783196391
    H           -1.106287607333    -1.464885864423    -0.070808830447
    H           -2.590613897980    -0.443890922395     0.258214776168

  Mulliken Charges: (a.u.)
   Center  Symbol    Alpha    Beta     Spin     Total
       1     H     0.28107  0.28107  0.00000  0.43787
       2     O     4.36705  4.36705  0.00000 -0.73410
       3     C     2.99915  2.99915  0.00000  0.00170
       4     C     3.09435  3.09435  0.00000 -0.18870
       5     H     0.40813  0.40813  0.00000  0.18375
       6     H     0.42551  0.42551  0.00000  0.14898
       7     C     3.19783  3.19783  0.00000 -0.39566
       8     H     0.40977  0.40977  0.00000  0.18047
       9     H     0.40657  0.40657  0.00000  0.18687
      10     H     0.41059  0.41059  0.00000  0.17883

   Total alpha = 16.00000, Total beta = 16.00000, Total charge = -0.00000
