  ==> Input File <==

--------------------------------------------------------------------------
set {
	reference rhf
	basis 6-31G*
}

set_num_threads( 4 )
memory 2 gb

molecule MOL {
0 1

H	 -2.646374	 -0.642757	 1.268656
C	 -2.083525	 -0.384536	 0.393091
O	 -0.807605	 -0.127164	 0.768327
F	 -2.118945	 -1.383102	 -0.486752
F	 -2.621877	 0.670592	 -0.209486
C	 0.209196	 -0.744284	 0.062661
C	 1.181818	 -1.311441	 1.088575
Cl	 1.028617	 0.409330	 -1.002673
H	 -0.149222	 -1.554621	 -0.547802
F	 2.176067	 -1.929090	 0.486812
F	 0.545376	 -2.191572	 1.835401
F	 1.673777	 -0.381780	 1.870675

	symmetry c1
}
set optking {
	frozen_dihedral = ("
		6 3 2 4
	")
}

ee = optimize('scf')
oeprop('DIPOLE', 'QUADRUPOLE', 'MULLIKEN_CHARGES')
f=open( 'psi4out.xyz', 'w' )
f.write( "12  " )
f.write( str(ee) + "\n" )
f.write( MOL.save_string_xyz() )
f.close()
--------------------------------------------------------------------------

    Molecular point group: c1
  Charge       = 0
  Multiplicity = 1
  Basis Set: 6-31G*
  Basis Set:
  @DF-RHF Final Energy: -1146.30679056590043
    Total Energy =                      -1146.3067905658997461
    Molecular point group: c1
  Basis Set: 6-31G*
  Basis Set:
  Basis Set: 6-31G*
  Basis Set:
  @DF-RHF Final Energy: -1146.30725974177699
    Total Energy =                      -1146.3072597417767611
  Basis Set: 6-31G*
  Basis Set:
  Basis Set: 6-31G*
  Basis Set:
  @DF-RHF Final Energy: -1146.30913610461357
    Total Energy =                      -1146.3091361046135717
  Basis Set: 6-31G*
  Basis Set:
  Basis Set: 6-31G*
  Basis Set:
  @DF-RHF Final Energy: -1146.30946361848737
    Total Energy =                      -1146.3094636184875981
  Basis Set: 6-31G*
  Basis Set:
  @DF-RHF Final Energy: -1146.30959306251589
    Total Energy =                      -1146.3095930625163419
  @DF-RHF Final Energy: -1146.30969978564235
    Total Energy =                      -1146.3096997856416692
  @DF-RHF Final Energy: -1146.30989740466339
    Total Energy =                      -1146.3098974046629337
  Basis Set: 6-31G*
  Basis Set:
  @DF-RHF Final Energy: -1146.30993113548448
    Total Energy =                      -1146.3099311354844758
  Basis Set: 6-31G*
  Basis Set:
  Basis Set: 6-31G*
  Basis Set:
  @DF-RHF Final Energy: -1146.30993795036352
    Total Energy =                      -1146.3099379503637465
  Basis Set: 6-31G*
  Basis Set:
  Basis Set: 6-31G*
  Basis Set:
  @DF-RHF Final Energy: -1146.30993973860586
    Total Energy =                      -1146.3099397386056353
  Basis Set: 6-31G*
  Basis Set:
  Charge       = 0
  Multiplicity = 1
  Basis Set: 6-31G*
  Basis Set:

    Orbital Energies (a.u.)
    -----------------------

    Doubly Occupied:

       1A   -104.841548     2A    -26.360667     3A    -26.359747
       4A    -26.357990     5A    -26.355863     6A    -26.338698
       7A    -20.646816     8A    -11.528616     9A    -11.491621
      10A    -11.401638    11A    -10.576374    12A     -8.045708
      13A     -8.042209    14A     -8.042097    15A     -1.761888
      16A     -1.719434    17A     -1.658265    18A     -1.656942
      19A     -1.640348    20A     -1.482806    21A     -1.177065
      22A     -1.054737    23A     -0.986586    24A     -0.919664
      25A     -0.858807    26A     -0.850033    27A     -0.846631
      28A     -0.823921    29A     -0.817658    30A     -0.792906
      31A     -0.729748    32A     -0.726342    33A     -0.704601
      34A     -0.696841    35A     -0.679836    36A     -0.675236
      37A     -0.660806    38A     -0.658656    39A     -0.641633
      40A     -0.635846    41A     -0.604881    42A     -0.575116
      43A     -0.515750    44A     -0.474238    45A     -0.468040

  @DF-RHF Final Energy: -1146.30994110474967

   => Energetics <=

    Nuclear Repulsion Energy =            733.8539273194029420
    One-Electron Energy =               -3050.5580262241487617
    Two-Electron Energy =                1170.3941577999964920
    DFT Exchange-Correlation Energy =       0.0000000000000000
    Empirical Dispersion Energy =           0.0000000000000000
    PCM Polarization Energy =               0.0000000000000000
    EFP Energy =                            0.0000000000000000
    Total Energy =                      -1146.3099411047494414
    Molecular point group: c1
  Basis Set: 6-31G*
  Basis Set:

  -Total Gradient:
     Atom            X                  Y                   Z
    ------   -----------------  -----------------  -----------------
       1       -0.000019096709     0.000002609023    -0.000011223466
       2       -0.000968829942    -0.003826465599     0.002378203829
       3        0.000843748689     0.004143027534    -0.002101661169
       4        0.000565567599     0.001984852679    -0.001286254804
       5       -0.000022152019    -0.000015547148    -0.000027230482
       6       -0.000419403067    -0.002269605734     0.001091347213
       7        0.000049907701     0.000002086242    -0.000050871583
       8        0.000004794321    -0.000008695707    -0.000000809526
       9       -0.000011500790    -0.000009807306    -0.000018939125
      10        0.000003727750    -0.000012857127     0.000002224168
      11       -0.000007016554     0.000017923313     0.000006476588
      12       -0.000019746992    -0.000007520194     0.000018738325

  **** Optimization is complete! (in 11 steps) ****
    Final optimized geometry and variables:
    Molecular point group: c1

    Geometry (in Angstrom), charge = 0, multiplicity = 1:

    H           -2.821829679838    -0.110061429137     0.763896662671
    C           -2.154630165372     0.262975576225     0.009526863830
    O           -0.877518944066     0.258146205523     0.489088646161
    F           -2.256660377479    -0.475042099733    -1.091583743303
    F           -2.498906079907     1.499188816289    -0.311494195944
    C            0.162752601329    -0.269409619407    -0.238745103403
    C            1.229561048069    -0.659005804085     0.776661098275
    CL           0.815211198030     0.892687771426    -1.414322436725
    H           -0.121886781353    -1.148996155420    -0.786651172610
    F            2.262886174614    -1.199349380202     0.167048529406
    F            0.725542247708    -1.560245032701     1.597885615253
    F            1.643095485547     0.362116187306     1.485031643241

  Mulliken Charges: (a.u.)
   Center  Symbol    Alpha    Beta     Spin     Total
       1     H     0.40803  0.40803  0.00000  0.18394
       2     C     2.55835  2.55835  0.00000  0.88330
       3     O     4.31078  4.31078  0.00000 -0.62155
       4     F     4.68448  4.68448  0.00000 -0.36896
       5     F     4.67471  4.67471  0.00000 -0.34942
       6     C     3.03664  3.03664  0.00000 -0.07327
       7     C     2.43260  2.43260  0.00000  1.13480
       8    CL     8.50632  8.50632  0.00000 -0.01264
       9     H     0.36795  0.36795  0.00000  0.26411
      10     F     4.67449  4.67449  0.00000 -0.34899
      11     F     4.67818  4.67818  0.00000 -0.35637
      12     F     4.66748  4.66748  0.00000 -0.33495

   Total alpha = 45.00000, Total beta = 45.00000, Total charge = -0.00000
