                              Psi4 1.0.54 Driver

  ==> Input File <==

--------------------------------------------------------------------------
set {
	reference rhf
	basis cc-pvtz
}

set_num_threads( 4 )
memory 2 gb

molecule MOL {
0 1

H	 -4.230259	 0.539112	 0.036360
O	 -3.515113	 -0.019339	 -0.206321
C	 -2.302264	 0.528872	 0.237390
C	 -1.175688	 -0.398187	 -0.171891
H	 -2.148018	 1.514076	 -0.197759
H	 -2.310727	 0.646384	 1.319032
C	 0.196029	 0.106276	 0.266738
H	 -1.201873	 -0.515469	 -1.250677
H	 -1.365975	 -1.378728	 0.252664
C	 1.330220	 -0.826136	 -0.155230
H	 0.359542	 1.097229	 -0.145561
H	 0.212134	 0.218135	 1.348778
C	 2.719700	 -0.407669	 0.328325
H	 1.339388	 -0.911200	 -1.239363
H	 1.119001	 -1.821953	 0.224128
C	 2.848800	 -0.250191	 1.841564
H	 2.975669	 0.536717	 -0.142122
H	 3.453568	 -1.128489	 -0.022805
H	 2.121915	 0.460195	 2.222421
H	 2.697958	 -1.188343	 2.361953
H	 3.834860	 0.113483	 2.107268

	symmetry c1
}
set optking {
	frozen_dihedral = ("
		16 13 10 14
	")
}

ee,wfn = optimize('scf', return_wfn=True)
oeprop( wfn, 'DIPOLE', 'QUADRUPOLE', 'MULLIKEN_CHARGES')
f=open( 'psi4out.xyz', 'w' )
f.write( "21  " )
f.write( str(ee) + "\n" )
f.write( MOL.save_string_xyz() )
f.close()
--------------------------------------------------------------------------

    Molecular point group: c1
  Charge       = 0
  Multiplicity = 1
  Basis Set: CC-PVTZ
  Basis Set:
  @DF-RHF Final Energy:  -310.33184668601251
    Total Energy =                       -310.3318466860124545
    Molecular point group: c1
  Basis Set: CC-PVTZ
  Basis Set:
  Basis Set: CC-PVTZ
  Basis Set:
  @DF-RHF Final Energy:  -310.33258670238263
    Total Energy =                       -310.3325867023830256
  Basis Set: CC-PVTZ
  Basis Set:
  Basis Set: CC-PVTZ
  Basis Set:
  @DF-RHF Final Energy:  -310.33284813384552
    Total Energy =                       -310.3328481338452320
  Basis Set: CC-PVTZ
  Basis Set:
  Basis Set: CC-PVTZ
  Basis Set:
  @DF-RHF Final Energy:  -310.33285619917865
    Total Energy =                       -310.3328561991786501
  Basis Set: CC-PVTZ
  Basis Set:
  Basis Set: CC-PVTZ
  Basis Set:
  @DF-RHF Final Energy:  -310.33285840507648
    Total Energy =                       -310.3328584050767063
  Basis Set: CC-PVTZ
  Basis Set:
  Charge       = 0
  Multiplicity = 1
  Basis Set: CC-PVTZ
  Basis Set:

    Orbital Energies (a.u.)
    -----------------------

    Doubly Occupied:

       1A    -20.545370     2A    -11.264944     3A    -11.213180
       4A    -11.213035     5A    -11.211348     6A    -11.208913
       7A    -11.206101     8A     -1.363221     9A     -1.087488
      10A     -1.034257    11A     -0.955270    12A     -0.877337
      13A     -0.808075    14A     -0.777631    15A     -0.696085
      16A     -0.663105    17A     -0.625045    18A     -0.606133
      19A     -0.588446    20A     -0.572241    21A     -0.537239
      22A     -0.521236    23A     -0.511776    24A     -0.487402
      25A     -0.480438    26A     -0.459767    27A     -0.456371
      28A     -0.444388    29A     -0.437359

  @DF-RHF Final Energy:  -310.33285868098739

   => Energetics <=

    Nuclear Repulsion Energy =            313.2522199897045425
    One-Electron Energy =               -1041.4637578040678818
    Two-Electron Energy =                 417.8786791333756128
    DFT Exchange-Correlation Energy =       0.0000000000000000
    Empirical Dispersion Energy =           0.0000000000000000
    PCM Polarization Energy =               0.0000000000000000
    EFP Energy =                            0.0000000000000000
    Total Energy =                       -310.3328586809876697
    Molecular point group: c1
  Basis Set: CC-PVTZ
  Basis Set:

  -Total Gradient:
     Atom            X                  Y                   Z
    ------   -----------------  -----------------  -----------------
       1        0.000011530929     0.000004764765     0.000002465336
       2        0.000010914515    -0.000016164852    -0.000003758803
       3        0.000001173110     0.000016234433     0.000007606354
       4       -0.000019020439     0.000001989565    -0.000002242684
       5        0.000000290501     0.000003471478    -0.000002146391
       6       -0.000000992911    -0.000005898000     0.000000111890
       7       -0.000007982889     0.000002134401     0.000005849588
       8        0.000004427752     0.000000064134    -0.000000794640
       9        0.000002420368    -0.000003600116     0.000003640696
      10        0.000375418323    -0.001339396930     0.000167782851
      11       -0.000007524349     0.000004361695    -0.000003686033
      12       -0.000000312623     0.000005014352     0.000004030129
      13        0.000344223938    -0.001231069278     0.000167547355
      14       -0.000408510082     0.001465475791    -0.000200405516
      15        0.000000128416    -0.000004935350    -0.000002434137
      16       -0.000301585457     0.001099006621    -0.000152744236
      17        0.000001057541     0.000000856077    -0.000008481916
      18       -0.000002236383     0.000004698116     0.000001855502
      19        0.000002420895    -0.000000667501     0.000000119011
      20       -0.000004880823    -0.000008287051     0.000010281626
      21       -0.000000960336     0.000001947649     0.000005404017

  **** Optimization is complete! (in 6 steps) ****
    Final optimized geometry and variables:
    Molecular point group: c1

    Geometry (in Angstrom), charge = 0, multiplicity = 1:

    H           -4.141221225140     0.844419288377    -0.501477078901
    O           -3.433207800011     0.263635881397    -0.710085923415
    C           -2.235471657297     0.745525083632    -0.160933208594
    C           -1.119912565334    -0.215587593977    -0.518467550182
    H           -2.009687260157     1.736190046911    -0.550121455287
    H           -2.319426528613     0.829902346875     0.920532587028
    C            0.235880237451     0.219646614924     0.029906208684
    H           -1.074900159099    -0.303133580426    -1.599263741984
    H           -1.377637145676    -1.198537447704    -0.136815655099
    C            1.354425249183    -0.760571863073    -0.321088679644
    H            0.486939683043     1.202751228463    -0.363063396708
    H            0.164931838602     0.329779311325     1.107437670969
    C            2.757540666522    -0.312413739172     0.092146267259
    H            1.348177400007    -0.909769062085    -1.397130942684
    H            1.136564536883    -1.726864297046     0.127030217739
    C            2.939374373076    -0.056920555864     1.586398483746
    H            3.017084614232     0.590201831111    -0.455198820764
    H            3.466353720062    -1.071124285759    -0.224692385217
    H            2.342936175299     0.779548332768     1.929296644426
    H            2.656382789279    -0.927148002549     2.170578744171
    H            3.975299485671     0.168121072114     1.812889965170

  Mulliken Charges: (a.u.)
   Center  Symbol    Alpha    Beta     Spin     Total
       1     H     0.39763  0.39763  0.00000  0.20474
       2     O     4.19420  4.19420  0.00000 -0.38841
       3     C     2.96324  2.96324  0.00000  0.07351
       4     C     3.08394  3.08394  0.00000 -0.16788
       5     H     0.47502  0.47502  0.00000  0.04996
       6     H     0.47500  0.47500  0.00000  0.05001
       7     C     3.10440  3.10440  0.00000 -0.20879
       8     H     0.45044  0.45044  0.00000  0.09911
       9     H     0.45102  0.45102  0.00000  0.09795
      10     C     3.09435  3.09435  0.00000 -0.18870
      11     H     0.45522  0.45522  0.00000  0.08956
      12     H     0.45300  0.45300  0.00000  0.09400
      13     C     3.08959  3.08959  0.00000 -0.17919
      14     H     0.44939  0.44939  0.00000  0.10122
      15     H     0.45227  0.45227  0.00000  0.09545
      16     C     3.15427  3.15427  0.00000 -0.30855
      17     H     0.45474  0.45474  0.00000  0.09051
      18     H     0.44848  0.44848  0.00000  0.10304
      19     H     0.45338  0.45338  0.00000  0.09324
      20     H     0.45441  0.45441  0.00000  0.09118
      21     H     0.44599  0.44599  0.00000  0.10802

   Total alpha = 29.00000, Total beta = 29.00000, Total charge = -0.00000

*** Psi4 exiting successfully. Buy a developer a beer!
