  ==> Input File <==

--------------------------------------------------------------------------
set {
	reference rhf
	basis 6-31G*
}

set_num_threads( 4 )
memory 2 gb

molecule MOL {
0 1

O	 -2.821601	 1.309235	 -0.001213
C	 -2.668563	 0.129746	 -0.000350
C	 -3.801572	 -0.864014	 -0.000442
O	 -1.481751	 -0.454642	 0.000584
H	 -4.417280	 -0.689587	 -0.874708
H	 -3.443784	 -1.883046	 -0.000565
H	 -4.417179	 -0.689832	 0.873954
C	 -0.334255	 0.388708	 0.000906
C	 0.891947	 -0.504646	 0.000751
H	 -0.365390	 1.025305	 -0.873475
H	 -0.365484	 1.024911	 0.875569
C	 2.191998	 0.301789	 0.000897
H	 0.855148	 -1.151283	 -0.871571
H	 0.855132	 -1.151660	 0.872805
C	 2.405767	 1.087437	 1.296036
H	 3.035770	 -0.368280	 -0.154482
H	 2.191789	 0.992401	 -0.840611
C	 3.704929	 1.891827	 1.296662
H	 2.406603	 0.398787	 2.137960
H	 1.564605	 1.759219	 1.451680
H	 4.567966	 1.243169	 1.176563
H	 3.828275	 2.437252	 2.227003
H	 3.719503	 2.614039	 0.485362

	symmetry c1
}
set optking {
	frozen_dihedral = ("
		16 12 9 13
	")
}

ee = optimize('scf')
oeprop('DIPOLE', 'QUADRUPOLE', 'MULLIKEN_CHARGES')
f=open( 'psi4out.xyz', 'w' )
f.write( "23  " )
f.write( str(ee) + "\n" )
f.write( MOL.save_string_xyz() )
f.close()
--------------------------------------------------------------------------

    Molecular point group: c1
  Charge       = 0
  Multiplicity = 1
  Basis Set: 6-31G*
  Basis Set:
  @DF-RHF Final Energy:  -422.97721688485768
    Total Energy =                       -422.9772168848577394
    Molecular point group: c1
  Basis Set: 6-31G*
  Basis Set:
  Basis Set: 6-31G*
  Basis Set:
  @DF-RHF Final Energy:  -422.97764534277809
    Total Energy =                       -422.9776453427776914
  Basis Set: 6-31G*
  Basis Set:
  Basis Set: 6-31G*
  Basis Set:
  @DF-RHF Final Energy:  -422.97790165575253
    Total Energy =                       -422.9779016557524756
  Basis Set: 6-31G*
  Basis Set:
  Basis Set: 6-31G*
  Basis Set:
  @DF-RHF Final Energy:  -422.97778446686482
    Total Energy =                       -422.9777844668653870
  Basis Set: 6-31G*
  Basis Set:
  Basis Set: 6-31G*
  Basis Set:
  @DF-RHF Final Energy:  -422.97791357380919
    Total Energy =                       -422.9779135738085643
  Basis Set: 6-31G*
  Basis Set:
  Charge       = 0
  Multiplicity = 1
  Basis Set: 6-31G*
  Basis Set:

    Orbital Energies (a.u.)
    -----------------------

    Doubly Occupied:

       1A    -20.602926     2A    -20.540509     3A    -11.374050
       4A    -11.281032     5A    -11.232348     6A    -11.224517
       7A    -11.223866     8A    -11.221704     9A    -11.213040
      10A     -1.467865    11A     -1.360662    12A     -1.093950
      13A     -1.040587    14A     -1.002691    15A     -0.931454
      16A     -0.849407    17A     -0.791723    18A     -0.780146
      19A     -0.688922    20A     -0.684475    21A     -0.671210
      22A     -0.636045    23A     -0.613456    24A     -0.587322
      25A     -0.578045    26A     -0.573149    27A     -0.562021
      28A     -0.529298    29A     -0.527428    30A     -0.509430
      31A     -0.494701    32A     -0.476101    33A     -0.469042
      34A     -0.462122    35A     -0.449525    36A     -0.435715

  @DF-RHF Final Energy:  -422.97791437965998

   => Energetics <=

    Nuclear Repulsion Energy =            455.5075047833381632
    One-Electron Energy =               -1478.6098698341061208
    Two-Electron Energy =                 600.1244506711082067
    DFT Exchange-Correlation Energy =       0.0000000000000000
    Empirical Dispersion Energy =           0.0000000000000000
    PCM Polarization Energy =               0.0000000000000000
    EFP Energy =                            0.0000000000000000
    Total Energy =                       -422.9779143796597509
    Molecular point group: c1
  Basis Set: 6-31G*
  Basis Set:

  -Total Gradient:
     Atom            X                  Y                   Z
    ------   -----------------  -----------------  -----------------
       1       -0.000018827685     0.000006140017     0.000005646812
       2        0.000001282572     0.000011075704    -0.000078907172
       3        0.000002631651     0.000001549764     0.000039611097
       4        0.000020179037    -0.000016711939    -0.000051714745
       5        0.000009003594     0.000005731421    -0.000000160634
       6        0.000002083254     0.000000430367     0.000001014536
       7       -0.000005905735    -0.000003984995     0.000000163533
       8        0.000031254691    -0.000011354824     0.000195990161
       9       -0.000101996721     0.000217545010    -0.000196798848
      10       -0.000036168035     0.000000718766    -0.000036887372
      11        0.000054861159     0.000015040037    -0.000019877255
      12        0.000025970091    -0.000066509208     0.000283824781
      13        0.000116726660    -0.000169904261     0.000112363690
      14       -0.000029592265    -0.000000211559     0.000018857545
      15       -0.000033265753    -0.000022724216    -0.000043038945
      16        0.000006599173     0.000034192509    -0.000215893925
      17       -0.000014164769     0.000029385351    -0.000004116220
      18        0.000017701240    -0.000032574055     0.000006006258
      19       -0.000016317213     0.000010189436    -0.000004965363
      20       -0.000031537706    -0.000001038423    -0.000015333407
      21        0.000006662321     0.000002592695    -0.000001913546
      22        0.000005599495    -0.000005591152     0.000002396969
      23       -0.000012779049    -0.000003986445     0.000003732051

  **** Optimization is complete! (in 6 steps) ****
    Final optimized geometry and variables:
    Molecular point group: c1

    Geometry (in Angstrom), charge = 0, multiplicity = 1:

    O           -2.653138991877     0.898211111727    -0.262381758664
    C           -2.468241743125    -0.276058773328    -0.303576131496
    C           -3.573861606908    -1.298193358899    -0.367516605803
    O           -1.266565834851    -0.828993121102    -0.297964704412
    H           -4.174876778967    -1.105985113804    -1.248247687805
    H           -3.188866355075    -2.306787573207    -0.398501286301
    H           -4.212792661114    -1.174210378197     0.498671563353
    C           -0.142255604764     0.043822802702    -0.236791822995
    C            1.102885761576    -0.825385747153    -0.238885490369
    H           -0.164856451622     0.706282355425    -1.092587451591
    H           -0.221897087309     0.649398638864     0.654407152315
    C            2.409064748967    -0.023606179176    -0.265539656697
    H            1.061270552868    -1.473549715022    -1.109149359404
    H            1.082316495124    -1.473972196903     0.632851829171
    C            2.695504839579     0.783082898205     1.004645746957
    H            3.228806674595    -0.718638909826    -0.429729687705
    H            2.406740928582     0.645123727788    -1.124907187350
    C            4.058115574521     1.474192687507     0.964359555055
    H            2.651647307993     0.120857663809     1.866815953809
    H            1.923667059277     1.533114769394     1.155282841259
    H            4.861578351408     0.750823071827     0.858493493690
    H            4.238719272567     2.039148304587     1.873350628534
    H            4.122811004752     2.164223182607     0.127875125963

  Mulliken Charges: (a.u.)
   Center  Symbol    Alpha    Beta     Spin     Total
       1     O     4.28408  4.28408  0.00000 -0.56815
       2     C     2.61532  2.61532  0.00000  0.76935
       3     C     3.28778  3.28778  0.00000 -0.57556
       4     O     4.31264  4.31264  0.00000 -0.62529
       5     H     0.39752  0.39752  0.00000  0.20497
       6     H     0.39986  0.39986  0.00000  0.20027
       7     H     0.39752  0.39752  0.00000  0.20496
       8     C     2.99755  2.99755  0.00000  0.00491
       9     C     3.16574  3.16574  0.00000 -0.33148
      10     H     0.41128  0.41128  0.00000  0.17745
      11     H     0.40876  0.40876  0.00000  0.18247
      12     C     3.16128  3.16128  0.00000 -0.32256
      13     H     0.41205  0.41205  0.00000  0.17589
      14     H     0.41485  0.41485  0.00000  0.17029
      15     C     3.15538  3.15538  0.00000 -0.31075
      16     H     0.41728  0.41728  0.00000  0.16543
      17     H     0.42101  0.42101  0.00000  0.15797
      18     C     3.23950  3.23950  0.00000 -0.47900
      19     H     0.42140  0.42140  0.00000  0.15721
      20     H     0.41998  0.41998  0.00000  0.16005
      21     H     0.42112  0.42112  0.00000  0.15776
      22     H     0.41755  0.41755  0.00000  0.16489
      23     H     0.42054  0.42054  0.00000  0.15892

   Total alpha = 36.00000, Total beta = 36.00000, Total charge = -0.00000
