  ==> Input File <==

--------------------------------------------------------------------------
set {
	reference rhf
	basis 6-31G*
}

set_num_threads( 4 )
memory 2 gb

molecule MOL {
0 1

O	 -0.682937	 1.318834	 -0.186099
C	 -0.860635	 0.152188	 -0.042321
C	 -2.173363	 -0.477127	 0.338347
O	 0.083258	 -0.765189	 -0.202595
H	 -2.477673	 -1.180929	 -0.427595
H	 -2.923125	 0.290956	 0.455536
H	 -2.058825	 -1.029004	 1.264191
C	 -0.260069	 -2.134069	 0.000114
C	 -0.879705	 -2.742500	 -1.244277
H	 -0.924462	 -2.211585	 0.847294
H	 0.676692	 -2.615523	 0.241319
H	 -1.059687	 -3.801220	 -1.084750
H	 -1.825009	 -2.268104	 -1.476046
H	 -0.214086	 -2.634270	 -2.093778

	symmetry c1
}
set optking {
	frozen_dihedral = ("
		8 4 2 1
	")
}

ee = optimize('scf')
oeprop('DIPOLE', 'QUADRUPOLE', 'MULLIKEN_CHARGES')
f=open( 'psi4out.xyz', 'w' )
f.write( "14  " )
f.write( str(ee) + "\n" )
f.write( MOL.save_string_xyz() )
f.close()
--------------------------------------------------------------------------

    Molecular point group: c1
  Charge       = 0
  Multiplicity = 1
  Basis Set: 6-31G*
  Basis Set:
  @DF-RHF Final Energy:  -305.83984435906905
    Total Energy =                       -305.8398443590691045
    Molecular point group: c1
  Basis Set: 6-31G*
  Basis Set:
  Basis Set: 6-31G*
  Basis Set:
  @DF-RHF Final Energy:  -305.85364122708529
    Total Energy =                       -305.8536412270852338
  Basis Set: 6-31G*
  Basis Set:
  Basis Set: 6-31G*
  Basis Set:
  @DF-RHF Final Energy:  -305.85838370505155
    Total Energy =                       -305.8583837050515513
  Basis Set: 6-31G*
  Basis Set:
  Basis Set: 6-31G*
  Basis Set:
  @DF-RHF Final Energy:  -305.85859349042613
    Total Energy =                       -305.8585934904259034
  Basis Set: 6-31G*
  Basis Set:
  @DF-RHF Final Energy:  -305.85947906846894
    Total Energy =                       -305.8594790684687723
  @DF-RHF Final Energy:  -305.85968822142638
    Total Energy =                       -305.8596882214263815
  Basis Set: 6-31G*
  Basis Set:
  @DF-RHF Final Energy:  -305.85976764516647
    Total Energy =                       -305.8597676451664711
  Basis Set: 6-31G*
  Basis Set:
  Basis Set: 6-31G*
  Basis Set:
  @DF-RHF Final Energy:  -305.85979273462692
    Total Energy =                       -305.8597927346268079
  Basis Set: 6-31G*
  Basis Set:
  Basis Set: 6-31G*
  Basis Set:
  @DF-RHF Final Energy:  -305.85979471897957
    Total Energy =                       -305.8597947189796855
  Basis Set: 6-31G*
  Basis Set:
  Charge       = 0
  Multiplicity = 1
  Basis Set: 6-31G*
  Basis Set:

    Orbital Energies (a.u.)
    -----------------------

    Doubly Occupied:

       1A    -20.600744     2A    -20.537100     3A    -11.376801
       4A    -11.301135     5A    -11.243555     6A    -11.232789
       7A     -1.462405     8A     -1.363662     9A     -1.050951
      10A     -1.018549    11A     -0.898022    12A     -0.776840
      13A     -0.700341    14A     -0.687873    15A     -0.659583
      16A     -0.617567    17A     -0.596089    18A     -0.584094
      19A     -0.558504    20A     -0.540585    21A     -0.530214
      22A     -0.500382    23A     -0.441624    24A     -0.433351

  @DF-RHF Final Energy:  -305.85979485457602

   => Energetics <=

    Nuclear Repulsion Energy =            247.3755453575585648
    One-Electron Energy =                -907.0451599959690157
    Two-Electron Energy =                 353.8098197838342003
    DFT Exchange-Correlation Energy =       0.0000000000000000
    Empirical Dispersion Energy =           0.0000000000000000
    PCM Polarization Energy =               0.0000000000000000
    EFP Energy =                            0.0000000000000000
    Total Energy =                       -305.8597948545761938
    Molecular point group: c1
  Basis Set: 6-31G*
  Basis Set:

  -Total Gradient:
     Atom            X                  Y                   Z
    ------   -----------------  -----------------  -----------------
       1        0.000246330929     0.000090191637     0.000682757819
       2       -0.000225098253    -0.000054084175    -0.000590522290
       3        0.000015545929     0.000012012813    -0.000016757676
       4       -0.000266205806    -0.000048300967    -0.000697497850
       5       -0.000004497130    -0.000019718615    -0.000017862898
       6       -0.000002977394     0.000005909802     0.000002254590
       7        0.000004423573    -0.000001089223     0.000017603872
       8        0.000234481018     0.000038803766     0.000601863310
       9        0.000020595001    -0.000011732346     0.000010218826
      10       -0.000003766587    -0.000001895582     0.000005318727
      11        0.000000767307    -0.000020811838     0.000001189033
      12        0.000002379609    -0.000001100566     0.000000996371
      13       -0.000027245087     0.000013466205    -0.000003597462
      14        0.000005266888    -0.000001650914     0.000004035627

  **** Optimization is complete! (in 10 steps) ****
    Final optimized geometry and variables:
    Molecular point group: c1

    Geometry (in Angstrom), charge = 0, multiplicity = 1:

    O            0.169067719380     2.067356554644     0.002974645907
    C           -0.122513448601     0.938713127087     0.211190518939
    C           -1.474441467799     0.548842781963     0.768816141231
    O            0.773406023614    -0.017989497591    -0.029790050949
    H           -1.958475095608    -0.215912070183     0.173711883927
    H           -2.088850959720     1.435799243556     0.783977139337
    H           -1.375343927711     0.174148202989     1.782112061551
    C            0.552585736831    -1.401505603961     0.175558796907
    C            0.125543334853    -2.083665626968    -1.112230643631
    H           -0.164031085464    -1.568419089867     0.967792347267
    H            1.504033310209    -1.790804967154     0.508894429152
    H            0.038543022987    -3.154350890918    -0.956011768075
    H           -0.832595479136    -1.713342664065    -1.461316824294
    H            0.859279899980    -1.906796735278    -1.889559531125

  Mulliken Charges: (a.u.)
   Center  Symbol    Alpha    Beta     Spin     Total
       1     O     4.26725  4.26725  0.00000 -0.53451
       2     C     2.61286  2.61286  0.00000  0.77429
       3     C     3.31171  3.31171  0.00000 -0.62342
       4     O     4.30202  4.30202  0.00000 -0.60404
       5     H     0.40499  0.40499  0.00000  0.19002
       6     H     0.38663  0.38663  0.00000  0.22674
       7     H     0.40074  0.40074  0.00000  0.19851
       8     C     3.00710  3.00710  0.00000 -0.01421
       9     C     3.24950  3.24950  0.00000 -0.49901
      10     H     0.41743  0.41743  0.00000  0.16514
      11     H     0.40287  0.40287  0.00000  0.19426
      12     H     0.41635  0.41635  0.00000  0.16730
      13     H     0.41660  0.41660  0.00000  0.16680
      14     H     0.40394  0.40394  0.00000  0.19211

   Total alpha = 24.00000, Total beta = 24.00000, Total charge =  0.00000
