  ==> Input File <==

--------------------------------------------------------------------------
set {
	reference rhf
	basis 6-31G*
}

set_num_threads( 1 )
memory 2 gb

molecule MOL {
0 1

H	 1.829354	 -1.489945	 -0.693117
O	 2.016064	 -0.864478	 0.000222
C	 1.050492	 0.053836	 0.000068
C	 -0.318135	 -0.576402	 0.000164
O	 1.285279	 1.218255	 -0.000078
C	 -1.454360	 0.441875	 -0.000474
H	 -0.374042	 -1.230163	 -0.866135
H	 -0.374274	 -1.229227	 0.867154
C	 -2.826123	 -0.230780	 0.000056
H	 -1.357605	 1.085198	 -0.868380
H	 -1.357504	 1.086451	 0.866496
H	 -2.959731	 -0.858053	 -0.876869
H	 -3.619374	 0.509403	 -0.000080
H	 -2.959371	 -0.857318	 0.877556

	symmetry c1
}
set optking {
	frozen_dihedral = ("
		7 4 6 10,
		2 3 4 7
	")
}

ee = energy('scf')
oeprop('DIPOLE', 'QUADRUPOLE', 'MULLIKEN_CHARGES')
f=open( 'psi4out.xyz', 'w' )
f.write( "14  " )
f.write( str(ee) + "\n" )
f.write( MOL.save_string_xyz() )
f.close()
--------------------------------------------------------------------------

    Molecular point group: c1

    Geometry (in Angstrom), charge = 0, multiplicity = 1:

       Center              X                  Y                   Z               Mass
    ------------   -----------------  -----------------  -----------------  -----------------
           H          1.841083206447    -1.477611208813    -0.685181620841     1.007825032070
           O          2.027793206447    -0.852144208813     0.008157379159    15.994914619560
           C          1.062221206447     0.066169791187     0.008003379159    12.000000000000
           C         -0.306405793553    -0.564068208813     0.008099379159    12.000000000000
           O          1.297008206447     1.230588791187     0.007857379159    15.994914619560
           C         -1.442630793553     0.454208791187     0.007461379159    12.000000000000
           H         -0.362312793553    -1.217829208813    -0.858199620841     1.007825032070
           H         -0.362544793553    -1.216893208813     0.875089379159     1.007825032070
           C         -2.814393793553    -0.218446208813     0.007991379159    12.000000000000
           H         -1.345875793553     1.097531791187    -0.860444620841     1.007825032070
           H         -1.345774793553     1.098784791187     0.874431379159     1.007825032070
           H         -2.948001793553    -0.845719208813    -0.868933620841     1.007825032070
           H         -3.607644793553     0.521736791187     0.007855379159     1.007825032070
           H         -2.947641793553    -0.844984208813     0.885491379159     1.007825032070

  Charge       = 0
  Multiplicity = 1
  Basis Set: 6-31G*
  Basis Set:

    Orbital Energies (a.u.)
    -----------------------

    Doubly Occupied:

       1A    -20.606615     2A    -20.556450     3A    -11.381002
       4A    -11.248823     5A    -11.229987     6A    -11.221105
       7A     -1.469919     8A     -1.371319     9A     -1.087417
      10A     -0.979188    11A     -0.851682    12A     -0.812696
      13A     -0.719162    14A     -0.676393    15A     -0.662177
      16A     -0.632427    17A     -0.582902    18A     -0.572693
      19A     -0.550085    20A     -0.506824    21A     -0.496218
      22A     -0.487897    23A     -0.479446    24A     -0.443116

  @DF-RHF Final Energy:  -305.86133844914207

   => Energetics <=

    Nuclear Repulsion Energy =            240.2626995158177294
    One-Electron Energy =                -892.9970096380952782
    Two-Electron Energy =                 346.8729716731352255
    DFT Exchange-Correlation Energy =       0.0000000000000000
    Empirical Dispersion Energy =           0.0000000000000000
    PCM Polarization Energy =               0.0000000000000000
    EFP Energy =                            0.0000000000000000
    Total Energy =                       -305.8613384491422948

  Mulliken Charges: (a.u.)
   Center  Symbol    Alpha    Beta     Spin     Total
       1     H     0.26869  0.26869  0.00000  0.46263
       2     O     4.35162  4.35162  0.00000 -0.70325
       3     C     2.62064  2.62064  0.00000  0.75873
       4     C     3.22213  3.22213  0.00000 -0.44427
       5     O     4.25818  4.25818  0.00000 -0.51636
       6     C     3.15225  3.15225  0.00000 -0.30450
       7     H     0.41421  0.41421  0.00000  0.17159
       8     H     0.39626  0.39626  0.00000  0.20749
       9     C     3.24323  3.24323  0.00000 -0.48647
      10     H     0.40969  0.40969  0.00000  0.18062
      11     H     0.40711  0.40711  0.00000  0.18577
      12     H     0.42208  0.42208  0.00000  0.15583
      13     H     0.41336  0.41336  0.00000  0.17328
      14     H     0.42055  0.42055  0.00000  0.15891

   Total alpha = 24.00000, Total beta = 24.00000, Total charge =  0.00000
