  ==> Input File <==

--------------------------------------------------------------------------
set {
	reference rhf
	basis cc-pvtz
}

set_num_threads( 4 )
memory 2 gb

molecule MOL {
0 1

O	 -0.988175	 -1.402891	 0.050086
C	 -0.675048	 -0.248293	 -0.009686
C	 -1.742492	 0.826599	 -0.011538
N	 0.622280	 0.144970	 -0.099307
H	 -1.692153	 1.431066	 -0.908439
H	 -2.698310	 0.331559	 0.031353
H	 -1.642148	 1.483784	 0.843455
C	 1.643081	 -0.857702	 -0.319674
C	 1.106500	 1.433157	 0.336421
H	 2.396345	 -0.464676	 -0.991497
H	 1.199945	 -1.734951	 -0.754699
H	 2.129126	 -1.137773	 0.611429
H	 1.935032	 1.733037	 -0.292263
H	 0.346959	 2.191934	 0.257362
H	 1.461106	 1.407130	 1.364341

	symmetry c1
}
set optking {
	frozen_dihedral = ("
		8 4 2 3
	")
}

ee = optimize('scf')
oeprop('DIPOLE', 'QUADRUPOLE', 'MULLIKEN_CHARGES')
f=open( 'psi4out.xyz', 'w' )
f.write( "15  " )
f.write( str(ee) + "\n" )
f.write( MOL.save_string_xyz() )
f.close()
--------------------------------------------------------------------------

    Molecular point group: c1
  Charge       = 0
  Multiplicity = 1
  Basis Set: CC-PVTZ
  Basis Set:
  @DF-RHF Final Energy:  -286.13344781090655
    Total Energy =                       -286.1334478109063184
    Molecular point group: c1
  Basis Set: CC-PVTZ
  Basis Set:
  Basis Set: CC-PVTZ
  Basis Set:
  @DF-RHF Final Energy:  -286.13225332864090
    Total Energy =                       -286.1322533286408429
  Basis Set: CC-PVTZ
  Basis Set:
  Basis Set: CC-PVTZ
  Basis Set:
  @DF-RHF Final Energy:  -286.13432052501435
    Total Energy =                       -286.1343205250142319
  Basis Set: CC-PVTZ
  Basis Set:
  Basis Set: CC-PVTZ
  Basis Set:
  @DF-RHF Final Energy:  -286.13443133352172
    Total Energy =                       -286.1344313335222864
  Basis Set: CC-PVTZ
  Basis Set:
  @DF-RHF Final Energy:  -286.13456275430269
    Total Energy =                       -286.1345627543028058
  @DF-RHF Final Energy:  -286.13470667537263
    Total Energy =                       -286.1347066753726267
  @DF-RHF Final Energy:  -286.13501503356639
    Total Energy =                       -286.1350150335665035
  @DF-RHF Final Energy:  -286.13517108207304
    Total Energy =                       -286.1351710820728158
  @DF-RHF Final Energy:  -286.13526185674232
    Total Energy =                       -286.1352618567420905
  @DF-RHF Final Energy:  -286.13536667909642
    Total Energy =                       -286.1353666790960233
  @DF-RHF Final Energy:  -286.13540496088672
    Total Energy =                       -286.1354049608868877
  @DF-RHF Final Energy:  -286.13543748772429
    Total Energy =                       -286.1354374877238342
  @DF-RHF Final Energy:  -286.13545501836762
    Total Energy =                       -286.1354550183674519
  Basis Set: CC-PVTZ
  Basis Set:
  @DF-RHF Final Energy:  -286.13546440293391
    Total Energy =                       -286.1354644029338488
  Basis Set: CC-PVTZ
  Basis Set:
  Basis Set: CC-PVTZ
  Basis Set:
  @DF-RHF Final Energy:  -286.13547065214993
    Total Energy =                       -286.1354706521500475
  Basis Set: CC-PVTZ
  Basis Set:
  Basis Set: CC-PVTZ
  Basis Set:
  @DF-RHF Final Energy:  -286.13547186507515
    Total Energy =                       -286.1354718650748623
  Basis Set: CC-PVTZ
  Basis Set:
  Charge       = 0
  Multiplicity = 1
  Basis Set: CC-PVTZ
  Basis Set:

    Orbital Energies (a.u.)
    -----------------------

    Doubly Occupied:

       1A    -20.504251     2A    -15.578272     3A    -11.335323
       4A    -11.263771     5A    -11.246567     6A    -11.226657
       7A     -1.387797     8A     -1.246340     9A     -1.015215
      10A     -0.972750    11A     -0.920665    12A     -0.738814
      13A     -0.683448    14A     -0.662105    15A     -0.653689
      16A     -0.589749    17A     -0.577994    18A     -0.567960
      19A     -0.562232    20A     -0.548436    21A     -0.530174
      22A     -0.507782    23A     -0.414082    24A     -0.370882

  @DF-RHF Final Energy:  -286.13547273905897

   => Energetics <=

    Nuclear Repulsion Energy =            252.9629694318640247
    One-Electron Energy =                -889.9869728080954019
    Two-Electron Energy =                 350.8885306371723800
    DFT Exchange-Correlation Energy =       0.0000000000000000
    Empirical Dispersion Energy =           0.0000000000000000
    PCM Polarization Energy =               0.0000000000000000
    EFP Energy =                            0.0000000000000000
    Total Energy =                       -286.1354727390589687
    Molecular point group: c1
  Basis Set: CC-PVTZ
  Basis Set:

  -Total Gradient:
     Atom            X                  Y                   Z
    ------   -----------------  -----------------  -----------------
       1       -0.000007502339    -0.000001069686     0.000035187695
       2       -0.000290056634    -0.000190620383     0.001301245916
       3        0.000199163392     0.000298836174    -0.001302953696
       4       -0.000062819076    -0.000638873438     0.001186615825
       5        0.000009248863     0.000003419765     0.000011652746
       6        0.000000527645     0.000002105159    -0.000001391736
       7       -0.000006876446    -0.000005337858     0.000002427756
       8        0.000161016475     0.000529455581    -0.001253407538
       9       -0.000004839973     0.000004884385     0.000018105262
      10        0.000009076796     0.000013516590     0.000005493575
      11       -0.000007074524     0.000015591328    -0.000015367408
      12        0.000004033275    -0.000017560375     0.000010468143
      13       -0.000005086245    -0.000000498702    -0.000005271028
      14       -0.000005550561    -0.000008149776     0.000009536326
      15        0.000006739354    -0.000005698767    -0.000002341838

  **** Optimization is complete! (in 17 steps) ****
    Final optimized geometry and variables:
    Molecular point group: c1

    Geometry (in Angstrom), charge = 0, multiplicity = 1:

    O           -1.010623258143    -1.335595398153    -0.389127830996
    C           -0.678536760608    -0.226407394752    -0.083652695133
    C           -1.712680652018     0.876849016736     0.004485245588
    N            0.613789984387     0.091720986156     0.194419437260
    H           -1.483100222358     1.685755749038    -0.677885554945
    H           -2.665689276629     0.447878594650    -0.256760923317
    H           -1.769101253436     1.287162856272     1.005023407033
    C            1.649127208321    -0.879389140242    -0.091975185724
    C            1.079986917659     1.444876373769     0.385589929631
    H            2.145181326015    -0.655955230355    -1.033161123193
    H            1.216221417351    -1.861158052471    -0.152239256937
    H            2.392213889023    -0.863478547604     0.696017213599
    H            1.387636657454     1.908247750215    -0.549368821858
    H            0.327484815672     2.064411929329     0.843225924628
    H            1.936985831907     1.431743054580     1.046171240099

  Mulliken Charges: (a.u.)
   Center  Symbol    Alpha    Beta     Spin     Total
       1     O     4.21994  4.21994  0.00000 -0.43989
       2     C     2.84433  2.84433  0.00000  0.31134
       3     C     3.16085  3.16085  0.00000 -0.32171
       4     N     3.56321  3.56321  0.00000 -0.12643
       5     H     0.44940  0.44940  0.00000  0.10120
       6     H     0.42872  0.42872  0.00000  0.14255
       7     H     0.44826  0.44826  0.00000  0.10347
       8     C     3.09925  3.09925  0.00000 -0.19850
       9     C     3.09748  3.09748  0.00000 -0.19496
      10     H     0.45859  0.45859  0.00000  0.08283
      11     H     0.42597  0.42597  0.00000  0.14806
      12     H     0.45615  0.45615  0.00000  0.08770
      13     H     0.45493  0.45493  0.00000  0.09013
      14     H     0.44490  0.44490  0.00000  0.11020
      15     H     0.44801  0.44801  0.00000  0.10399

   Total alpha = 24.00000, Total beta = 24.00000, Total charge =  0.00000
