                              Psi4 1.0.54 Driver

  ==> Input File <==

--------------------------------------------------------------------------
set {
	reference rhf
	basis cc-pvtz
}

set_num_threads( 4 )
memory 2 gb

molecule MOL {
0 1

H	 2.088774	 -0.476905	 0.772005
O	 1.583947	 -0.677544	 -0.001533
C	 0.489979	 0.078084	 0.002623
C	 -0.763662	 -0.754014	 0.000816
O	 0.539051	 1.259395	 -0.000088
C	 -2.038001	 0.074705	 -0.000833
H	 -0.712945	 -1.405886	 -0.864342
H	 -0.715137	 -1.405770	 0.866182
H	 -2.087267	 0.710831	 -0.874232
H	 -2.903419	 -0.576199	 -0.001922
H	 -2.089467	 0.710909	 0.872389

	symmetry c1
}
set optking {
	frozen_dihedral = ("
		1 2 3 5
	")
}

ee,wfn = optimize('scf', return_wfn=True)
oeprop( wfn, 'DIPOLE', 'QUADRUPOLE', 'MULLIKEN_CHARGES')
f=open( 'psi4out.xyz', 'w' )
f.write( "11  " )
f.write( str(ee) + "\n" )
f.write( MOL.save_string_xyz() )
f.close()
--------------------------------------------------------------------------

    Molecular point group: c1
  Charge       = 0
  Multiplicity = 1
  Basis Set: CC-PVTZ
  Basis Set:
  @DF-RHF Final Energy:  -266.93815391925546
    Total Energy =                       -266.9381539192554555
    Molecular point group: c1
  Basis Set: CC-PVTZ
  Basis Set:
  Basis Set: CC-PVTZ
  Basis Set:
  @DF-RHF Final Energy:  -266.93599447999600
    Total Energy =                       -266.9359944799958839
  Basis Set: CC-PVTZ
  Basis Set:
  Basis Set: CC-PVTZ
  Basis Set:
  @DF-RHF Final Energy:  -266.93923422712646
    Total Energy =                       -266.9392342271265761
  Basis Set: CC-PVTZ
  Basis Set:
  Basis Set: CC-PVTZ
  Basis Set:
  @DF-RHF Final Energy:  -266.93940556271309
    Total Energy =                       -266.9394055627130911
  Basis Set: CC-PVTZ
  Basis Set:
  Basis Set: CC-PVTZ
  Basis Set:
  @DF-RHF Final Energy:  -266.93941172716723
    Total Energy =                       -266.9394117271672826
  Basis Set: CC-PVTZ
  Basis Set:
  Charge       = 0
  Multiplicity = 1
  Basis Set: CC-PVTZ
  Basis Set:

    Orbital Energies (a.u.)
    -----------------------

    Doubly Occupied:

       1A    -20.592064     2A    -20.548782     3A    -11.374876
       4A    -11.242943     5A    -11.218981     6A     -1.467681
       7A     -1.371468     8A     -1.065223     9A     -0.914493
      10A     -0.805631    11A     -0.710774    12A     -0.684666
      13A     -0.661369    14A     -0.612617    15A     -0.573381
      16A     -0.528564    17A     -0.526698    18A     -0.504883
      19A     -0.490918    20A     -0.449039

  @DF-RHF Final Energy:  -266.93941292185218

   => Energetics <=

    Nuclear Repulsion Energy =            179.5994291351729828
    One-Electron Energy =                -720.3875822364477699
    Two-Electron Energy =                 273.8487401794224070
    DFT Exchange-Correlation Energy =       0.0000000000000000
    Empirical Dispersion Energy =           0.0000000000000000
    PCM Polarization Energy =               0.0000000000000000
    EFP Energy =                            0.0000000000000000
    Total Energy =                       -266.9394129218524085
    Molecular point group: c1
  Basis Set: CC-PVTZ
  Basis Set:

  -Total Gradient:
     Atom            X                  Y                   Z
    ------   -----------------  -----------------  -----------------
       1       -0.004398560590    -0.007317925584     0.005626686994
       2        0.004801015846     0.009225788718    -0.011211520496
       3        0.000572468383    -0.001821556823     0.014573457953
       4        0.000095671624    -0.000015561681     0.000092222250
       5       -0.001058729855    -0.000088803330    -0.008997073520
       6       -0.000017448375    -0.000001702728    -0.000028175410
       7        0.000012591320     0.000001075802    -0.000034366540
       8        0.000006581351     0.000011075537    -0.000046175252
       9        0.000004408749    -0.000005101488     0.000012559583
      10       -0.000011359949     0.000007886965     0.000007050410
      11       -0.000006638500     0.000004824611     0.000005334029

  **** Optimization is complete! (in 6 steps) ****
    Final optimized geometry and variables:
    Molecular point group: c1

    Geometry (in Angstrom), charge = 0, multiplicity = 1:

    H            2.214912293882    -0.504112062818     0.574760169487
    O            1.600836478319    -0.673450657154    -0.121002341043
    C            0.491335064822     0.086699948330     0.013496642173
    C           -0.763222405184    -0.743315720669     0.035022389964
    O            0.532357339425     1.262459840110     0.014117413067
    C           -2.042348074864     0.077234266993     0.030765220062
    H           -0.712223913132    -1.410038255310    -0.819040901661
    H           -0.705218844248    -1.384879931920     0.908722006136
    H           -2.101170467945     0.699528647948    -0.852186764899
    H           -2.905115531374    -0.577238221644     0.045980421029
    H           -2.091312822580     0.727332983460     0.894082433118

  Mulliken Charges: (a.u.)
   Center  Symbol    Alpha    Beta     Spin     Total
       1     H     0.38231  0.38231  0.00000  0.23539
       2     O     4.17507  4.17507  0.00000 -0.35014
       3     C     2.80330  2.80330  0.00000  0.39339
       4     C     3.09950  3.09950  0.00000 -0.19901
       5     O     4.17021  4.17021  0.00000 -0.34041
       6     C     3.13970  3.13970  0.00000 -0.27941
       7     H     0.43859  0.43859  0.00000  0.12281
       8     H     0.44571  0.44571  0.00000  0.10858
       9     H     0.44711  0.44711  0.00000  0.10578
      10     H     0.44986  0.44986  0.00000  0.10027
      11     H     0.44863  0.44863  0.00000  0.10274

   Total alpha = 20.00000, Total beta = 20.00000, Total charge =  0.00000

*** Psi4 exiting successfully. Buy a developer a beer!
