  ==> Input File <==

--------------------------------------------------------------------------
set {
	reference rhf
	basis cc-pvtz
}

set_num_threads( 4 )
memory 2 gb

molecule MOL {
0 1

H	 -3.162190	 0.493205	 -0.000107
C	 -2.363908	 -0.234727	 0.000005
O	 -1.158738	 0.454634	 -0.000087
H	 -2.464314	 -0.863616	 -0.882153
H	 -2.464327	 -0.863359	 0.882345
C	 -0.028611	 -0.359694	 0.000037
C	 1.212847	 0.509314	 -0.000053
H	 -0.034155	 -1.007047	 -0.877198
H	 -0.034195	 -1.006836	 0.877430
C	 1.100360	 1.685345	 -0.963717
H	 1.383378	 0.868144	 1.008949
H	 2.065954	 -0.107158	 -0.261055
H	 0.266324	 2.329500	 -0.705770
H	 1.999600	 2.288653	 -0.943518
H	 0.953764	 1.347684	 -1.984286

	symmetry c1
}
set optking {
	frozen_dihedral = ("
		11 7 6 8
	")
}

ee = optimize('scf')
oeprop('DIPOLE', 'QUADRUPOLE', 'MULLIKEN_CHARGES')
f=open( 'psi4out.xyz', 'w' )
f.write( "15  " )
f.write( str(ee) + "\n" )
f.write( MOL.save_string_xyz() )
f.close()
--------------------------------------------------------------------------

    Molecular point group: c1
  Charge       = 0
  Multiplicity = 1
  Basis Set: CC-PVTZ
  Basis Set:
  @DF-RHF Final Energy:  -232.22586232179498
    Total Energy =                       -232.2258623217950912
    Molecular point group: c1
  Basis Set: CC-PVTZ
  Basis Set:
  Basis Set: CC-PVTZ
  Basis Set:
  @DF-RHF Final Energy:  -232.22643641466598
    Total Energy =                       -232.2264364146658409
  Basis Set: CC-PVTZ
  Basis Set:
  Basis Set: CC-PVTZ
  Basis Set:
  @DF-RHF Final Energy:  -232.22665654730224
    Total Energy =                       -232.2266565473021842
  Basis Set: CC-PVTZ
  Basis Set:
  Basis Set: CC-PVTZ
  Basis Set:
  @DF-RHF Final Energy:  -232.22666537537131
    Total Energy =                       -232.2266653753712831
  Basis Set: CC-PVTZ
  Basis Set:
  Charge       = 0
  Multiplicity = 1
  Basis Set: CC-PVTZ
  Basis Set:

    Orbital Energies (a.u.)
    -----------------------

    Doubly Occupied:

       1A    -20.548775     2A    -11.264981     3A    -11.262665
       4A    -11.213919     5A    -11.201154     6A     -1.383415
       7A     -1.054128     8A     -0.951191     9A     -0.889593
      10A     -0.796972    11A     -0.673007    12A     -0.662150
      13A     -0.636093    14A     -0.596997    15A     -0.560745
      16A     -0.545193    17A     -0.504574    18A     -0.485529
      19A     -0.475298    20A     -0.460380    21A     -0.415472

  @DF-RHF Final Energy:  -232.22666578825306

   => Energetics <=

    Nuclear Repulsion Energy =            193.2545547491008620
    One-Electron Energy =                -697.7979843888617779
    Two-Electron Energy =                 272.3167638515078011
    DFT Exchange-Correlation Energy =       0.0000000000000000
    Empirical Dispersion Energy =           0.0000000000000000
    PCM Polarization Energy =               0.0000000000000000
    EFP Energy =                            0.0000000000000000
    Total Energy =                       -232.2266657882531149
    Molecular point group: c1
  Basis Set: CC-PVTZ
  Basis Set:

  -Total Gradient:
     Atom            X                  Y                   Z
    ------   -----------------  -----------------  -----------------
       1        0.000010656869     0.000006983919    -0.000000009483
       2        0.000017857749    -0.000014090688    -0.000002104386
       3       -0.000029476498     0.000022813551     0.000003645101
       4       -0.000004891460    -0.000001373106    -0.000005339184
       5       -0.000001648632     0.000002788135     0.000003271684
       6       -0.002044151216     0.003028550607    -0.002610669440
       7       -0.002573930511     0.003611316665    -0.000462687796
       8        0.002139806801    -0.003108029292     0.002248953023
       9       -0.000010839137     0.000009051223     0.000004607801
      10        0.000020590541    -0.000026914250    -0.000004388759
      11        0.002471976930    -0.003546565006     0.000826950508
      12        0.000021391835     0.000005209082    -0.000005788910
      13       -0.000003382764     0.000004826114     0.000012318396
      14       -0.000011114155    -0.000001041718    -0.000001290067
      15       -0.000002846353     0.000006474763    -0.000007468486

  **** Optimization is complete! (in 5 steps) ****
    Final optimized geometry and variables:
    Molecular point group: c1

    Geometry (in Angstrom), charge = 0, multiplicity = 1:

    H           -2.914241633958     0.019869915629     0.250050262437
    C           -2.095230246459    -0.684055461624     0.218307551333
    O           -0.910589480491     0.039569674308     0.213777399303
    H           -2.192950691978    -1.294198915278    -0.677177149154
    H           -2.160893726709    -1.336499912751     1.086520750687
    C            0.240292801931    -0.741287165638     0.170539602774
    C            1.482936063460     0.133758082882     0.197058901663
    H            0.246831272931    -1.376917230855    -0.715640775482
    H            0.260414718315    -1.416833554757     1.025850776661
    C            1.454036607245     1.294836373572    -0.788981689808
    H            1.652597948432     0.486838647870     1.208894522659
    H            2.328038046856    -0.511769755178    -0.028342797109
    H            0.652087624301     1.982326086203    -0.559544902171
    H            2.389941319643     1.840889942494    -0.761682320944
    H            1.306282908243     0.939576357251    -1.803744044652

  Mulliken Charges: (a.u.)
   Center  Symbol    Alpha    Beta     Spin     Total
       1     H     0.44728  0.44728  0.00000  0.10544
       2     C     3.03072  3.03072  0.00000 -0.06145
       3     O     4.17311  4.17311  0.00000 -0.34623
       4     H     0.47189  0.47189  0.00000  0.05622
       5     H     0.47150  0.47150  0.00000  0.05700
       6     C     2.97153  2.97153  0.00000  0.05693
       7     C     3.08317  3.08317  0.00000 -0.16635
       8     H     0.47285  0.47285  0.00000  0.05430
       9     H     0.46768  0.46768  0.00000  0.06464
      10     C     3.14522  3.14522  0.00000 -0.29043
      11     H     0.45296  0.45296  0.00000  0.09408
      12     H     0.45717  0.45717  0.00000  0.08566
      13     H     0.44505  0.44505  0.00000  0.10991
      14     H     0.45176  0.45176  0.00000  0.09649
      15     H     0.45811  0.45811  0.00000  0.08378

   Total alpha = 21.00000, Total beta = 21.00000, Total charge = -0.00000
