  ==> Input File <==

--------------------------------------------------------------------------
set {
	reference rhf
	basis 6-31G*
}

set_num_threads( 1 )
memory 2 gb

molecule MOL {
0 1

O	 -0.069996	 -1.371234	 -2.730841
C	 -0.603543	 -0.446493	 -2.197348
C	 -0.889235	 -0.467034	 -0.705952
C	 -0.990795	 0.797659	 -2.965137
C	 0.379448	 -0.143569	 0.099626
H	 -1.235596	 -1.462731	 -0.451145
H	 -1.676705	 0.238910	 -0.457837
C	 1.631333	 -0.777471	 -0.511575
H	 0.482768	 0.934507	 0.149241
H	 0.263088	 -0.495696	 1.123449
C	 2.915987	 -0.544314	 0.291766
H	 1.766672	 -0.399098	 -1.523130
H	 1.471257	 -1.849544	 -0.605828
C	 3.373361	 0.914346	 0.347591
H	 3.708709	 -1.142521	 -0.150311
H	 2.780642	 -0.921148	 1.303579
H	 3.506512	 1.320010	 -0.651625
H	 4.322697	 0.999599	 0.867103
H	 2.660624	 1.545032	 0.868198
H	 -2.073342	 0.892245	 -2.985378
H	 -0.616593	 0.739332	 -3.977735
H	 -0.600905	 1.686855	 -2.478186

	symmetry c1
}
set optking {
	frozen_dihedral = ("
		6 3 2 1,
		3 5 8 12,
		12 8 11 15
	")
}

ee = energy('scf')
oeprop('DIPOLE', 'QUADRUPOLE', 'MULLIKEN_CHARGES')
f=open( 'psi4out.xyz', 'w' )
f.write( "22  " )
f.write( str(ee) + "\n" )
f.write( MOL.save_string_xyz() )
f.close()
--------------------------------------------------------------------------

    Molecular point group: c1

    Geometry (in Angstrom), charge = 0, multiplicity = 1:

       Center              X                  Y                   Z               Mass
    ------------   -----------------  -----------------  -----------------  -----------------
           O         -0.802258458209    -1.127306563327    -1.675564950907    15.994914619560
           C         -1.335805458209    -0.202565563327    -1.142071950907    12.000000000000
           C         -1.621497458209    -0.223106563327     0.349324049093    12.000000000000
           C         -1.723057458209     1.041586436673    -1.909860950907    12.000000000000
           C         -0.352814458209     0.100358436673     1.154902049093    12.000000000000
           H         -1.967858458209    -1.218803563327     0.604131049093     1.007825032070
           H         -2.408967458209     0.482837436673     0.597439049093     1.007825032070
           C          0.899070541791    -0.533543563327     0.543701049093    12.000000000000
           H         -0.249494458209     1.178434436673     1.204517049093     1.007825032070
           H         -0.469174458209    -0.251768563327     2.178725049093     1.007825032070
           C          2.183724541791    -0.300386563327     1.347042049093    12.000000000000
           H          1.034409541791    -0.155170563327    -0.467853950907     1.007825032070
           H          0.738994541791    -1.605616563327     0.449448049093     1.007825032070
           C          2.641098541791     1.158273436673     1.402867049093    12.000000000000
           H          2.976446541791    -0.898593563327     0.904965049093     1.007825032070
           H          2.048379541791    -0.677220563327     2.358855049093     1.007825032070
           H          2.774249541791     1.563937436673     0.403651049093     1.007825032070
           H          3.590434541791     1.243526436673     1.922379049093     1.007825032070
           H          1.928361541791     1.788959436673     1.923474049093     1.007825032070
           H         -2.805604458209     1.136172436673    -1.930101950907     1.007825032070
           H         -1.348855458209     0.983259436673    -2.922458950907     1.007825032070
           H         -1.333167458209     1.930782436673    -1.422909950907     1.007825032070

  Charge       = 0
  Multiplicity = 1
  Basis Set: 6-31G*
  Basis Set:

    Orbital Energies (a.u.)
    -----------------------

    Doubly Occupied:

       1A    -20.547064     2A    -11.325100     3A    -11.229268
       4A    -11.229144     5A    -11.227974     6A    -11.213427
       7A    -11.209470     8A    -11.208376     9A     -1.394908
      10A     -1.092427    11A     -1.041174    12A     -0.999108
      13A     -0.933154    14A     -0.856017    15A     -0.785490
      16A     -0.728591    17A     -0.656938    18A     -0.645380
      19A     -0.626874    20A     -0.613787    21A     -0.597729
      22A     -0.576062    23A     -0.570566    24A     -0.541839
      25A     -0.531832    26A     -0.515127    27A     -0.504956
      28A     -0.484145    29A     -0.460697    30A     -0.454489
      31A     -0.451434    32A     -0.396031

  @DF-RHF Final Energy:  -348.09070687640036

   => Energetics <=

    Nuclear Repulsion Energy =            386.6358232649441220
    One-Electron Energy =               -1238.1558491181897352
    Two-Electron Energy =                 503.4293189768439447
    DFT Exchange-Correlation Energy =       0.0000000000000000
    Empirical Dispersion Energy =           0.0000000000000000
    PCM Polarization Energy =               0.0000000000000000
    EFP Energy =                            0.0000000000000000
    Total Energy =                       -348.0907068764017254

  Mulliken Charges: (a.u.)
   Center  Symbol    Alpha    Beta     Spin     Total
       1     O     4.26184  4.26184  0.00000 -0.52369
       2     C     2.74112  2.74112  0.00000  0.51776
       3     C     3.19704  3.19704  0.00000 -0.39408
       4     C     3.28888  3.28888  0.00000 -0.57776
       5     C     3.16475  3.16475  0.00000 -0.32950
       6     H     0.40097  0.40097  0.00000  0.19806
       7     H     0.41516  0.41516  0.00000  0.16969
       8     C     3.15682  3.15682  0.00000 -0.31365
       9     H     0.41867  0.41867  0.00000  0.16266
      10     H     0.41437  0.41437  0.00000  0.17126
      11     C     3.15300  3.15300  0.00000 -0.30599
      12     H     0.41549  0.41549  0.00000  0.16903
      13     H     0.40959  0.40959  0.00000  0.18081
      14     C     3.24162  3.24162  0.00000 -0.48325
      15     H     0.41857  0.41857  0.00000  0.16285
      16     H     0.42518  0.42518  0.00000  0.14964
      17     H     0.42232  0.42232  0.00000  0.15536
      18     H     0.41877  0.41877  0.00000  0.16246
      19     H     0.42254  0.42254  0.00000  0.15491
      20     H     0.40629  0.40629  0.00000  0.18741
      21     H     0.39724  0.39724  0.00000  0.20553
      22     H     0.40976  0.40976  0.00000  0.18049

   Total alpha = 32.00000, Total beta = 32.00000, Total charge = -0.00000
