                              Psi4 1.0.54 Driver

  ==> Input File <==

--------------------------------------------------------------------------
set {
	reference rhf
	basis cc-pvtz
}

set_num_threads( 4 )
memory 2 gb

molecule MOL {
0 1

H	 -2.149496	 -2.244167	 0.000000
O	 -2.454378	 -1.354528	 0.000000
C	 -1.430628	 -0.482077	 0.000000
C	 -0.252377	 -0.878864	 0.615594
C	 -1.517969	 0.765390	 -0.580877
H	 -0.204556	 -1.852535	 1.061359
C	 0.827856	 -0.026809	 0.645709
H	 -2.423351	 1.085155	 -1.060441
C	 -0.419014	 1.612975	 -0.541788
H	 1.735071	 -0.341275	 1.123631
C	 0.758401	 1.228982	 0.067872
C	 -0.519183	 2.916377	 -1.152048
H	 1.597510	 1.894104	 0.089833
N	 -0.600954	 3.934878	 -1.630226

	symmetry c1
}
set optking {
	frozen_dihedral = ("
		5 3 2 1
	")
}

ee,wfn = optimize('scf', return_wfn=True)
oeprop( wfn, 'DIPOLE', 'QUADRUPOLE', 'MULLIKEN_CHARGES')
f=open( 'psi4out.xyz', 'w' )
f.write( "14  " )
f.write( str(ee) + "\n" )
f.write( MOL.save_string_xyz() )
f.close()
--------------------------------------------------------------------------

    Molecular point group: c1
  Charge       = 0
  Multiplicity = 1
  Basis Set: CC-PVTZ
  Basis Set:
  @DF-RHF Final Energy:  -397.42951111159800
    Total Energy =                       -397.4295111115977761
    Molecular point group: c1
  Basis Set: CC-PVTZ
  Basis Set:
  Basis Set: CC-PVTZ
  Basis Set:
  @DF-RHF Final Energy:  -397.43135035487478
    Total Energy =                       -397.4313503548747804
  Basis Set: CC-PVTZ
  Basis Set:
  Basis Set: CC-PVTZ
  Basis Set:
  @DF-RHF Final Energy:  -397.43150093682698
    Total Energy =                       -397.4315009368274332
  Basis Set: CC-PVTZ
  Basis Set:
  Basis Set: CC-PVTZ
  Basis Set:
  @DF-RHF Final Energy:  -397.43152486337311
    Total Energy =                       -397.4315248633731699
  Basis Set: CC-PVTZ
  Basis Set:
  Basis Set: CC-PVTZ
  Basis Set:
  @DF-RHF Final Energy:  -397.43152945965335
    Total Energy =                       -397.4315294596535750
  Basis Set: CC-PVTZ
  Basis Set:
  Charge       = 0
  Multiplicity = 1
  Basis Set: CC-PVTZ
  Basis Set:

    Orbital Energies (a.u.)
    -----------------------

    Doubly Occupied:

       1A    -20.603306     2A    -15.563726     3A    -11.322847
       4A    -11.291434     5A    -11.267058     6A    -11.261845
       7A    -11.257324     8A    -11.257068     9A    -11.256726
      10A     -1.434876    11A     -1.236704    12A     -1.186883
      13A     -1.066365    14A     -1.043420    15A     -0.901249
      16A     -0.861897    17A     -0.797100    18A     -0.717220
      19A     -0.695145    20A     -0.679090    21A     -0.635234
      22A     -0.623958    23A     -0.586181    24A     -0.567375
      25A     -0.550960    26A     -0.545755    27A     -0.523626
      28A     -0.480574    29A     -0.477612    30A     -0.367244
      31A     -0.345254

  @DF-RHF Final Energy:  -397.43152982721847

   => Energetics <=

    Nuclear Repulsion Energy =            380.3619322531095577
    One-Electron Energy =               -1292.7768143605239857
    Two-Electron Energy =                 514.9833522801961863
    DFT Exchange-Correlation Energy =       0.0000000000000000
    Empirical Dispersion Energy =           0.0000000000000000
    PCM Polarization Energy =               0.0000000000000000
    EFP Energy =                            0.0000000000000000
    Total Energy =                       -397.4315298272182417
    Molecular point group: c1
  Basis Set: CC-PVTZ
  Basis Set:

  -Total Gradient:
     Atom            X                  Y                   Z
    ------   -----------------  -----------------  -----------------
       1        0.000057245149     0.000050544345    -0.002306438327
       2        0.000180643058    -0.000357349201     0.002224162845
       3       -0.000788215600     0.000903511935     0.001496480971
       4        0.000004920523    -0.000018821249     0.000021513653
       5        0.000576738783    -0.000583692827    -0.001448370140
       6        0.000000953266    -0.000002027072    -0.000003096791
       7       -0.000003127306    -0.000004790793     0.000027618213
       8       -0.000002694074    -0.000008399783    -0.000001270921
       9       -0.000027717236     0.000022579289     0.000046048419
      10        0.000003208660     0.000007436803    -0.000003670286
      11       -0.000012144589    -0.000005201589    -0.000051168221
      12        0.000024208405     0.000007740513     0.000013448372
      13        0.000004320312    -0.000004179252     0.000000844074
      14       -0.000018339348    -0.000007351129    -0.000016101856

  **** Optimization is complete! (in 6 steps) ****
    Final optimized geometry and variables:
    Molecular point group: c1

    Geometry (in Angstrom), charge = 0, multiplicity = 1:

    H           -1.575579162635    -2.996439246581     0.234454009243
    O           -1.822332796523    -2.088993848719     0.246454920941
    C           -0.737677184492    -1.286751214481     0.287743049606
    C            0.441805962165    -1.669237360033     0.900922584203
    C           -0.837845090327    -0.041592385644    -0.302204404259
    H            0.513067473638    -2.635872618403     1.363791663399
    C            1.520312882261    -0.805860863218     0.925126089651
    H           -1.751901853741     0.245058328553    -0.781217026899
    C            0.245927016802     0.816601635311    -0.259334868397
    H            2.431222771627    -1.111271277822     1.401802892012
    C            1.433664888400     0.443867328584     0.349973488877
    C            0.138202327645     2.118654517728    -0.871942523060
    H            2.264711128166     1.119277086095     0.369696568949
    N            0.057067794178     3.136913998400    -1.350718408913

  Mulliken Charges: (a.u.)
   Center  Symbol    Alpha    Beta     Spin     Total
       1     H     0.38407  0.38407  0.00000  0.23186
       2     O     4.17379  4.17379  0.00000 -0.34759
       3     C     2.84880  2.84880  0.00000  0.30240
       4     C     3.12558  3.12558  0.00000 -0.25116
       5     C     3.12159  3.12159  0.00000 -0.24318
       6     H     0.42469  0.42469  0.00000  0.15062
       7     C     3.05764  3.05764  0.00000 -0.11528
       8     H     0.40853  0.40853  0.00000  0.18293
       9     C     2.92267  2.92267  0.00000  0.15466
      10     H     0.41666  0.41666  0.00000  0.16668
      11     C     3.10324  3.10324  0.00000 -0.20648
      12     C     3.02413  3.02413  0.00000 -0.04826
      13     H     0.41430  0.41430  0.00000  0.17140
      14     N     3.57430  3.57430  0.00000 -0.14860

   Total alpha = 31.00000, Total beta = 31.00000, Total charge =  0.00000

*** Psi4 exiting successfully. Buy a developer a beer!
