                              Psi4 1.0.54 Driver

  ==> Input File <==

--------------------------------------------------------------------------
set {
	reference rhf
	basis cc-pvtz
}

set_num_threads( 4 )
memory 2 gb

molecule MOL {
0 1

H	 1.166964	 -1.062386	 0.758429
O	 1.324748	 -0.612467	 -0.052206
C	 0.706474	 0.636793	 -0.025501
C	 0.243297	 1.134584	 -1.365390
H	 1.433485	 1.330179	 0.380667
H	 -0.138465	 0.636742	 0.660633
C	 0.466365	 0.550742	 -2.521969
H	 -0.316167	 2.055034	 -1.333435
H	 1.033619	 -0.357364	 -2.596392
H	 0.096927	 0.973613	 -3.436713

	symmetry c1
}
set optking {
	frozen_dihedral = ("
		5 3 2 1
	")
}

ee,wfn = optimize('scf', return_wfn=True)
oeprop( wfn, 'DIPOLE', 'QUADRUPOLE', 'MULLIKEN_CHARGES')
f=open( 'psi4out.xyz', 'w' )
f.write( "10  " )
f.write( str(ee) + "\n" )
f.write( MOL.save_string_xyz() )
f.close()
--------------------------------------------------------------------------

    Molecular point group: c1
  Charge       = 0
  Multiplicity = 1
  Basis Set: CC-PVTZ
  Basis Set:
  @DF-RHF Final Energy:  -191.99568722652273
    Total Energy =                       -191.9956872265227048
    Molecular point group: c1
  Basis Set: CC-PVTZ
  Basis Set:
  Basis Set: CC-PVTZ
  Basis Set:
  @DF-RHF Final Energy:  -191.90095992196129
    Total Energy =                       -191.9009599219612596
  Basis Set: CC-PVTZ
  Basis Set:
  Basis Set: CC-PVTZ
  Basis Set:
  @DF-RHF Final Energy:  -191.98673927730152
    Total Energy =                       -191.9867392773014672
  Basis Set: CC-PVTZ
  Basis Set:
  Basis Set: CC-PVTZ
  Basis Set:
  @DF-RHF Final Energy:  -191.99699125370302
    Total Energy =                       -191.9969912537030723
  Basis Set: CC-PVTZ
  Basis Set:
  Basis Set: CC-PVTZ
  Basis Set:
  @DF-RHF Final Energy:  -191.99713477298758
    Total Energy =                       -191.9971347729874083
  Basis Set: CC-PVTZ
  Basis Set:
  Basis Set: CC-PVTZ
  Basis Set:
  @DF-RHF Final Energy:  -191.99722601913402
    Total Energy =                       -191.9972260191342173
  Basis Set: CC-PVTZ
  Basis Set:
  Basis Set: CC-PVTZ
  Basis Set:
  @DF-RHF Final Energy:  -191.99722860426658
    Total Energy =                       -191.9972286042664109
  Basis Set: CC-PVTZ
  Basis Set:
  Charge       = 0
  Multiplicity = 1
  Basis Set: CC-PVTZ
  Basis Set:

    Orbital Energies (a.u.)
    -----------------------

    Doubly Occupied:

       1A    -20.553560     2A    -11.278285     3A    -11.223530
       4A    -11.207788     5A     -1.373618     6A     -1.058339
       7A     -0.926409     8A     -0.757180     9A     -0.712766
      10A     -0.645521    11A     -0.616647    12A     -0.589787
      13A     -0.516806    14A     -0.493730    15A     -0.455757
      16A     -0.360561

  @DF-RHF Final Energy:  -191.99722875928757

   => Energetics <=

    Nuclear Repulsion Energy =            119.5828015881628659
    One-Electron Energy =                -497.6194974334388235
    Two-Electron Energy =                 186.0394670859883490
    DFT Exchange-Correlation Energy =       0.0000000000000000
    Empirical Dispersion Energy =           0.0000000000000000
    PCM Polarization Energy =               0.0000000000000000
    EFP Energy =                            0.0000000000000000
    Total Energy =                       -191.9972287592876228
    Molecular point group: c1
  Basis Set: CC-PVTZ
  Basis Set:

  -Total Gradient:
     Atom            X                  Y                   Z
    ------   -----------------  -----------------  -----------------
       1       -0.000606207181    -0.000169695078    -0.000772897771
       2        0.000905450314     0.000288232378     0.000793569180
       3       -0.000791392568    -0.000608441530     0.000468829492
       4       -0.000031740414    -0.000013240538     0.000001611221
       5        0.000514720791     0.000497742229    -0.000471306497
       6       -0.000005769890     0.000003293330    -0.000011386679
       7       -0.000034487755    -0.000022142299    -0.000020518128
       8        0.000010810915     0.000009601300     0.000005752640
       9        0.000022095086     0.000002475624     0.000003907288
      10        0.000016520700     0.000012174585     0.000002439254

  **** Optimization is complete! (in 8 steps) ****
    Final optimized geometry and variables:
    Molecular point group: c1

    Geometry (in Angstrom), charge = 0, multiplicity = 1:

    H            0.046563685172    -1.997427777842     0.968332995150
    O            0.401552974329    -1.240238872845     0.543239425425
    C           -0.335182150778    -0.103375285787     0.887659649603
    C           -0.331451985919     0.906011555210    -0.220394236479
    H            0.084191885634     0.360874383146     1.778245107987
    H           -1.365806587760    -0.362536137464     1.119840502702
    C            0.227437768957     0.749438894502    -1.398759602451
    H           -0.837174369863     1.827478253220     0.015809662990
    H            0.742058159335    -0.154440951276    -1.658506902335
    H            0.186666034241     1.529250080367    -2.135549271696

  Mulliken Charges: (a.u.)
   Center  Symbol    Alpha    Beta     Spin     Total
       1     H     0.39202  0.39202  0.00000  0.21596
       2     O     4.19474  4.19474  0.00000 -0.38948
       3     C     2.94041  2.94041  0.00000  0.11918
       4     C     3.08078  3.08078  0.00000 -0.16156
       5     H     0.47174  0.47174  0.00000  0.05653
       6     H     0.47460  0.47460  0.00000  0.05079
       7     C     3.17126  3.17126  0.00000 -0.34252
       8     H     0.42418  0.42418  0.00000  0.15164
       9     H     0.42008  0.42008  0.00000  0.15983
      10     H     0.43018  0.43018  0.00000  0.13963

   Total alpha = 16.00000, Total beta = 16.00000, Total charge = -0.00000

*** Psi4 exiting successfully. Buy a developer a beer!
