                              Psi4 1.0.54 Driver

  ==> Input File <==

--------------------------------------------------------------------------
set {
	reference rhf
	basis cc-pvtz
}

set_num_threads( 4 )
memory 2 gb

molecule MOL {
0 1

H	 2.092789	 -1.009803	 -0.426534
C	 1.948180	 -0.217873	 0.320185
C	 0.692262	 0.592428	 0.156232
O	 2.753391	 -0.052065	 1.169760
C	 -0.554654	 -0.292621	 0.086567
H	 0.791858	 1.203694	 -0.731051
H	 0.617379	 1.254358	 1.016534
C	 -1.846385	 0.513195	 -0.016346
H	 -0.473986	 -0.956115	 -0.769708
H	 -0.597929	 -0.929215	 0.966651
C	 -3.089953	 -0.365049	 -0.098564
H	 -1.798267	 1.154820	 -0.891143
H	 -1.925398	 1.173265	 0.842889
H	 -3.055079	 -1.012299	 -0.968245
H	 -3.988403	 0.236438	 -0.170014
H	 -3.183055	 -0.995885	 0.779079

	symmetry c1
}
set optking {
	frozen_dihedral = ("
		4 2 3 6
	")
}

ee,wfn = optimize('scf', return_wfn=True)
oeprop( wfn, 'DIPOLE', 'QUADRUPOLE', 'MULLIKEN_CHARGES')
f=open( 'psi4out.xyz', 'w' )
f.write( "16  " )
f.write( str(ee) + "\n" )
f.write( MOL.save_string_xyz() )
f.close()
--------------------------------------------------------------------------

    Molecular point group: c1
  Charge       = 0
  Multiplicity = 1
  Basis Set: CC-PVTZ
  Basis Set:
  @DF-RHF Final Energy:  -270.11880730497478
    Total Energy =                       -270.1188073049747231
    Molecular point group: c1
  Basis Set: CC-PVTZ
  Basis Set:
  Basis Set: CC-PVTZ
  Basis Set:
  @DF-RHF Final Energy:  -270.11915381994993
    Total Energy =                       -270.1191538199498154
  Basis Set: CC-PVTZ
  Basis Set:
  Basis Set: CC-PVTZ
  Basis Set:
  @DF-RHF Final Energy:  -270.11912844116000
    Total Energy =                       -270.1191284411602282
  Basis Set: CC-PVTZ
  Basis Set:
  Basis Set: CC-PVTZ
  Basis Set:
  @DF-RHF Final Energy:  -270.11916800813441
    Total Energy =                       -270.1191680081342383
  Basis Set: CC-PVTZ
  Basis Set:
  Basis Set: CC-PVTZ
  Basis Set:
  @DF-RHF Final Energy:  -270.11919343881777
    Total Energy =                       -270.1191934388178879
  Basis Set: CC-PVTZ
  Basis Set:
  Charge       = 0
  Multiplicity = 1
  Basis Set: CC-PVTZ
  Basis Set:

    Orbital Energies (a.u.)
    -----------------------

    Doubly Occupied:

       1A    -20.551968     2A    -11.321422     3A    -11.234566
       4A    -11.233958     5A    -11.227575     6A    -11.216817
       7A     -1.406868     8A     -1.098114     9A     -1.020251
      10A     -0.906798    11A     -0.812571    12A     -0.794755
      13A     -0.679530    14A     -0.650177    15A     -0.634478
      16A     -0.604544    17A     -0.584210    18A     -0.551325
      19A     -0.531186    20A     -0.508634    21A     -0.488895
      22A     -0.483996    23A     -0.479961    24A     -0.411640

  @DF-RHF Final Energy:  -270.11919303778916

   => Energetics <=

    Nuclear Repulsion Energy =            229.1679013219361423
    One-Electron Energy =                -819.7057136312701004
    Two-Electron Energy =                 320.4186192715445713
    DFT Exchange-Correlation Energy =       0.0000000000000000
    Empirical Dispersion Energy =           0.0000000000000000
    PCM Polarization Energy =               0.0000000000000000
    EFP Energy =                            0.0000000000000000
    Total Energy =                       -270.1191930377893868
    Molecular point group: c1
  Basis Set: CC-PVTZ
  Basis Set:

  -Total Gradient:
     Atom            X                  Y                   Z
    ------   -----------------  -----------------  -----------------
       1       -0.000002425457    -0.000078102666     0.000037975950
       2       -0.000156099372    -0.000302087332     0.000264628312
       3       -0.000159018939    -0.000124617427    -0.000286360653
       4        0.000080331234     0.000257671007    -0.000241061960
       5        0.000067008544    -0.000042525743    -0.000167170604
       6        0.000147564121     0.000141747365     0.000320048357
       7        0.000000750428     0.000176338290     0.000135312718
       8        0.000035168101    -0.000004599996    -0.000037899560
       9       -0.000097990767    -0.000096453076    -0.000072867303
      10        0.000091136527     0.000063520768    -0.000017216308
      11        0.000011056025     0.000000062737     0.000039494437
      12       -0.000004581332    -0.000002583333    -0.000007271010
      13        0.000000634427     0.000007019041     0.000014965901
      14        0.000016453397     0.000009583684    -0.000011215671
      15       -0.000022977164     0.000014305482     0.000010746518
      16       -0.000007009763    -0.000019278800     0.000017890876

  **** Optimization is complete! (in 6 steps) ****
    Final optimized geometry and variables:
    Molecular point group: c1

    Geometry (in Angstrom), charge = 0, multiplicity = 1:

    H            2.094957941312    -1.006645029639    -0.716712729007
    C            1.966471993753    -0.242163419827     0.060968594330
    C            0.701715679423     0.565920552573    -0.038188946889
    O            2.795302076894    -0.098707671107     0.891599142513
    C           -0.542473073526    -0.313189191054    -0.173495441932
    H            0.796739570239     1.200142560036    -0.917341925864
    H            0.640460380781     1.211294763809     0.828685589532
    C           -1.826154507832     0.497815193110    -0.324329416009
    H           -0.431429521485    -0.972304745783    -1.030841673629
    H           -0.622804407348    -0.955128073625     0.699340463774
    C           -3.070695403104    -0.374934726696    -0.442318720111
    H           -1.745853963542     1.134621480711    -1.200870101807
    H           -1.930540932142     1.162894933523     0.527788545922
    H           -3.010917102735    -1.027907672580    -1.306589075684
    H           -3.963410695982     0.230349805670    -0.546506490900
    H           -3.195240319321    -0.999702984690     0.435617150814

  Mulliken Charges: (a.u.)
   Center  Symbol    Alpha    Beta     Spin     Total
       1     H     0.46573  0.46573  0.00000  0.06855
       2     C     2.90927  2.90927  0.00000  0.18146
       3     C     3.07716  3.07716  0.00000 -0.15433
       4     O     4.16373  4.16373  0.00000 -0.32746
       5     C     3.10231  3.10231  0.00000 -0.20461
       6     H     0.44922  0.44922  0.00000  0.10155
       7     H     0.44204  0.44204  0.00000  0.11592
       8     C     3.08463  3.08463  0.00000 -0.16925
       9     H     0.45198  0.45198  0.00000  0.09603
      10     H     0.44663  0.44663  0.00000  0.10675
      11     C     3.14901  3.14901  0.00000 -0.29802
      12     H     0.45316  0.45316  0.00000  0.09368
      13     H     0.45066  0.45066  0.00000  0.09868
      14     H     0.45454  0.45454  0.00000  0.09093
      15     H     0.44659  0.44659  0.00000  0.10682
      16     H     0.45335  0.45335  0.00000  0.09330

   Total alpha = 24.00000, Total beta = 24.00000, Total charge =  0.00000

*** Psi4 exiting successfully. Buy a developer a beer!
