  ==> Input File <==

--------------------------------------------------------------------------
set {
	reference rhf
	basis cc-pvtz
}

set_num_threads( 4 )
memory 2 gb

molecule MOL {
0 1

H	 1.579158	 -1.214729	 0.776205
O	 1.583947	 -0.677544	 -0.001533
C	 0.489979	 0.078084	 0.002623
C	 -0.763662	 -0.754014	 0.000816
O	 0.539051	 1.259395	 -0.000088
C	 -2.038001	 0.074705	 -0.000833
H	 -0.712945	 -1.405886	 -0.864342
H	 -0.715137	 -1.405770	 0.866182
H	 -2.087267	 0.710831	 -0.874232
H	 -2.903419	 -0.576199	 -0.001922
H	 -2.089467	 0.710909	 0.872389

	symmetry c1
}
set optking {
	frozen_dihedral = ("
		1 2 3 5
	")
}

ee = optimize('scf')
oeprop('DIPOLE', 'QUADRUPOLE', 'MULLIKEN_CHARGES')
f=open( 'psi4out.xyz', 'w' )
f.write( "11  " )
f.write( str(ee) + "\n" )
f.write( MOL.save_string_xyz() )
f.close()
--------------------------------------------------------------------------

    Molecular point group: c1
  Charge       = 0
  Multiplicity = 1
  Basis Set: CC-PVTZ
  Basis Set:
  @DF-RHF Final Energy:  -266.93387340146512
    Total Energy =                       -266.9338734014650072
    Molecular point group: c1
  Basis Set: CC-PVTZ
  Basis Set:
  Basis Set: CC-PVTZ
  Basis Set:
  @DF-RHF Final Energy:  -266.93527593380168
    Total Energy =                       -266.9352759338019041
  Basis Set: CC-PVTZ
  Basis Set:
  Basis Set: CC-PVTZ
  Basis Set:
  @DF-RHF Final Energy:  -266.93522361785182
    Total Energy =                       -266.9352236178519888
  Basis Set: CC-PVTZ
  Basis Set:
  Basis Set: CC-PVTZ
  Basis Set:
  @DF-RHF Final Energy:  -266.93538569244220
    Total Energy =                       -266.9353856924423667
  Basis Set: CC-PVTZ
  Basis Set:
  Basis Set: CC-PVTZ
  Basis Set:
  @DF-RHF Final Energy:  -266.93540708359490
    Total Energy =                       -266.9354070835949528
  Basis Set: CC-PVTZ
  Basis Set:
  Charge       = 0
  Multiplicity = 1
  Basis Set: CC-PVTZ
  Basis Set:

    Orbital Energies (a.u.)
    -----------------------

    Doubly Occupied:

       1A    -20.591794     2A    -20.548263     3A    -11.374668
       4A    -11.248990     5A    -11.222326     6A     -1.465959
       7A     -1.373523     8A     -1.067261     9A     -0.909883
      10A     -0.818811    11A     -0.717600    12A     -0.673335
      13A     -0.662617    14A     -0.617732    15A     -0.577272
      16A     -0.532965    17A     -0.523077    18A     -0.507769
      19A     -0.492582    20A     -0.448664

  @DF-RHF Final Energy:  -266.93540765007867

   => Energetics <=

    Nuclear Repulsion Energy =            179.5630116227555675
    One-Electron Energy =                -720.2466558177252409
    Two-Electron Energy =                 273.7482365448911423
    DFT Exchange-Correlation Energy =       0.0000000000000000
    Empirical Dispersion Energy =           0.0000000000000000
    PCM Polarization Energy =               0.0000000000000000
    EFP Energy =                            0.0000000000000000
    Total Energy =                       -266.9354076500785595
    Molecular point group: c1
  Basis Set: CC-PVTZ
  Basis Set:

  -Total Gradient:
     Atom            X                  Y                   Z
    ------   -----------------  -----------------  -----------------
       1        0.002661973443     0.004148012041     0.002721146284
       2       -0.003408137275    -0.005184949446    -0.001246185147
       3        0.000800731071     0.000848495915    -0.006368127507
       4        0.000021687077     0.000021824063    -0.000059994938
       5       -0.000061225173     0.000156189357     0.004901099609
       6       -0.000018120089     0.000000266807     0.000020833456
       7        0.000000296325     0.000002718153     0.000021292213
       8        0.000005765399     0.000007978865     0.000023098928
       9        0.000001720996    -0.000001602807    -0.000003927147
      10       -0.000007682133     0.000003345368    -0.000004600531
      11        0.000002990366    -0.000002278312    -0.000004635221

  **** Optimization is complete! (in 6 steps) ****
    Final optimized geometry and variables:
    Molecular point group: c1

    Geometry (in Angstrom), charge = 0, multiplicity = 1:

    H            1.688121009955    -1.191260211797     0.782470874575
    O            1.631582836778    -0.651305375103     0.012311098077
    C            0.495837042542     0.084323038969    -0.007219457870
    C           -0.771008147241    -0.735616794409    -0.013195655028
    O            0.538197361822     1.256830320810    -0.035175354578
    C           -2.040912207999     0.099777832266    -0.009449643795
    H           -0.723735026023    -1.381134571926    -0.883710303781
    H           -0.740264870604    -1.399537516802     0.846992926991
    H           -2.081590843981     0.743093160904    -0.877688432256
    H           -2.911540942052    -0.544315483985    -0.018190145620
    H           -2.089768428319     0.729839930167     0.868591964569

  Mulliken Charges: (a.u.)
   Center  Symbol    Alpha    Beta     Spin     Total
       1     H     0.38904  0.38904  0.00000  0.22193
       2     O     4.16439  4.16439  0.00000 -0.32878
       3     C     2.80517  2.80517  0.00000  0.38966
       4     C     3.10739  3.10739  0.00000 -0.21477
       5     O     4.16202  4.16202  0.00000 -0.32405
       6     C     3.13941  3.13941  0.00000 -0.27882
       7     H     0.43699  0.43699  0.00000  0.12602
       8     H     0.45242  0.45242  0.00000  0.09516
       9     H     0.44484  0.44484  0.00000  0.11031
      10     H     0.45020  0.45020  0.00000  0.09961
      11     H     0.44813  0.44813  0.00000  0.10374

   Total alpha = 20.00000, Total beta = 20.00000, Total charge = -0.00000
