  ==> Input File <==

--------------------------------------------------------------------------
set {
	reference rhf
	basis cc-pvtz
}

set_num_threads( 4 )
memory 2 gb

molecule MOL {
0 1

H	 -3.268214	 -0.875720	 0.463107
C	 -2.806015	 0.000007	 0.024886
N	 -1.391133	 0.000016	 0.301321
H	 -3.029448	 0.000055	 -1.045738
H	 -3.268126	 0.875758	 0.463150
C	 -0.594339	 0.000087	 -0.906443
C	 -1.001135	 -1.085181	 1.175267
H	 -0.774744	 -0.898844	 -1.503292
H	 -0.873465	 0.855165	 -1.510607
C	 0.883679	 0.083729	 -0.574055
H	 -1.577230	 -1.022393	 2.090833
H	 -1.209268	 -2.058092	 0.720326
C	 0.476882	 -1.001538	 1.507655
H	 1.459774	 0.020942	 -1.489622
H	 1.091811	 1.056641	 -0.119114
N	 1.273677	 -1.001468	 0.299891
H	 0.756009	 -1.856617	 2.111819
H	 0.657288	 -0.102608	 2.104503
C	 2.688559	 -1.001459	 0.576326
H	 3.246095	 -1.064337	 -0.349829
H	 2.947015	 -1.862168	 1.180429
H	 3.017211	 -0.104202	 1.108374

	symmetry c1
}
set optking {
	frozen_dihedral = ("
		6 3 2 4
	")
}

ee = optimize('scf')
oeprop('DIPOLE', 'QUADRUPOLE', 'MULLIKEN_CHARGES')
f=open( 'psi4out.xyz', 'w' )
f.write( "22  " )
f.write( str(ee) + "\n" )
f.write( MOL.save_string_xyz() )
f.close()
--------------------------------------------------------------------------

    Molecular point group: c1
  Charge       = 0
  Multiplicity = 1
  Basis Set: CC-PVTZ
  Basis Set:
  @DF-RHF Final Energy:  -344.34386578705556
    Total Energy =                       -344.3438657870553925
    Molecular point group: c1
  Basis Set: CC-PVTZ
  Basis Set:
  Basis Set: CC-PVTZ
  Basis Set:
  @DF-RHF Final Energy:  -344.34452612478299
    Total Energy =                       -344.3445261247832150
  Basis Set: CC-PVTZ
  Basis Set:
  Basis Set: CC-PVTZ
  Basis Set:
  @DF-RHF Final Energy:  -344.34465321293629
    Total Energy =                       -344.3446532129361231
  Basis Set: CC-PVTZ
  Basis Set:
  Basis Set: CC-PVTZ
  Basis Set:
  @DF-RHF Final Energy:  -344.34466258109325
    Total Energy =                       -344.3446625810925070
  Basis Set: CC-PVTZ
  Basis Set:
  Charge       = 0
  Multiplicity = 1
  Basis Set: CC-PVTZ
  Basis Set:

    Orbital Energies (a.u.)
    -----------------------

    Doubly Occupied:

       1A    -15.537079     2A    -15.533682     3A    -11.237293
       4A    -11.237256     5A    -11.236267     6A    -11.236245
       7A    -11.234037     8A    -11.233858     9A     -1.254990
      10A     -1.203132    11A     -1.025558    12A     -0.991760
      13A     -0.912699    14A     -0.867698    15A     -0.836589
      16A     -0.754225    17A     -0.665866    18A     -0.636101
      19A     -0.631594    20A     -0.624759    21A     -0.620848
      22A     -0.580393    23A     -0.552162    24A     -0.549914
      25A     -0.542594    26A     -0.519874    27A     -0.497814
      28A     -0.487505    29A     -0.466170    30A     -0.456505
      31A     -0.350925    32A     -0.341390

  @DF-RHF Final Energy:  -344.34466352198984

   => Energetics <=

    Nuclear Repulsion Energy =            421.3780075950795094
    One-Electron Energy =               -1301.7317869014148073
    Two-Electron Energy =                 536.0091157843452265
    DFT Exchange-Correlation Energy =       0.0000000000000000
    Empirical Dispersion Energy =           0.0000000000000000
    PCM Polarization Energy =               0.0000000000000000
    EFP Energy =                            0.0000000000000000
    Total Energy =                       -344.3446635219901282
    Molecular point group: c1
  Basis Set: CC-PVTZ
  Basis Set:

  -Total Gradient:
     Atom            X                  Y                   Z
    ------   -----------------  -----------------  -----------------
       1       -0.000001134127    -0.000003193369    -0.000000451715
       2       -0.000030909178     0.002110573394     0.000041869630
       3        0.000008719627    -0.001732970575    -0.000052074823
       4       -0.000029121799    -0.001327874919    -0.000047770321
       5        0.000035038826    -0.000031730174     0.000007113930
       6        0.000012807139     0.000994078119     0.000007066496
       7       -0.000011625364     0.000002926877     0.000023256976
       8       -0.000008123368     0.000002019879     0.000006613023
       9        0.000005834799    -0.000001671499     0.000002942607
      10        0.000010578381     0.000008593806     0.000010473026
      11        0.000005764854    -0.000003687957    -0.000000540929
      12        0.000006417984     0.000007584121     0.000002674473
      13        0.000002356848    -0.000030370046     0.000006653918
      14        0.000002808856    -0.000001044026     0.000000476465
      15       -0.000002719141     0.000008167106    -0.000004369995
      16       -0.000017420624     0.000011920347     0.000000360418
      17        0.000013243144    -0.000002450049     0.000006001372
      18       -0.000013440407    -0.000003976966    -0.000003157982
      19        0.000002327192    -0.000009880403    -0.000009248946
      20        0.000006069619     0.000000985820     0.000002455038
      21        0.000004932362     0.000001425118     0.000000435523
      22       -0.000002405630     0.000000575393    -0.000000778184

  **** Optimization is complete! (in 5 steps) ****
    Final optimized geometry and variables:
    Molecular point group: c1

    Geometry (in Angstrom), charge = 0, multiplicity = 1:

    H           -3.270505645739    -0.356049152904     0.120516074226
    C           -2.765349074045     0.527018780739    -0.260126558660
    N           -1.334694565607     0.469483162715    -0.017663255692
    H           -2.981854651244     0.573348048705    -1.321296877248
    H           -3.212106001955     1.394266026116     0.213718891521
    C           -0.531617841453     0.486330264663    -1.219557743422
    C           -0.938105275273    -0.595281518518     0.875330464424
    H           -0.695448816458    -0.407834134111    -1.828728231224
    H           -0.811081684024     1.345294244249    -1.817475915605
    C            0.943184557909     0.583417210722    -0.875834045294
    H           -1.512936526067    -0.519452357955     1.790745510142
    H           -1.138091742344    -1.579587609671     0.441281864541
    C            0.538592661431    -0.494557202717     1.209080211585
    H            1.526568177397     0.524856785200    -1.787227535387
    H            1.138544092427     1.559055178052    -0.420613371946
    N            1.337628401752    -0.496063176964     0.002982820078
    H            0.825002864797    -1.341961732068     1.820879253159
    H            0.709170435844     0.411222362138     1.798703795786
    C            2.751767079587    -0.486445663328     0.282342566146
    H            3.311763348224    -0.550285110778    -0.642328262998
    H            3.014200201918    -1.342711679190     0.891135552854
    H            3.074204546637     0.415277024530     0.810892399261

  Mulliken Charges: (a.u.)
   Center  Symbol    Alpha    Beta     Spin     Total
       1     H     0.46231  0.46231  0.00000  0.07538
       2     C     3.09208  3.09208  0.00000 -0.18416
       3     N     3.61539  3.61539  0.00000 -0.23077
       4     H     0.45997  0.45997  0.00000  0.08006
       5     H     0.44996  0.44996  0.00000  0.10007
       6     C     3.03551  3.03551  0.00000 -0.07102
       7     C     3.03552  3.03552  0.00000 -0.07103
       8     H     0.46861  0.46861  0.00000  0.06279
       9     H     0.45344  0.45344  0.00000  0.09313
      10     C     3.03703  3.03703  0.00000 -0.07405
      11     H     0.45335  0.45335  0.00000  0.09330
      12     H     0.46848  0.46848  0.00000  0.06303
      13     C     3.03727  3.03727  0.00000 -0.07454
      14     H     0.45412  0.45412  0.00000  0.09176
      15     H     0.46876  0.46876  0.00000  0.06248
      16     N     3.61295  3.61295  0.00000 -0.22590
      17     H     0.45412  0.45412  0.00000  0.09176
      18     H     0.46872  0.46872  0.00000  0.06255
      19     C     3.09824  3.09824  0.00000 -0.19648
      20     H     0.45198  0.45198  0.00000  0.09603
      21     H     0.45198  0.45198  0.00000  0.09604
      22     H     0.47021  0.47021  0.00000  0.05958

   Total alpha = 32.00000, Total beta = 32.00000, Total charge = -0.00000
