  ==> Input File <==

--------------------------------------------------------------------------
set {
	reference rhf
	basis 6-31G*
}

set_num_threads( 1 )
memory 2 gb

molecule MOL {
0 1

H	 2.658252	 -2.562288	 -3.584561
C	 2.708666	 -1.495316	 -3.390779
C	 1.467349	 -1.010483	 -2.642951
H	 3.609223	 -1.306086	 -2.814124
H	 2.815121	 -0.990064	 -4.346910
C	 1.502998	 0.492891	 -2.359386
H	 1.377937	 -1.553053	 -1.707417
H	 0.580114	 -1.245034	 -3.229033
C	 0.264751	 1.010835	 -1.627441
H	 2.383856	 0.731801	 -1.774019
H	 1.593045	 1.029965	 -3.300920
C	 0.169600	 0.576866	 -0.172154
H	 0.267130	 2.099762	 -1.626526
H	 -0.644755	 0.719463	 -2.148093
C	 -1.181045	 0.701995	 0.511084
O	 1.121635	 0.169317	 0.422773
C	 -2.285934	 -0.139295	 -0.145128
H	 -1.449051	 1.751551	 0.493206
H	 -1.071135	 0.403303	 1.551943
C	 -3.651768	 0.085446	 0.506485
H	 -2.346596	 0.110469	 -1.202272
H	 -2.034737	 -1.195320	 -0.088721
C	 -4.759797	 -0.746382	 -0.137905
H	 -3.908762	 1.140117	 0.445781
H	 -3.588286	 -0.154158	 1.565709
H	 -4.868882	 -0.505166	 -1.191300
H	 -4.548009	 -1.809175	 -0.062213
H	 -5.715422	 -0.564821	 0.343442

	symmetry c1
}
set optking {
	frozen_dihedral = ("
		10 6 3 2,
		12 15 17 21
	")
}

ee = energy('scf')
oeprop('DIPOLE', 'QUADRUPOLE', 'MULLIKEN_CHARGES')
f=open( 'psi4out.xyz', 'w' )
f.write( "28  " )
f.write( str(ee) + "\n" )
f.write( MOL.save_string_xyz() )
f.close()
--------------------------------------------------------------------------

    Molecular point group: c1

    Geometry (in Angstrom), charge = 0, multiplicity = 1:

       Center              X                  Y                   Z               Mass
    ------------   -----------------  -----------------  -----------------  -----------------
           H          3.124349910438    -2.509505037531    -2.672831637384     1.007825032070
           C          3.174763910438    -1.442533037531    -2.479049637384    12.000000000000
           C          1.933446910438    -0.957700037531    -1.731221637384    12.000000000000
           H          4.075320910438    -1.253303037531    -1.902394637384     1.007825032070
           H          3.281218910438    -0.937281037531    -3.435180637384     1.007825032070
           C          1.969095910438     0.545673962469    -1.447656637384    12.000000000000
           H          1.844034910438    -1.500270037531    -0.795687637384     1.007825032070
           H          1.046211910438    -1.192251037531    -2.317303637384     1.007825032070
           C          0.730848910438     1.063617962469    -0.715711637384    12.000000000000
           H          2.849953910438     0.784583962469    -0.862289637384     1.007825032070
           H          2.059142910438     1.082747962469    -2.389190637384     1.007825032070
           C          0.635697910438     0.629648962469     0.739575362616    12.000000000000
           H          0.733227910438     2.152544962469    -0.714796637384     1.007825032070
           H         -0.178657089562     0.772245962469    -1.236363637384     1.007825032070
           C         -0.714947089562     0.754777962469     1.422813362616    12.000000000000
           O          1.587732910438     0.222099962469     1.334502362616    15.994914619560
           C         -1.819836089562    -0.086512037531     0.766601362616    12.000000000000
           H         -0.982953089562     1.804333962469     1.404935362616     1.007825032070
           H         -0.605037089562     0.456085962469     2.463672362616     1.007825032070
           C         -3.185670089562     0.138228962469     1.418214362616    12.000000000000
           H         -1.880498089562     0.163251962469    -0.290542637384     1.007825032070
           H         -1.568639089562    -1.142537037531     0.823008362616     1.007825032070
           C         -4.293699089562    -0.693599037531     0.773824362616    12.000000000000
           H         -3.442664089562     1.192899962469     1.357510362616     1.007825032070
           H         -3.122188089562    -0.101375037531     2.477438362616     1.007825032070
           H         -4.402784089562    -0.452383037531    -0.279570637384     1.007825032070
           H         -4.081911089562    -1.756392037531     0.849516362616     1.007825032070
           H         -5.249324089562    -0.512038037531     1.255171362616     1.007825032070

  Charge       = 0
  Multiplicity = 1
  Basis Set: 6-31G*
  Basis Set:

    Orbital Energies (a.u.)
    -----------------------

    Doubly Occupied:

       1A    -20.547485     2A    -11.322052     3A    -11.231856
       4A    -11.229677     5A    -11.229218     6A    -11.226173
       7A    -11.216572     8A    -11.216448     9A    -11.212564
      10A    -11.205877    11A     -1.392689    12A     -1.095847
      13A     -1.077239    14A     -1.022938    15A     -0.990764
      16A     -0.907692    17A     -0.873008    18A     -0.809184
      19A     -0.800753    20A     -0.722486    21A     -0.667171
      22A     -0.656747    23A     -0.626785    24A     -0.619514
      25A     -0.609986    26A     -0.589495    27A     -0.577269
      28A     -0.573782    29A     -0.546348    30A     -0.527892
      31A     -0.521290    32A     -0.507716    33A     -0.501197
      34A     -0.485734    35A     -0.478181    36A     -0.473440
      37A     -0.471089    38A     -0.464792    39A     -0.456023
      40A     -0.392054

  @DF-RHF Final Energy:  -426.16741775768617

   => Energetics <=

    Nuclear Repulsion Energy =            536.4931891672169968
    One-Electron Energy =               -1641.1666311054777907
    Two-Electron Energy =                 678.5060241805747410
    DFT Exchange-Correlation Energy =       0.0000000000000000
    Empirical Dispersion Energy =           0.0000000000000000
    PCM Polarization Energy =               0.0000000000000000
    EFP Energy =                            0.0000000000000000
    Total Energy =                       -426.1674177576860529

  Mulliken Charges: (a.u.)
   Center  Symbol    Alpha    Beta     Spin     Total
       1     H     0.41941  0.41941  0.00000  0.16118
       2     C     3.24010  3.24010  0.00000 -0.48020
       3     C     3.15630  3.15630  0.00000 -0.31260
       4     H     0.41821  0.41821  0.00000  0.16357
       5     H     0.42358  0.42358  0.00000  0.15284
       6     C     3.14872  3.14872  0.00000 -0.29743
       7     H     0.41072  0.41072  0.00000  0.17855
       8     H     0.42780  0.42780  0.00000  0.14440
       9     C     3.21317  3.21317  0.00000 -0.42634
      10     H     0.40652  0.40652  0.00000  0.18697
      11     H     0.42195  0.42195  0.00000  0.15610
      12     C     2.73125  2.73125  0.00000  0.53751
      13     H     0.40460  0.40460  0.00000  0.19079
      14     H     0.41034  0.41034  0.00000  0.17933
      15     C     3.20137  3.20137  0.00000 -0.40275
      16     O     4.26724  4.26724  0.00000 -0.53448
      17     C     3.16394  3.16394  0.00000 -0.32788
      18     H     0.41266  0.41266  0.00000  0.17468
      19     H     0.39961  0.39961  0.00000  0.20077
      20     C     3.15137  3.15137  0.00000 -0.30273
      21     H     0.41960  0.41960  0.00000  0.16080
      22     H     0.41304  0.41304  0.00000  0.17391
      23     C     3.24027  3.24027  0.00000 -0.48055
      24     H     0.42146  0.42146  0.00000  0.15708
      25     H     0.41901  0.41901  0.00000  0.16198
      26     H     0.42111  0.42111  0.00000  0.15778
      27     H     0.41971  0.41971  0.00000  0.16058
      28     H     0.41694  0.41694  0.00000  0.16613

   Total alpha = 40.00000, Total beta = 40.00000, Total charge = -0.00000
