  ==> Input File <==

--------------------------------------------------------------------------
set {
	reference rhf
	basis cc-pvtz
}

set_num_threads( 4 )
memory 2 gb

molecule MOL {
0 1

H	 3.459101	 0.139266	 -0.762951
C	 2.749156	 -0.051729	 0.031265
C	 1.322304	 0.099773	 -0.484271
H	 2.929445	 -1.053887	 0.403481
H	 2.954281	 0.646699	 0.834672
C	 0.308557	 -0.162619	 0.622645
H	 1.143368	 -0.594400	 -1.295960
H	 1.169532	 1.100095	 -0.870217
N	 -1.069352	 -0.004081	 0.085342
H	 0.371632	 -1.172932	 0.991288
H	 0.400391	 0.548875	 1.426218
O	 -1.588864	 -0.967846	 -0.368355
O	 -1.544075	 1.081433	 0.120524

	symmetry c1
}
set optking {
	frozen_dihedral = ("
		12 9 6 3
	")
}

ee = optimize('scf')
oeprop('DIPOLE', 'QUADRUPOLE', 'MULLIKEN_CHARGES')
f=open( 'psi4out.xyz', 'w' )
f.write( "13  " )
f.write( str(ee) + "\n" )
f.write( MOL.save_string_xyz() )
f.close()
--------------------------------------------------------------------------

    Molecular point group: c1
  Charge       = 0
  Multiplicity = 1
  Basis Set: CC-PVTZ
  Basis Set:
  @DF-RHF Final Energy:  -321.86153994348797
    Total Energy =                       -321.8615399434877418
    Molecular point group: c1
  Basis Set: CC-PVTZ
  Basis Set:
  Basis Set: CC-PVTZ
  Basis Set:
  @DF-RHF Final Energy:  -321.86153491126072
    Total Energy =                       -321.8615349112608328
  Basis Set: CC-PVTZ
  Basis Set:
  Basis Set: CC-PVTZ
  Basis Set:
  @DF-RHF Final Energy:  -321.86153776842264
    Total Energy =                       -321.8615377684230907
  Basis Set: CC-PVTZ
  Basis Set:
  Charge       = 0
  Multiplicity = 1
  Basis Set: CC-PVTZ
  Basis Set:

    Orbital Energies (a.u.)
    -----------------------

    Doubly Occupied:

       1A    -20.590435     2A    -20.590269     3A    -15.836915
       4A    -11.297258     5A    -11.254336     6A    -11.237296
       7A     -1.635954     8A     -1.420285     9A     -1.134389
      10A     -1.027932    11A     -0.884048    12A     -0.834533
      13A     -0.761519    14A     -0.738544    15A     -0.727522
      16A     -0.673610    17A     -0.604157    18A     -0.588591
      19A     -0.551505    20A     -0.520539    21A     -0.515085
      22A     -0.486853    23A     -0.475180    24A     -0.452883

  @DF-RHF Final Energy:  -321.86154032534949

   => Energetics <=

    Nuclear Repulsion Energy =            248.0222841131706559
    One-Electron Energy =                -930.0883746161670160
    Two-Electron Energy =                 360.2045501776469223
    DFT Exchange-Correlation Energy =       0.0000000000000000
    Empirical Dispersion Energy =           0.0000000000000000
    PCM Polarization Energy =               0.0000000000000000
    EFP Energy =                            0.0000000000000000
    Total Energy =                       -321.8615403253493810
    Molecular point group: c1
  Basis Set: CC-PVTZ
  Basis Set:

  -Total Gradient:
     Atom            X                  Y                   Z
    ------   -----------------  -----------------  -----------------
       1       -0.000001028813    -0.000000814072    -0.000000197294
       2        0.000000649949    -0.000000704983     0.000001596419
       3       -0.000000215342     0.000018259234    -0.000001878273
       4        0.000001911976    -0.000000905708     0.000001128055
       5       -0.000000241827    -0.000000154606    -0.000001183623
       6       -0.000009225137    -0.000026422745     0.000027769141
       7       -0.000002296147     0.000000537099     0.000001938346
       8        0.000001035680     0.000000911165    -0.000001095845
       9        0.000031688737     0.000012472664    -0.000100596480
      10        0.000001452355     0.000002393121     0.000002232693
      11        0.000001702529     0.000002419803     0.000000718116
      12       -0.000018102084     0.000000930216     0.000041748562
      13       -0.000007331876    -0.000008921187     0.000027820181

  **** Optimization is complete! (in 4 steps) ****
    Final optimized geometry and variables:
    Molecular point group: c1

    Geometry (in Angstrom), charge = 0, multiplicity = 1:

    H            3.459314733658     0.137312012099    -0.763360075879
    C            2.749320219092    -0.051807101664     0.031261443229
    C            1.322556986252     0.101554005289    -0.484047651324
    H            2.928236706738    -1.053848024493     0.404459889613
    H            2.955807554785     0.647115886434     0.833914016362
    C            0.308687806143    -0.161638690110     0.622594215279
    H            1.143131843994    -0.591597191396    -1.296652542448
    H            1.170410836757     1.102337837384    -0.868768211044
    N           -1.069309136543    -0.004566304075     0.085077980947
    H            0.372682819909    -1.171415642854     0.992275200814
    H            0.399639791144     0.550762967535     1.425632182665
    O           -1.588393415774    -0.968625045301    -0.368721350433
    O           -1.545080549081     1.080469604389     0.121002458627

  Mulliken Charges: (a.u.)
   Center  Symbol    Alpha    Beta     Spin     Total
       1     H     0.44167  0.44167  0.00000  0.11666
       2     C     3.15109  3.15109  0.00000 -0.30217
       3     C     3.09597  3.09597  0.00000 -0.19193
       4     H     0.45158  0.45158  0.00000  0.09684
       5     H     0.45158  0.45158  0.00000  0.09684
       6     C     3.03938  3.03938  0.00000 -0.07876
       7     H     0.43814  0.43814  0.00000  0.12372
       8     H     0.43785  0.43785  0.00000  0.12431
       9     N     3.27591  3.27591  0.00000  0.44819
      10     H     0.43455  0.43455  0.00000  0.13090
      11     H     0.43465  0.43465  0.00000  0.13070
      12     O     4.17370  4.17370  0.00000 -0.34739
      13     O     4.17396  4.17396  0.00000 -0.34791

   Total alpha = 24.00000, Total beta = 24.00000, Total charge = -0.00000
