                              Psi4 1.0.54 Driver

  ==> Input File <==

--------------------------------------------------------------------------
set {
	reference rhf
	basis cc-pvtz
}

set_num_threads( 4 )
memory 2 gb

molecule MOL {
0 1

H	 2.554633	 -0.326776	 -0.588665
C	 1.948180	 -0.217873	 0.320185
C	 0.692262	 0.592428	 0.156232
O	 2.302837	 -0.717749	 1.331113
C	 -0.554654	 -0.292621	 0.086567
H	 0.791858	 1.203694	 -0.731051
H	 0.617379	 1.254358	 1.016534
C	 -1.846385	 0.513195	 -0.016346
H	 -0.473986	 -0.956115	 -0.769708
H	 -0.597929	 -0.929215	 0.966651
C	 -3.089953	 -0.365049	 -0.098564
H	 -1.798267	 1.154820	 -0.891143
H	 -1.925398	 1.173265	 0.842889
H	 -3.055079	 -1.012299	 -0.968245
H	 -3.988403	 0.236438	 -0.170014
H	 -3.183055	 -0.995885	 0.779079

	symmetry c1
}
set optking {
	frozen_dihedral = ("
		4 2 3 6
	")
}

ee,wfn = optimize('scf', return_wfn=True)
oeprop( wfn, 'DIPOLE', 'QUADRUPOLE', 'MULLIKEN_CHARGES')
f=open( 'psi4out.xyz', 'w' )
f.write( "16  " )
f.write( str(ee) + "\n" )
f.write( MOL.save_string_xyz() )
f.close()
--------------------------------------------------------------------------

    Molecular point group: c1
  Charge       = 0
  Multiplicity = 1
  Basis Set: CC-PVTZ
  Basis Set:
  @DF-RHF Final Energy:  -270.11743452672829
    Total Energy =                       -270.1174345267282888
    Molecular point group: c1
  Basis Set: CC-PVTZ
  Basis Set:
  Basis Set: CC-PVTZ
  Basis Set:
  @DF-RHF Final Energy:  -270.11715906443806
    Total Energy =                       -270.1171590644381695
  Basis Set: CC-PVTZ
  Basis Set:
  Basis Set: CC-PVTZ
  Basis Set:
  @DF-RHF Final Energy:  -270.11757709230847
    Total Energy =                       -270.1175770923084656
  Basis Set: CC-PVTZ
  Basis Set:
  Basis Set: CC-PVTZ
  Basis Set:
  @DF-RHF Final Energy:  -270.11783792867686
    Total Energy =                       -270.1178379286769768
  Basis Set: CC-PVTZ
  Basis Set:
  Basis Set: CC-PVTZ
  Basis Set:
  @DF-RHF Final Energy:  -270.11783174884908
    Total Energy =                       -270.1178317488489711
  Basis Set: CC-PVTZ
  Basis Set:
  Basis Set: CC-PVTZ
  Basis Set:
  @DF-RHF Final Energy:  -270.11784194318631
    Total Energy =                       -270.1178419431865336
  Basis Set: CC-PVTZ
  Basis Set:
  Charge       = 0
  Multiplicity = 1
  Basis Set: CC-PVTZ
  Basis Set:

    Orbital Energies (a.u.)
    -----------------------

    Doubly Occupied:

       1A    -20.551955     2A    -11.321687     3A    -11.233599
       4A    -11.231662     5A    -11.225148     6A    -11.214576
       7A     -1.407155     8A     -1.094600     9A     -1.017474
      10A     -0.906223    11A     -0.812994    12A     -0.787299
      13A     -0.684997    14A     -0.647378    15A     -0.631931
      16A     -0.603248    17A     -0.578723    18A     -0.552546
      19A     -0.528728    20A     -0.511155    21A     -0.485651
      22A     -0.479721    23A     -0.476810    24A     -0.410712

  @DF-RHF Final Energy:  -270.11784208551859

   => Energetics <=

    Nuclear Repulsion Energy =            230.9612825246486523
    One-Electron Energy =                -823.3663097026908417
    Two-Electron Energy =                 322.2871850925234298
    DFT Exchange-Correlation Energy =       0.0000000000000000
    Empirical Dispersion Energy =           0.0000000000000000
    PCM Polarization Energy =               0.0000000000000000
    EFP Energy =                            0.0000000000000000
    Total Energy =                       -270.1178420855188165
    Molecular point group: c1
  Basis Set: CC-PVTZ
  Basis Set:

  -Total Gradient:
     Atom            X                  Y                   Z
    ------   -----------------  -----------------  -----------------
       1       -0.000005840274     0.000000089441     0.000022422663
       2        0.000939242427     0.001460625625     0.000263168081
       3        0.000380691310     0.000715590185     0.000799749921
       4       -0.000752188400    -0.001175466205    -0.000326186989
       5        0.000018824763     0.000006752771    -0.000001380623
       6       -0.000580352351    -0.001000082978    -0.000754516826
       7        0.000012694912     0.000000310741     0.000004952881
       8       -0.000006789446    -0.000005947866    -0.000009574426
       9       -0.000000649515     0.000005040841    -0.000002507844
      10       -0.000012066514    -0.000001937207    -0.000004699754
      11       -0.000001281904    -0.000000101796     0.000010233282
      12        0.000004123689    -0.000004829433    -0.000001781552
      13        0.000006871442     0.000001907532    -0.000002614934
      14       -0.000001294378     0.000003233306    -0.000000386337
      15        0.000000095977    -0.000001747065     0.000004343058
      16       -0.000002081737    -0.000003437893    -0.000001220601

  **** Optimization is complete! (in 7 steps) ****
    Final optimized geometry and variables:
    Molecular point group: c1

    Geometry (in Angstrom), charge = 0, multiplicity = 1:

    H            2.620940083215    -0.289527367134    -0.868983267647
    C            2.038135845254    -0.136207973027     0.047469986226
    C            0.793480574637     0.704043015842    -0.085677938319
    O            2.377416099248    -0.652492913093     1.055925537524
    C           -0.447921166362    -0.188485090245    -0.213176082206
    H            0.876722026110     1.337996189323    -0.962065607428
    H            0.709611303244     1.331453917988     0.793284926168
    C           -1.736938973669     0.613681637256    -0.363056097521
    H           -0.333798621056    -0.848917847288    -1.069367241990
    H           -0.509562283959    -0.824770986822     0.662683642229
    C           -2.974150264015    -0.269841515288    -0.480264927881
    H           -1.664371543446     1.252169658648    -1.239066480529
    H           -1.845485514622     1.276510100311     0.490513857269
    H           -2.910192759790    -0.920794151249    -1.345725433097
    H           -3.872402254759     0.327744945559    -0.581806049425
    H           -3.090897729583    -0.897228749375     0.396692712711

  Mulliken Charges: (a.u.)
   Center  Symbol    Alpha    Beta     Spin     Total
       1     H     0.45872  0.45872  0.00000  0.08256
       2     C     2.91502  2.91502  0.00000  0.16996
       3     C     3.08024  3.08024  0.00000 -0.16048
       4     O     4.16792  4.16792  0.00000 -0.33584
       5     C     3.09604  3.09604  0.00000 -0.19208
       6     H     0.45090  0.45090  0.00000  0.09820
       7     H     0.44272  0.44272  0.00000  0.11456
       8     C     3.08506  3.08506  0.00000 -0.17012
       9     H     0.45244  0.45244  0.00000  0.09512
      10     H     0.44149  0.44149  0.00000  0.11701
      11     C     3.14915  3.14915  0.00000 -0.29831
      12     H     0.45398  0.45398  0.00000  0.09204
      13     H     0.45168  0.45168  0.00000  0.09664
      14     H     0.45464  0.45464  0.00000  0.09073
      15     H     0.44729  0.44729  0.00000  0.10543
      16     H     0.45271  0.45271  0.00000  0.09458

   Total alpha = 24.00000, Total beta = 24.00000, Total charge =  0.00000

*** Psi4 exiting successfully. Buy a developer a beer!
