                              Psi4 1.0.54 Driver

  ==> Input File <==

--------------------------------------------------------------------------
set {
	reference rhf
	basis cc-pvtz
}

set_num_threads( 4 )
memory 2 gb

molecule MOL {
0 1

O	 3.219313	 0.959291	 -0.614106
C	 2.698710	 0.058177	 -0.050237
C	 1.246364	 -0.005813	 0.348416
O	 3.344101	 -1.038700	 0.312317
C	 0.453207	 1.232821	 -0.049003
H	 0.839270	 -0.907818	 -0.092281
H	 1.216683	 -0.160521	 1.422434
C	 -0.998367	 1.217982	 0.432195
H	 0.481498	 1.345443	 -1.127236
H	 0.951413	 2.105557	 0.354893
C	 -1.882951	 0.151251	 -0.211235
H	 -1.429490	 2.193659	 0.228843
H	 -1.019755	 1.099323	 1.513279
C	 -3.342450	 0.243269	 0.226009
H	 -1.826223	 0.246578	 -1.293162
H	 -1.508033	 -0.839650	 0.027695
C	 -3.561548	 -0.118119	 1.692354
H	 -3.945909	 -0.411800	 -0.397740
H	 -3.707713	 1.252138	 0.048154
C	 -5.022163	 -0.025580	 2.121096
H	 -3.197237	 -1.126029	 1.871561
H	 -2.961216	 0.537558	 2.317291
H	 -5.142570	 -0.287915	 3.165924
H	 -5.644341	 -0.696464	 1.538071
H	 -5.406665	 0.980009	 1.986352
C	 4.720529	 -1.114346	 0.001449
H	 4.874321	 -1.055557	 -1.065852
H	 5.057824	 -2.067950	 0.373977
H	 5.264321	 -0.313596	 0.480350

	symmetry c1
}
set optking {
	frozen_dihedral = ("
		17 14 11 15
	")
}

ee,wfn = optimize('scf', return_wfn=True)
oeprop( wfn, 'DIPOLE', 'QUADRUPOLE', 'MULLIKEN_CHARGES')
f=open( 'psi4out.xyz', 'w' )
f.write( "29  " )
f.write( str(ee) + "\n" )
f.write( MOL.save_string_xyz() )
f.close()
--------------------------------------------------------------------------

    Molecular point group: c1
  Charge       = 0
  Multiplicity = 1
  Basis Set: CC-PVTZ
  Basis Set:
  @DF-RHF Final Energy:  -501.22269961354618
    Total Energy =                       -501.2226996135460695
    Molecular point group: c1
  Basis Set: CC-PVTZ
  Basis Set:
  Basis Set: CC-PVTZ
  Basis Set:
  @DF-RHF Final Energy:  -501.22273690276427
    Total Energy =                       -501.2227369027647228
  Basis Set: CC-PVTZ
  Basis Set:
  Basis Set: CC-PVTZ
  Basis Set:
  @DF-RHF Final Energy:  -501.22316525306837
    Total Energy =                       -501.2231652530676911
  Basis Set: CC-PVTZ
  Basis Set:
  Basis Set: CC-PVTZ
  Basis Set:
  @DF-RHF Final Energy:  -501.22304974125723
    Total Energy =                       -501.2230497412572277
  Basis Set: CC-PVTZ
  Basis Set:
  Basis Set: CC-PVTZ
  Basis Set:
  @DF-RHF Final Energy:  -501.22317847892475
    Total Energy =                       -501.2231784789248650
  Basis Set: CC-PVTZ
  Basis Set:
  Basis Set: CC-PVTZ
  Basis Set:
  @DF-RHF Final Energy:  -501.22318296846515
    Total Energy =                       -501.2231829684650393
  Basis Set: CC-PVTZ
  Basis Set:
  Charge       = 0
  Multiplicity = 1
  Basis Set: CC-PVTZ
  Basis Set:

    Orbital Energies (a.u.)
    -----------------------

    Doubly Occupied:

       1A    -20.595979     2A    -20.533817     3A    -11.364217
       4A    -11.278235     5A    -11.232888     6A    -11.217018
       7A    -11.215201     8A    -11.214137     9A    -11.213876
      10A    -11.212681    11A    -11.207308    12A     -1.471848
      13A     -1.365449    14A     -1.099415    15A     -1.067287
      16A     -1.019181    17A     -0.978025    18A     -0.929650
      19A     -0.862410    20A     -0.814403    21A     -0.779901
      22A     -0.763081    23A     -0.702859    24A     -0.685449
      25A     -0.675667    26A     -0.643270    27A     -0.628564
      28A     -0.610915    29A     -0.599203    30A     -0.581735
      31A     -0.563939    32A     -0.557131    33A     -0.543487
      34A     -0.526002    35A     -0.513543    36A     -0.511399
      37A     -0.496781    38A     -0.483991    39A     -0.472633
      40A     -0.460696    41A     -0.457856    42A     -0.448988
      43A     -0.446196    44A     -0.439276

  @DF-RHF Final Energy:  -501.22318218377779

   => Energetics <=

    Nuclear Repulsion Energy =            616.2478691456821025
    One-Electron Energy =               -1903.9709293560242713
    Two-Electron Energy =                 786.4998780265655114
    DFT Exchange-Correlation Energy =       0.0000000000000000
    Empirical Dispersion Energy =           0.0000000000000000
    PCM Polarization Energy =               0.0000000000000000
    EFP Energy =                            0.0000000000000000
    Total Energy =                       -501.2231821837767711
    Molecular point group: c1
  Basis Set: CC-PVTZ
  Basis Set:

  -Total Gradient:
     Atom            X                  Y                   Z
    ------   -----------------  -----------------  -----------------
       1       -0.000022412820     0.000064782122    -0.000003505799
       2        0.000039606084    -0.000053179080    -0.000059112964
       3       -0.000030637605    -0.000015448714    -0.000009093724
       4       -0.000018844644    -0.000045867528     0.000041423965
       5        0.000026904324     0.000063426610     0.000092952932
       6       -0.000037667079    -0.000057246370    -0.000003457986
       7        0.000005967206     0.000014579560    -0.000004905679
       8       -0.000018711078     0.000044657081    -0.000110378719
       9       -0.000004665693     0.000022903981    -0.000013439547
      10        0.000017732300     0.000001240931     0.000011340580
      11        0.000063040607     0.000263873522     0.000086076974
      12       -0.000021459093     0.000013595964    -0.000016822072
      13        0.000009581427     0.000013629684    -0.000002232546
      14        0.000040244897     0.000342463875     0.000060295600
      15       -0.000030697902    -0.000351952648    -0.000002250887
      16        0.000077080765    -0.000079401777    -0.000002573270
      17       -0.000058434734    -0.000274281295    -0.000102264629
      18       -0.000039692278     0.000002092648    -0.000002328902
      19       -0.000013935321     0.000044313792    -0.000007200736
      20        0.000041445313    -0.000029966199     0.000010809102
      21        0.000008026059    -0.000042092708     0.000028121217
      22        0.000008221164     0.000050020657     0.000032621089
      23        0.000007250389    -0.000011582398     0.000048144459
      24       -0.000035160392    -0.000052298845    -0.000059783365
      25        0.000001379125     0.000054137677    -0.000011300754
      26       -0.000006656028     0.000014228391    -0.000004820182
      27       -0.000001903698     0.000006430867    -0.000007507985
      28       -0.000010606480    -0.000011469329     0.000011035159
      29        0.000005005204     0.000008409530     0.000000158671

  **** Optimization is complete! (in 7 steps) ****
    Final optimized geometry and variables:
    Molecular point group: c1

    Geometry (in Angstrom), charge = 0, multiplicity = 1:

    O            3.108045942993     0.812247901831    -1.030907340754
    C            2.598131670732    -0.081001589073    -0.445130771907
    C            1.154576067251    -0.137210680856    -0.014587486321
    O            3.249206705300    -1.174828522130    -0.083456557572
    C            0.355483182407     1.098730637127    -0.408755053574
    H            0.736002235191    -1.043046513401    -0.436464864221
    H            1.147580290010    -0.280127229583     1.061458053758
    C           -1.085874471592     1.090479294141     0.103218982054
    H            0.361284939603     1.199254621062    -1.488536713493
    H            0.863104310094     1.975057070507    -0.024702940845
    C           -1.973290609493     0.004567006475    -0.507262466726
    H           -1.525689671770     2.059145548641    -0.116431289495
    H           -1.077454284161     1.000619830651     1.185461132908
    C           -3.454118064035     0.113239480874    -0.137391289596
    H           -1.884444791396     0.053323466724    -1.589353809207
    H           -1.613424010629    -0.979250462036    -0.219173211493
    C           -3.774335061624    -0.177348083581     1.327898842213
    H           -4.014469868619    -0.582842924323    -0.755731468528
    H           -3.817425422415     1.105403465885    -0.395241782469
    C           -5.270341321753    -0.140172483312     1.623547735199
    H           -3.380110634448    -1.155488350485     1.591738584497
    H           -3.269952214175     0.538377798144     1.968613875002
    H           -5.469933270476    -0.351187007967     2.667965991668
    H           -5.805429267041    -0.873618456238     1.029352110865
    H           -5.689153635204     0.834995651872     1.397656436201
    C            4.618417043169    -1.256998354485    -0.423196451301
    H            4.749082082686    -1.211142310891    -1.494221222995
    H            4.962001171870    -2.206832816174    -0.046740882033
    H            5.173951929732    -0.451729916120     0.034208659717

  Mulliken Charges: (a.u.)
   Center  Symbol    Alpha    Beta     Spin     Total
       1     O     4.19701  4.19701  0.00000 -0.39401
       2     C     2.80495  2.80495  0.00000  0.39011
       3     C     3.10203  3.10203  0.00000 -0.20406
       4     O     4.14716  4.14716  0.00000 -0.29431
       5     C     3.09098  3.09098  0.00000 -0.18196
       6     H     0.43889  0.43889  0.00000  0.12221
       7     H     0.43992  0.43992  0.00000  0.12015
       8     C     3.10478  3.10478  0.00000 -0.20956
       9     H     0.44609  0.44609  0.00000  0.10782
      10     H     0.43959  0.43959  0.00000  0.12082
      11     C     3.10310  3.10310  0.00000 -0.20619
      12     H     0.44526  0.44526  0.00000  0.10948
      13     H     0.45221  0.45221  0.00000  0.09558
      14     C     3.09329  3.09329  0.00000 -0.18658
      15     H     0.44655  0.44655  0.00000  0.10690
      16     H     0.45320  0.45320  0.00000  0.09361
      17     C     3.08518  3.08518  0.00000 -0.17037
      18     H     0.44840  0.44840  0.00000  0.10319
      19     H     0.45363  0.45363  0.00000  0.09274
      20     C     3.14990  3.14990  0.00000 -0.29979
      21     H     0.45503  0.45503  0.00000  0.08994
      22     H     0.45315  0.45315  0.00000  0.09371
      23     H     0.44841  0.44841  0.00000  0.10319
      24     H     0.45458  0.45458  0.00000  0.09083
      25     H     0.45475  0.45475  0.00000  0.09051
      26     C     3.03812  3.03812  0.00000 -0.07624
      27     H     0.45436  0.45436  0.00000  0.09128
      28     H     0.44526  0.44526  0.00000  0.10948
      29     H     0.45424  0.45424  0.00000  0.09153

   Total alpha = 44.00000, Total beta = 44.00000, Total charge = -0.00000

*** Psi4 exiting successfully. Buy a developer a beer!
