                              Psi4 1.0.54 Driver

  ==> Input File <==

--------------------------------------------------------------------------
set {
	reference rhf
	basis cc-pvtz
}

set_num_threads( 4 )
memory 2 gb

molecule MOL {
0 1

H	 -2.682748	 -0.924300	 -0.395281
O	 -2.313989	 -0.142475	 -0.025864
C	 -0.943808	 -0.065018	 -0.330000
H	 -0.812293	 -0.225641	 -1.398673
C	 -0.231030	 -1.182113	 0.407592
C	 -0.353797	 1.300461	 0.050970
H	 -0.312800	 -0.992012	 1.473041
H	 -0.738841	 -2.119564	 0.220514
C	 1.246176	 -1.268044	 -0.015480
H	 -0.539537	 2.008579	 -0.751815
H	 -0.889989	 1.662858	 0.920677
C	 1.153605	 1.231851	 0.356834
H	 1.823096	 -1.684665	 0.802361
H	 1.352335	 -1.958223	 -0.845114
C	 1.826409	 0.100723	 -0.416008
H	 1.622968	 2.181508	 0.128734
H	 1.301983	 1.066493	 1.419367
H	 2.897299	 0.112407	 -0.249665
H	 1.683458	 0.265621	 -1.480024

	symmetry c1
}
set optking {
	frozen_dihedral = ("
		1 2 3 4
	")
}

ee,wfn = optimize('scf', return_wfn=True)
oeprop( wfn, 'DIPOLE', 'QUADRUPOLE', 'MULLIKEN_CHARGES')
f=open( 'psi4out.xyz', 'w' )
f.write( "19  " )
f.write( str(ee) + "\n" )
f.write( MOL.save_string_xyz() )
f.close()
--------------------------------------------------------------------------

    Molecular point group: c1
  Charge       = 0
  Multiplicity = 1
  Basis Set: CC-PVTZ
  Basis Set:
  @DF-RHF Final Energy:  -309.16199350408158
    Total Energy =                       -309.1619935040816927
    Molecular point group: c1
  Basis Set: CC-PVTZ
  Basis Set:
  Basis Set: CC-PVTZ
  Basis Set:
  @DF-RHF Final Energy:  -309.16357501039585
    Total Energy =                       -309.1635750103960163
  Basis Set: CC-PVTZ
  Basis Set:
  Basis Set: CC-PVTZ
  Basis Set:
  @DF-RHF Final Energy:  -309.16383372549586
    Total Energy =                       -309.1638337254961471
  Basis Set: CC-PVTZ
  Basis Set:
  Basis Set: CC-PVTZ
  Basis Set:
  @DF-RHF Final Energy:  -309.16384030046083
    Total Energy =                       -309.1638403004609472
  Basis Set: CC-PVTZ
  Basis Set:
  Charge       = 0
  Multiplicity = 1
  Basis Set: CC-PVTZ
  Basis Set:

    Orbital Energies (a.u.)
    -----------------------

    Doubly Occupied:

       1A    -20.543722     2A    -11.267723     3A    -11.215392
       4A    -11.213377     5A    -11.212132     6A    -11.210413
       7A    -11.207013     8A     -1.363543     9A     -1.109888
      10A     -1.002688    11A     -0.989456    12A     -0.847713
      13A     -0.831375    14A     -0.732891    15A     -0.710667
      16A     -0.656558    17A     -0.619294    18A     -0.608634
      19A     -0.568593    20A     -0.546581    21A     -0.532333
      22A     -0.519693    23A     -0.498910    24A     -0.486598
      25A     -0.468228    26A     -0.449570    27A     -0.429603
      28A     -0.411759

  @DF-RHF Final Energy:  -309.16384124930971

   => Energetics <=

    Nuclear Repulsion Energy =            331.9704774381505104
    One-Electron Energy =               -1077.7599450872608031
    Two-Electron Energy =                 436.6256263998004670
    DFT Exchange-Correlation Energy =       0.0000000000000000
    Empirical Dispersion Energy =           0.0000000000000000
    PCM Polarization Energy =               0.0000000000000000
    EFP Energy =                            0.0000000000000000
    Total Energy =                       -309.1638412493098258
    Molecular point group: c1
  Basis Set: CC-PVTZ
  Basis Set:

  -Total Gradient:
     Atom            X                  Y                   Z
    ------   -----------------  -----------------  -----------------
       1       -0.000094512480     0.000323173621    -0.000471103089
       2        0.000135865168    -0.000543579558     0.000577130963
       3       -0.000017197526     0.000717299695    -0.000116384912
       4       -0.000001199814    -0.000490285347     0.000099354688
       5       -0.000049228290     0.000024524589    -0.000048375422
       6        0.000019572807     0.000016303028    -0.000012954893
       7        0.000000095874     0.000004522946    -0.000010585004
       8       -0.000001448600    -0.000002213338    -0.000005840440
       9        0.000040131401     0.000018857948    -0.000004323450
      10        0.000005253902     0.000010461232    -0.000003835024
      11       -0.000016093260    -0.000038365970    -0.000012196021
      12        0.000005933726     0.000018087224    -0.000013688991
      13        0.000021468119    -0.000007195237     0.000015754520
      14        0.000002102485     0.000007225056     0.000014900415
      15       -0.000029543721    -0.000037730478     0.000000275521
      16       -0.000009590842     0.000000337652     0.000001479018
      17       -0.000009749197    -0.000001771948     0.000001168432
      18        0.000001838716    -0.000030173395    -0.000007500624
      19       -0.000003698471     0.000010522278    -0.000003275689

  **** Optimization is complete! (in 5 steps) ****
    Final optimized geometry and variables:
    Molecular point group: c1

    Geometry (in Angstrom), charge = 0, multiplicity = 1:

    H           -2.738653164151    -0.819092992639    -0.400901610985
    O           -2.317088601661    -0.071647631946    -0.017921477384
    C           -0.945416674178    -0.081413998824    -0.327807392591
    H           -0.826883941148    -0.229143792616    -1.399811428025
    C           -0.201170023978    -1.197717202578     0.390077284510
    C           -0.379362077286     1.286762522240     0.058422809219
    H           -0.279182618259    -1.025539438967     1.458650408665
    H           -0.683200743717    -2.150861161450     0.196475272102
    C            1.274232442478    -1.250723056108    -0.045249073621
    H           -0.572605045675     1.988260036309    -0.745203586380
    H           -0.933961324816     1.639656207744     0.919256078697
    C            1.124169451929     1.237439319391     0.379534330807
    H            1.863612895559    -1.678471974848     0.757861744369
    H            1.385943826438    -1.918143580974    -0.892794799017
    C            1.826426858507     0.138821744217    -0.413765172460
    H            1.576410308657     2.201193350594     0.177659387846
    H            1.267479957978     1.050723772890     1.439471421079
    H            2.896153308403     0.169014320909    -0.242483699464
    H            1.683662589257     0.323880787003    -1.474465918379

  Mulliken Charges: (a.u.)
   Center  Symbol    Alpha    Beta     Spin     Total
       1     H     0.39575  0.39575  0.00000  0.20850
       2     O     4.20201  4.20201  0.00000 -0.40402
       3     C     2.92775  2.92775  0.00000  0.14450
       4     H     0.46408  0.46408  0.00000  0.07183
       5     C     3.10042  3.10042  0.00000 -0.20083
       6     C     3.11028  3.11028  0.00000 -0.22056
       7     H     0.45273  0.45273  0.00000  0.09455
       8     H     0.45028  0.45028  0.00000  0.09944
       9     C     3.11452  3.11452  0.00000 -0.22904
      10     H     0.44816  0.44816  0.00000  0.10368
      11     H     0.44380  0.44380  0.00000  0.11240
      12     C     3.10059  3.10059  0.00000 -0.20119
      13     H     0.44715  0.44715  0.00000  0.10571
      14     H     0.44810  0.44810  0.00000  0.10381
      15     C     3.10176  3.10176  0.00000 -0.20351
      16     H     0.44189  0.44189  0.00000  0.11622
      17     H     0.45367  0.45367  0.00000  0.09265
      18     H     0.44296  0.44296  0.00000  0.11408
      19     H     0.45411  0.45411  0.00000  0.09179

   Total alpha = 28.00000, Total beta = 28.00000, Total charge = -0.00000

*** Psi4 exiting successfully. Buy a developer a beer!
