  ==> Input File <==

--------------------------------------------------------------------------
set {
	reference rhf
	basis 6-31G*
}

set_num_threads( 4 )
memory 2 gb

molecule MOL {
0 1

O	 2.514870	 1.895498	 0.421406
C	 1.740382	 1.873232	 1.328286
C	 0.473724	 1.037102	 1.290846
C	 1.974203	 2.685301	 2.585676
C	 0.291004	 0.242674	 0.000989
H	 0.487636	 0.372442	 2.153645
H	 -0.371208	 1.704635	 1.454840
C	 -0.994322	 -0.586602	 0.000262
H	 1.149236	 -0.406337	 -0.141673
H	 0.289185	 0.927314	 -0.841278
C	 -2.259874	 0.272531	 0.000494
H	 -1.004862	 -1.240012	 -0.870939
H	 -1.005220	 -1.241071	 0.870675
C	 -3.549786	 -0.549746	 -0.000374
H	 -2.250389	 0.926680	 -0.869574
H	 -2.250838	 0.925513	 0.871430
C	 -4.809590	 0.315458	 -0.000369
H	 -3.560515	 -1.202009	 -0.871156
H	 -3.561123	 -1.202955	 0.869711
H	 -4.844746	 0.956611	 -0.876632
H	 -5.706986	 -0.295590	 -0.001609
H	 -4.845960	 0.954827	 0.877144
H	 2.018754	 2.034707	 3.454215
H	 2.901321	 3.234501	 2.498128
H	 1.154963	 3.380255	 2.745423

	symmetry c1
}
set optking {
	frozen_dihedral = ("
		9 5 8 12
	")
}

ee = optimize('scf')
oeprop('DIPOLE', 'QUADRUPOLE', 'MULLIKEN_CHARGES')
f=open( 'psi4out.xyz', 'w' )
f.write( "25  " )
f.write( str(ee) + "\n" )
f.write( MOL.save_string_xyz() )
f.close()
--------------------------------------------------------------------------

    Molecular point group: c1
  Charge       = 0
  Multiplicity = 1
  Basis Set: 6-31G*
  Basis Set:
  @DF-RHF Final Energy:  -387.13418639124762
    Total Energy =                       -387.1341863912480221
    Molecular point group: c1
  Basis Set: 6-31G*
  Basis Set:
  Basis Set: 6-31G*
  Basis Set:
  @DF-RHF Final Energy:  -387.13458829482869
    Total Energy =                       -387.1345882948294275
  Basis Set: 6-31G*
  Basis Set:
  Basis Set: 6-31G*
  Basis Set:
  @DF-RHF Final Energy:  -387.13490025603187
    Total Energy =                       -387.1349002560319832
  Basis Set: 6-31G*
  Basis Set:
  Basis Set: 6-31G*
  Basis Set:
  @DF-RHF Final Energy:  -387.13488919738705
    Total Energy =                       -387.1348891973867694
  Basis Set: 6-31G*
  Basis Set:
  Basis Set: 6-31G*
  Basis Set:
  @DF-RHF Final Energy:  -387.13482284399157
    Total Energy =                       -387.1348228439919694
  Basis Set: 6-31G*
  Basis Set:
  Basis Set: 6-31G*
  Basis Set:
  @DF-RHF Final Energy:  -387.13491317435756
    Total Energy =                       -387.1349131743575072
  Basis Set: 6-31G*
  Basis Set:
  Charge       = 0
  Multiplicity = 1
  Basis Set: 6-31G*
  Basis Set:

    Orbital Energies (a.u.)
    -----------------------

    Doubly Occupied:

       1A    -20.550374     2A    -11.326267     3A    -11.231379
       4A    -11.228294     5A    -11.217355     6A    -11.217239
       7A    -11.216729     8A    -11.216071     9A    -11.210494
      10A     -1.395720    11A     -1.094509    12A     -1.055829
      13A     -1.014571    14A     -0.968164    15A     -0.897518
      16A     -0.815921    17A     -0.787828    18A     -0.731112
      19A     -0.658270    20A     -0.649551    21A     -0.637955
      22A     -0.621002    23A     -0.597534    24A     -0.579605
      25A     -0.568175    26A     -0.566508    27A     -0.542618
      28A     -0.528409    29A     -0.516564    30A     -0.493201
      31A     -0.487016    32A     -0.477369    33A     -0.463249
      34A     -0.459080    35A     -0.446648    36A     -0.400760

  @DF-RHF Final Energy:  -387.13491350371669

   => Energetics <=

    Nuclear Repulsion Energy =            444.3295073366489305
    One-Electron Energy =               -1405.1910698918604794
    Two-Electron Energy =                 573.7266490514950874
    DFT Exchange-Correlation Energy =       0.0000000000000000
    Empirical Dispersion Energy =           0.0000000000000000
    PCM Polarization Energy =               0.0000000000000000
    EFP Energy =                            0.0000000000000000
    Total Energy =                       -387.1349135037164615
    Molecular point group: c1
  Basis Set: 6-31G*
  Basis Set:

  -Total Gradient:
     Atom            X                  Y                   Z
    ------   -----------------  -----------------  -----------------
       1       -0.000002546242    -0.000002093167     0.000001927551
       2        0.000005234246    -0.000007613195     0.000001230660
       3        0.000006567737    -0.000007748651    -0.000006017817
       4       -0.000005841276     0.000011181578    -0.000005455331
       5        0.000012784543    -0.000014647396     0.000186951527
       6       -0.000002686736     0.000000136421    -0.000000707414
       7       -0.000003832945    -0.000001336015    -0.000005146877
       8       -0.000076177834     0.000124242414    -0.000109094465
       9       -0.000002762612     0.000015733638    -0.000143793044
      10        0.000002821509     0.000001403096     0.000007784919
      11        0.000008444433    -0.000005452865    -0.000026036559
      12        0.000054490283    -0.000105734704     0.000079594870
      13       -0.000002417611     0.000000122006     0.000004936573
      14        0.000002969018    -0.000001278401     0.000020062201
      15        0.000014530035     0.000004522401    -0.000000217556
      16       -0.000006819067    -0.000006502267    -0.000005925908
      17       -0.000005744802     0.000000799336    -0.000007683425
      18       -0.000007485172     0.000008193896     0.000000246467
      19        0.000007250724    -0.000006276542    -0.000000950872
      20        0.000001021313     0.000002864591     0.000004743813
      21       -0.000002904812     0.000000971967    -0.000002358335
      22       -0.000000724401    -0.000004155393     0.000001747567
      23        0.000002435958    -0.000003982202    -0.000000554085
      24        0.000000678604    -0.000001278060     0.000000235285
      25        0.000000715100    -0.000002072485     0.000004480254

  **** Optimization is complete! (in 7 steps) ****
    Final optimized geometry and variables:
    Molecular point group: c1

    Geometry (in Angstrom), charge = 0, multiplicity = 1:

    O            3.104283574115     0.994978966751    -0.202055745932
    C            2.327538808919     1.050257420130     0.701442575161
    C            1.001824252142     0.309959216838     0.678526480746
    C            2.617124210202     1.872196521438     1.940834985132
    C            0.773654188536    -0.503444683518    -0.593752437677
    H            0.965623605514    -0.334199907958     1.556530792569
    H            0.214695064484     1.045782492842     0.826690125275
    C           -0.514891175797    -1.333176342205    -0.580445359512
    H            1.621066279861    -1.165180940099    -0.736133254303
    H            0.771651787986     0.165133902890    -1.449258481104
    C           -1.809572194460    -0.515781610211    -0.591789885302
    H           -0.507152658588    -1.983216786362    -1.452465624722
    H           -0.512839814408    -1.993291744129     0.285952786622
    C           -3.064182730362    -1.386449584817    -0.687879032465
    H           -1.788737548989     0.176904707497    -1.431867696623
    H           -1.875608685945     0.095231706245     0.305867337748
    C           -4.357932355057    -0.572956479364    -0.692344841231
    H           -3.014447257836    -1.989686408357    -1.591687204553
    H           -3.081067826876    -2.086446007223     0.144926594338
    H           -4.385498147517     0.115058834376    -1.532615768533
    H           -5.228165041460    -1.217926131328    -0.764774265278
    H           -4.456145985638     0.013403439832     0.217046649142
    H            2.608280313091     1.241289328963     2.824847521706
    H            3.583724507551     2.347040298642     1.845860370190
    H            1.852655196385     2.631242770456     2.079008627108

  Mulliken Charges: (a.u.)
   Center  Symbol    Alpha    Beta     Spin     Total
       1     O     4.26108  4.26108  0.00000 -0.52216
       2     C     2.73572  2.73572  0.00000  0.52856
       3     C     3.21192  3.21192  0.00000 -0.42383
       4     C     3.28655  3.28655  0.00000 -0.57310
       5     C     3.14966  3.14966  0.00000 -0.29932
       6     H     0.41059  0.41059  0.00000  0.17882
       7     H     0.40819  0.40819  0.00000  0.18361
       8     C     3.15628  3.15628  0.00000 -0.31256
       9     H     0.40933  0.40933  0.00000  0.18135
      10     H     0.41334  0.41334  0.00000  0.17332
      11     C     3.15312  3.15312  0.00000 -0.30624
      12     H     0.41869  0.41869  0.00000  0.16262
      13     H     0.42499  0.42499  0.00000  0.15002
      14     C     3.15109  3.15109  0.00000 -0.30217
      15     H     0.42283  0.42283  0.00000  0.15433
      16     H     0.42531  0.42531  0.00000  0.14938
      17     C     3.23926  3.23926  0.00000 -0.47853
      18     H     0.42204  0.42204  0.00000  0.15591
      19     H     0.42321  0.42321  0.00000  0.15358
      20     H     0.42131  0.42131  0.00000  0.15738
      21     H     0.41888  0.41888  0.00000  0.16225
      22     H     0.42258  0.42258  0.00000  0.15484
      23     H     0.40883  0.40883  0.00000  0.18234
      24     H     0.39649  0.39649  0.00000  0.20703
      25     H     0.40871  0.40871  0.00000  0.18257

   Total alpha = 36.00000, Total beta = 36.00000, Total charge = -0.00000
