  ==> Input File <==

--------------------------------------------------------------------------
set {
	reference rhf
	basis cc-pvtz
}

set_num_threads( 4 )
memory 2 gb

molecule MOL {
0 1

H	 2.731046	 -0.260685	 -0.886453
N	 2.326826	 -0.066186	 0.000000
C	 0.934676	 -0.005420	 0.000000
H	 2.714223	 -0.646095	 0.707567
C	 0.226436	 -0.001077	 -1.195129
C	 0.226436	 -0.001077	 1.195129
H	 0.759091	 -0.011439	 -2.128123
C	 -1.153391	 0.009141	 -1.189028
H	 0.759091	 -0.011439	 2.128123
C	 -1.153391	 0.009141	 1.189028
H	 -1.680905	 0.012964	 -2.124348
C	 -1.857876	 0.014675	 0.000000
H	 -1.680905	 0.012964	 2.124348
H	 -2.930222	 0.022904	 0.000000

	symmetry c1
}
set optking {
	frozen_dihedral = ("
		1 2 3 5
	")
}

ee = optimize('scf')
oeprop('DIPOLE', 'QUADRUPOLE', 'MULLIKEN_CHARGES')
f=open( 'psi4out.xyz', 'w' )
f.write( "14  " )
f.write( str(ee) + "\n" )
f.write( MOL.save_string_xyz() )
f.close()
--------------------------------------------------------------------------

    Molecular point group: c1
  Charge       = 0
  Multiplicity = 1
  Basis Set: CC-PVTZ
  Basis Set:
  @DF-RHF Final Energy:  -285.83279063995991
    Total Energy =                       -285.8327906399598533
    Molecular point group: c1
  Basis Set: CC-PVTZ
  Basis Set:
  Basis Set: CC-PVTZ
  Basis Set:
  @DF-RHF Final Energy:  -285.83310286381413
    Total Energy =                       -285.8331028638142470
  Basis Set: CC-PVTZ
  Basis Set:
  Basis Set: CC-PVTZ
  Basis Set:
  @DF-RHF Final Energy:  -285.83319915069808
    Total Energy =                       -285.8331991506980785
  Basis Set: CC-PVTZ
  Basis Set:
  Basis Set: CC-PVTZ
  Basis Set:
  @DF-RHF Final Energy:  -285.83320254417896
    Total Energy =                       -285.8332025441787891
  Basis Set: CC-PVTZ
  Basis Set:
  Basis Set: CC-PVTZ
  Basis Set:
  @DF-RHF Final Energy:  -285.83320432300235
    Total Energy =                       -285.8332043230026329
  Basis Set: CC-PVTZ
  Basis Set:
  Charge       = 0
  Multiplicity = 1
  Basis Set: CC-PVTZ
  Basis Set:

    Orbital Energies (a.u.)
    -----------------------

    Doubly Occupied:

       1A    -15.554696     2A    -11.270628     3A    -11.226938
       4A    -11.226772     5A    -11.215731     6A    -11.214976
       7A    -11.211072     8A     -1.225983     9A     -1.130233
      10A     -1.013201    11A     -0.987718    12A     -0.832528
      13A     -0.813531    14A     -0.708313    15A     -0.688967
      16A     -0.654854    17A     -0.600673    18A     -0.595557
      19A     -0.581790    20A     -0.531815    21A     -0.506452
      22A     -0.487470    23A     -0.446389    24A     -0.335981
      25A     -0.294557

  @DF-RHF Final Energy:  -285.83320451741065

   => Energetics <=

    Nuclear Repulsion Energy =            273.7307236856728423
    One-Electron Energy =                -928.4142082574770711
    Two-Electron Energy =                 368.8502800543936928
    DFT Exchange-Correlation Energy =       0.0000000000000000
    Empirical Dispersion Energy =           0.0000000000000000
    PCM Polarization Energy =               0.0000000000000000
    EFP Energy =                            0.0000000000000000
    Total Energy =                       -285.8332045174105360
    Molecular point group: c1
  Basis Set: CC-PVTZ
  Basis Set:

  -Total Gradient:
     Atom            X                  Y                   Z
    ------   -----------------  -----------------  -----------------
       1        0.000014252478     0.002159214127    -0.000361160953
       2        0.000003547471    -0.003655529714     0.000488799168
       3       -0.000027310329     0.003190255058    -0.000188381121
       4        0.000004645935    -0.000015369937    -0.000002736033
       5        0.000073065638    -0.001673574012     0.000025840783
       6       -0.000054177632    -0.000022438842     0.000046652000
       7       -0.000007916109    -0.000002507959     0.000000877794
       8       -0.000077514437     0.000015467834     0.000034047466
       9        0.000005544646     0.000000709055    -0.000005699420
      10        0.000065138574     0.000028448968     0.000042568898
      11       -0.000002277669    -0.000002989301    -0.000000065433
      12        0.000008394902    -0.000011754209    -0.000077551616
      13       -0.000003878110    -0.000005006584    -0.000002957272
      14       -0.000001515358    -0.000004924484    -0.000000234262

  **** Optimization is complete! (in 6 steps) ****
    Final optimized geometry and variables:
    Molecular point group: c1

    Geometry (in Angstrom), charge = 0, multiplicity = 1:

    H            2.753214959498    -0.183392855357    -0.876361407434
    N            2.326963109480    -0.033130378587     0.007183195431
    C            0.934317530858    -0.024337800375    -0.002581632527
    H            2.744548180256    -0.575679470794     0.726083016077
    C            0.224453516168    -0.008468898706    -1.195326063310
    C            0.227963472628    -0.005892798624     1.194947638237
    H            0.753830652172    -0.030378680954    -2.130082349575
    C           -1.155994263011     0.040873923773    -1.187027850067
    H            0.764643591144    -0.009979583073     2.125368152447
    C           -1.150147110994     0.030184603926     1.191338133417
    H           -1.684868178097     0.057267045487    -2.121446197812
    C           -1.856964065582     0.057470209060     0.002385122453
    H           -1.676374105613     0.042791378972     2.127303848745
    H           -2.928862697944     0.090115890130     0.004852953051

  Mulliken Charges: (a.u.)
   Center  Symbol    Alpha    Beta     Spin     Total
       1     H     0.42272  0.42272  0.00000  0.15455
       2     N     3.67440  3.67440  0.00000 -0.34881
       3     C     2.88471  2.88471  0.00000  0.23058
       4     H     0.41804  0.41804  0.00000  0.16391
       5     C     3.12028  3.12028  0.00000 -0.24055
       6     C     3.11667  3.11667  0.00000 -0.23334
       7     H     0.43531  0.43531  0.00000  0.12938
       8     C     3.05861  3.05861  0.00000 -0.11722
       9     H     0.43177  0.43177  0.00000  0.13647
      10     C     3.05815  3.05815  0.00000 -0.11629
      11     H     0.42481  0.42481  0.00000  0.15038
      12     C     3.10443  3.10443  0.00000 -0.20886
      13     H     0.42472  0.42472  0.00000  0.15057
      14     H     0.42539  0.42539  0.00000  0.14923

   Total alpha = 25.00000, Total beta = 25.00000, Total charge = -0.00000
