  ==> Input File <==

--------------------------------------------------------------------------
set {
	reference rhf
	basis cc-pvtz
}

set_num_threads( 4 )
memory 2 gb

molecule MOL {
0 1

O	 1.603342	 1.105975	 -1.867285
C	 0.674431	 1.047616	 -1.113338
C	 -0.481037	 2.016376	 -1.259048
N	 0.622280	 0.144970	 -0.099307
H	 -0.615977	 2.607311	 -0.361868
H	 -0.251907	 2.669311	 -2.084681
H	 -1.408926	 1.496078	 -1.462233
C	 1.664396	 -0.854993	 0.000772
C	 -0.557404	 -0.111857	 0.691983
H	 2.462727	 -0.615153	 -0.690869
H	 1.261798	 -1.821849	 -0.240651
H	 2.081615	 -0.891605	 1.003877
H	 -0.259705	 -0.384750	 1.696244
H	 -1.186021	 0.759055	 0.764419
H	 -1.148331	 -0.929877	 0.286159

	symmetry c1
}
set optking {
	frozen_dihedral = ("
		2 4 8 10
	")
}

ee = optimize('scf')
oeprop('DIPOLE', 'QUADRUPOLE', 'MULLIKEN_CHARGES')
f=open( 'psi4out.xyz', 'w' )
f.write( "15  " )
f.write( str(ee) + "\n" )
f.write( MOL.save_string_xyz() )
f.close()
--------------------------------------------------------------------------

    Molecular point group: c1
  Charge       = 0
  Multiplicity = 1
  Basis Set: CC-PVTZ
  Basis Set:
  @DF-RHF Final Energy:  -286.13522132223136
    Total Energy =                       -286.1352213222314731
    Molecular point group: c1
  Basis Set: CC-PVTZ
  Basis Set:
  Basis Set: CC-PVTZ
  Basis Set:
  @DF-RHF Final Energy:  -286.13553894760429
    Total Energy =                       -286.1355389476046298
  Basis Set: CC-PVTZ
  Basis Set:
  Basis Set: CC-PVTZ
  Basis Set:
  @DF-RHF Final Energy:  -286.13557453762519
    Total Energy =                       -286.1355745376253026
  Basis Set: CC-PVTZ
  Basis Set:
  Basis Set: CC-PVTZ
  Basis Set:
  @DF-RHF Final Energy:  -286.13552464345958
    Total Energy =                       -286.1355246434597461
  Basis Set: CC-PVTZ
  Basis Set:
  @DF-RHF Final Energy:  -286.13560520242936
    Total Energy =                       -286.1356052024292467
  @DF-RHF Final Energy:  -286.13560911639502
    Total Energy =                       -286.1356091163950737
  @DF-RHF Final Energy:  -286.13561202791914
    Total Energy =                       -286.1356120279191373
  Basis Set: CC-PVTZ
  Basis Set:
  @DF-RHF Final Energy:  -286.13561403903213
    Total Energy =                       -286.1356140390320775
  Basis Set: CC-PVTZ
  Basis Set:
  Basis Set: CC-PVTZ
  Basis Set:
  @DF-RHF Final Energy:  -286.13561634172521
    Total Energy =                       -286.1356163417250400
  Basis Set: CC-PVTZ
  Basis Set:
  Basis Set: CC-PVTZ
  Basis Set:
  @DF-RHF Final Energy:  -286.13561751656471
    Total Energy =                       -286.1356175165645936
  Basis Set: CC-PVTZ
  Basis Set:
  Charge       = 0
  Multiplicity = 1
  Basis Set: CC-PVTZ
  Basis Set:

    Orbital Energies (a.u.)
    -----------------------

    Doubly Occupied:

       1A    -20.502566     2A    -15.578808     3A    -11.335341
       4A    -11.264111     5A    -11.246423     6A    -11.226429
       7A     -1.386629     8A     -1.246623     9A     -1.015099
      10A     -0.973429    11A     -0.921514    12A     -0.739398
      13A     -0.683390    14A     -0.662190    15A     -0.653864
      16A     -0.590709    17A     -0.577944    18A     -0.566862
      19A     -0.561438    20A     -0.548751    21A     -0.530497
      22A     -0.507705    23A     -0.413009    24A     -0.369858

  @DF-RHF Final Energy:  -286.13561760597918

   => Energetics <=

    Nuclear Repulsion Energy =            252.8135446700560180
    One-Electron Energy =                -889.6931519048898735
    Two-Electron Energy =                 350.7439896288547061
    DFT Exchange-Correlation Energy =       0.0000000000000000
    Empirical Dispersion Energy =           0.0000000000000000
    PCM Polarization Energy =               0.0000000000000000
    EFP Energy =                            0.0000000000000000
    Total Energy =                       -286.1356176059791778
    Molecular point group: c1
  Basis Set: CC-PVTZ
  Basis Set:

  -Total Gradient:
     Atom            X                  Y                   Z
    ------   -----------------  -----------------  -----------------
       1       -0.000011244136     0.000005731604     0.000006807570
       2        0.000069551817     0.000070721771     0.000047096853
       3       -0.000007893312    -0.000010611123    -0.000013067204
       4       -0.000098875835    -0.000110541895    -0.000116929710
       5        0.000004925782     0.000002080556     0.000003808281
       6        0.000000357855     0.000003032054     0.000000544358
       7        0.000004662263     0.000004332373     0.000002590696
       8        0.000106761934     0.000125531732     0.000151349279
       9       -0.000002299734    -0.000007541328     0.000004090545
      10       -0.000058678484    -0.000068333493    -0.000090869932
      11       -0.000008818307    -0.000006944641    -0.000000912816
      12       -0.000001108507    -0.000004960770    -0.000000070753
      13       -0.000002811471    -0.000000437705     0.000004571067
      14        0.000002529585    -0.000002659534     0.000001838390
      15        0.000002940549     0.000000600399    -0.000000846626

  **** Optimization is complete! (in 11 steps) ****
    Final optimized geometry and variables:
    Molecular point group: c1

    Geometry (in Angstrom), charge = 0, multiplicity = 1:

    O            1.031395750453     0.585196982284    -1.246891331180
    C            0.090542192722     0.502962912741    -0.509538492619
    C           -1.065233193531     1.472571886181    -0.651056065777
    N            0.020999969361    -0.430398122746     0.473016062968
    H           -1.197801648672     2.060916530324     0.248322803663
    H           -0.834346602429     2.129097924941    -1.473292242724
    H           -1.994314340028     0.955542998012    -0.855982659469
    C            1.070971674372    -1.418894465159     0.592435736774
    C           -1.133281935641    -0.661109881281     1.306913875099
    H            1.888789101706    -1.155504997368    -0.052772374096
    H            0.705843358605    -2.403918431806     0.315178891583
    H            1.421839258364    -1.464293907159     1.617374013154
    H           -0.811268999215    -0.852538269024     2.323517488245
    H           -1.789486490054     0.191284425522     1.327504724768
    H           -1.702637221011    -1.524083772032     0.970738905044

  Mulliken Charges: (a.u.)
   Center  Symbol    Alpha    Beta     Spin     Total
       1     O     4.22208  4.22208  0.00000 -0.44416
       2     C     2.84649  2.84649  0.00000  0.30701
       3     C     3.16045  3.16045  0.00000 -0.32090
       4     N     3.55923  3.55923  0.00000 -0.11846
       5     H     0.44932  0.44932  0.00000  0.10136
       6     H     0.42851  0.42851  0.00000  0.14298
       7     H     0.44948  0.44948  0.00000  0.10104
       8     C     3.10050  3.10050  0.00000 -0.20099
       9     C     3.09486  3.09486  0.00000 -0.18973
      10     H     0.42512  0.42512  0.00000  0.14976
      11     H     0.45801  0.45801  0.00000  0.08398
      12     H     0.45636  0.45636  0.00000  0.08727
      13     H     0.45063  0.45063  0.00000  0.09874
      14     H     0.44495  0.44495  0.00000  0.11009
      15     H     0.45400  0.45400  0.00000  0.09200

   Total alpha = 24.00000, Total beta = 24.00000, Total charge = -0.00000
