  ==> Input File <==

--------------------------------------------------------------------------
set {
	reference rhf
	basis cc-pvtz
}

set_num_threads( 4 )
memory 2 gb

molecule MOL {
0 1

H	 -3.162190	 0.493205	 -0.000107
C	 -2.363908	 -0.234727	 0.000005
O	 -1.158738	 0.454634	 -0.000087
H	 -2.464314	 -0.863616	 -0.882153
H	 -2.464327	 -0.863359	 0.882345
C	 -0.028611	 -0.359694	 0.000037
C	 1.212847	 0.509314	 -0.000053
H	 -0.034155	 -1.007047	 -0.877198
H	 -0.034195	 -1.006836	 0.877430
C	 2.463182	 -0.261515	 -0.408507
H	 1.050933	 1.342898	 -0.674477
H	 1.340382	 0.929519	 0.991468
H	 2.366336	 -0.670633	 -1.408672
H	 3.333930	 0.382495	 -0.400149
H	 2.657887	 -1.086579	 0.268566

	symmetry c1
}
set optking {
	frozen_dihedral = ("
		11 7 6 8
	")
}

ee = optimize('scf')
oeprop('DIPOLE', 'QUADRUPOLE', 'MULLIKEN_CHARGES')
f=open( 'psi4out.xyz', 'w' )
f.write( "15  " )
f.write( str(ee) + "\n" )
f.write( MOL.save_string_xyz() )
f.close()
--------------------------------------------------------------------------

    Molecular point group: c1
  Charge       = 0
  Multiplicity = 1
  Basis Set: CC-PVTZ
  Basis Set:
  @DF-RHF Final Energy:  -232.22711226785546
    Total Energy =                       -232.2271122678556026
    Molecular point group: c1
  Basis Set: CC-PVTZ
  Basis Set:
  Basis Set: CC-PVTZ
  Basis Set:
  @DF-RHF Final Energy:  -232.22725522316631
    Total Energy =                       -232.2272552231665372
  Basis Set: CC-PVTZ
  Basis Set:
  Basis Set: CC-PVTZ
  Basis Set:
  @DF-RHF Final Energy:  -232.22728230059829
    Total Energy =                       -232.2272823005984037
  Basis Set: CC-PVTZ
  Basis Set:
  Charge       = 0
  Multiplicity = 1
  Basis Set: CC-PVTZ
  Basis Set:

    Orbital Energies (a.u.)
    -----------------------

    Doubly Occupied:

       1A    -20.548288     2A    -11.264413     3A    -11.262035
       4A    -11.212639     5A    -11.210818     6A     -1.382548
       7A     -1.057938     8A     -0.956392     9A     -0.877877
      10A     -0.809968    11A     -0.675924    12A     -0.657238
      13A     -0.632946    14A     -0.606625    15A     -0.565917
      16A     -0.541434    17A     -0.504033    18A     -0.491066
      19A     -0.476927    20A     -0.463076    21A     -0.416248

  @DF-RHF Final Energy:  -232.22728298216532

   => Energetics <=

    Nuclear Repulsion Energy =            189.9604887868869127
    One-Electron Energy =                -691.1468385265557117
    Two-Electron Energy =                 268.9590667575034786
    DFT Exchange-Correlation Energy =       0.0000000000000000
    Empirical Dispersion Energy =           0.0000000000000000
    PCM Polarization Energy =               0.0000000000000000
    EFP Energy =                            0.0000000000000000
    Total Energy =                       -232.2272829821653204
    Molecular point group: c1
  Basis Set: CC-PVTZ
  Basis Set:

  -Total Gradient:
     Atom            X                  Y                   Z
    ------   -----------------  -----------------  -----------------
       1       -0.000034208225    -0.000012129726    -0.000001114205
       2       -0.000001305239     0.000033972303     0.000019166589
       3       -0.000053849887     0.000001031046     0.000013306565
       4        0.000005555157     0.000001386744     0.000000621347
       5       -0.000010511660    -0.000007670942    -0.000001866056
       6       -0.002069848322     0.003140217467    -0.001575972920
       7        0.001862093777    -0.002645657262    -0.002482686358
       8        0.001524417795    -0.002243775444     0.001653852847
       9       -0.000033995373     0.000033580500    -0.000011454776
      10        0.000033685999    -0.000004801471    -0.000034206777
      11       -0.001206343084     0.001679381045     0.002394917857
      12        0.000003198893     0.000012721283     0.000003596050
      13       -0.000009667219    -0.000004210206     0.000012474862
      14        0.000004712996     0.000004303466     0.000002429123
      15       -0.000013935607     0.000011651198     0.000006935853

  **** Optimization is complete! (in 4 steps) ****
    Final optimized geometry and variables:
    Molecular point group: c1

    Geometry (in Angstrom), charge = 0, multiplicity = 1:

    H           -3.159712290557     0.480052000783     0.120045518041
    C           -2.359804609338    -0.246165231686     0.112545893021
    O           -1.156320247500     0.445024293264     0.072792569707
    H           -2.479552698898    -0.888985631555    -0.757128473572
    H           -2.437633421001    -0.861310817020     1.006565964771
    C           -0.025949221998    -0.366240324915     0.050277186843
    C            1.220852597896     0.499415206014     0.065604737575
    H           -0.029328806505    -1.011305819307    -0.828996862650
    H           -0.026404091773    -1.030095381205     0.915621898782
    C            2.481125629626    -0.273652826313    -0.301753587335
    H            1.064058847039     1.334771053047    -0.607314071061
    H            1.329437682859     0.933158520339     1.054517840089
    H            2.424873629876    -0.661478399230    -1.313086182609
    H            3.356859546535     0.360667466453    -0.238851264631
    H            2.636984656483    -1.114637403508     0.366432107554

  Mulliken Charges: (a.u.)
   Center  Symbol    Alpha    Beta     Spin     Total
       1     H     0.44682  0.44682  0.00000  0.10636
       2     C     3.03267  3.03267  0.00000 -0.06534
       3     O     4.17128  4.17128  0.00000 -0.34257
       4     H     0.47231  0.47231  0.00000  0.05538
       5     H     0.47169  0.47169  0.00000  0.05662
       6     C     2.95621  2.95621  0.00000  0.08759
       7     C     3.08122  3.08122  0.00000 -0.16245
       8     H     0.47733  0.47733  0.00000  0.04533
       9     H     0.47530  0.47530  0.00000  0.04941
      10     C     3.15502  3.15502  0.00000 -0.31004
      11     H     0.44940  0.44940  0.00000  0.10120
      12     H     0.45311  0.45311  0.00000  0.09377
      13     H     0.45486  0.45486  0.00000  0.09027
      14     H     0.44655  0.44655  0.00000  0.10689
      15     H     0.45621  0.45621  0.00000  0.08758

   Total alpha = 21.00000, Total beta = 21.00000, Total charge =  0.00000
