  ==> Input File <==

--------------------------------------------------------------------------
set {
	reference rhf
	basis cc-pvtz
}

set_num_threads( 4 )
memory 2 gb

molecule MOL {
0 1

H	 2.350616	 -0.994693	 -0.847317
N	 2.433987	 -0.362316	 -0.080024
C	 1.263552	 0.494993	 0.021953
H	 3.259639	 0.178453	 -0.232353
C	 -0.016533	 -0.325589	 -0.026925
H	 1.280915	 1.180773	 -0.818522
H	 1.263064	 1.106893	 0.925038
C	 -1.280353	 0.525521	 0.047747
H	 -0.016686	 -0.912532	 -0.939714
H	 -0.014099	 -1.037598	 0.796369
C	 -2.560681	 -0.301323	 -0.007747
H	 -1.279957	 1.241025	 -0.770189
H	 -1.270445	 1.110526	 0.963468
H	 -2.617064	 -0.872870	 -0.928010
H	 -3.439525	 0.331102	 0.043462
H	 -2.609427	 -1.002736	 0.818585

	symmetry c1
}
set optking {
	frozen_dihedral = ("
		1 2 3 6
	")
}

ee = optimize('scf')
oeprop('DIPOLE', 'QUADRUPOLE', 'MULLIKEN_CHARGES')
f=open( 'psi4out.xyz', 'w' )
f.write( "16  " )
f.write( str(ee) + "\n" )
f.write( MOL.save_string_xyz() )
f.close()
--------------------------------------------------------------------------

    Molecular point group: c1
  Charge       = 0
  Multiplicity = 1
  Basis Set: CC-PVTZ
  Basis Set:
  @DF-RHF Final Energy:  -212.39807967262209
    Total Energy =                       -212.3980796726218614
    Molecular point group: c1
  Basis Set: CC-PVTZ
  Basis Set:
  Basis Set: CC-PVTZ
  Basis Set:
  @DF-RHF Final Energy:  -212.39982455810770
    Total Energy =                       -212.3998245581075253
  Basis Set: CC-PVTZ
  Basis Set:
  Basis Set: CC-PVTZ
  Basis Set:
  @DF-RHF Final Energy:  -212.40004686342226
    Total Energy =                       -212.4000468634222898
  Basis Set: CC-PVTZ
  Basis Set:
  Basis Set: CC-PVTZ
  Basis Set:
  @DF-RHF Final Energy:  -212.40004995249325
    Total Energy =                       -212.4000499524931342
  Basis Set: CC-PVTZ
  Basis Set:
  Charge       = 0
  Multiplicity = 1
  Basis Set: CC-PVTZ
  Basis Set:

    Orbital Energies (a.u.)
    -----------------------

    Doubly Occupied:

       1A    -15.525587     2A    -11.237743     3A    -11.213750
       4A    -11.209683     5A    -11.206501     6A     -1.177809
       7A     -1.061539     8A     -0.960113     9A     -0.844721
      10A     -0.794048    11A     -0.661326    12A     -0.643655
      13A     -0.604703    14A     -0.576536    15A     -0.569058
      16A     -0.524013    17A     -0.503564    18A     -0.470864
      19A     -0.465998    20A     -0.462622    21A     -0.382622

  @DF-RHF Final Energy:  -212.40005040527041

   => Energetics <=

    Nuclear Repulsion Energy =            186.6515917121978418
    One-Electron Energy =                -655.9103722571335311
    Two-Electron Energy =                 256.8587301396655107
    DFT Exchange-Correlation Energy =       0.0000000000000000
    Empirical Dispersion Energy =           0.0000000000000000
    PCM Polarization Energy =               0.0000000000000000
    EFP Energy =                            0.0000000000000000
    Total Energy =                       -212.4000504052701785
    Molecular point group: c1
  Basis Set: CC-PVTZ
  Basis Set:

  -Total Gradient:
     Atom            X                  Y                   Z
    ------   -----------------  -----------------  -----------------
       1       -0.000743402250    -0.001019112428     0.000890164533
       2        0.001148860250     0.001534033214    -0.000854780333
       3       -0.001174865875    -0.001461709593    -0.000879739901
       4        0.000005824121     0.000006933008    -0.000010529613
       5        0.000039045412     0.000013850737     0.000010969178
       6        0.000724699497     0.000919451622     0.000824279403
       7       -0.000003951260    -0.000019917573     0.000009576523
       8       -0.000007897840     0.000004138355     0.000005952158
       9        0.000016630296     0.000013172426     0.000008095803
      10        0.000006144989     0.000013817349    -0.000002394879
      11       -0.000011250753     0.000003530055     0.000000021665
      12        0.000007077204    -0.000003029271     0.000002065838
      13       -0.000001870552    -0.000003785566    -0.000000506119
      14        0.000001205383    -0.000000912686     0.000000159188
      15       -0.000005506387    -0.000002106011    -0.000002978499
      16       -0.000000742237     0.000001646361    -0.000000354946

  **** Optimization is complete! (in 5 steps) ****
    Final optimized geometry and variables:
    Molecular point group: c1

    Geometry (in Angstrom), charge = 0, multiplicity = 1:

    H            2.394007708210    -0.995564136411    -0.800432914094
    N            2.435283014508    -0.364317148103    -0.028204957663
    C            1.264249343148     0.496742772820     0.006584076240
    H            3.276881496606     0.164151453569    -0.112256708308
    C           -0.015374262369    -0.324046715675    -0.022301634874
    H            1.248833685450     1.225163833385    -0.805257602100
    H            1.299323784335     1.068200976857     0.928696193882
    C           -1.278490721410     0.526681933440     0.066683332427
    H           -0.042126806474    -0.910074328915    -0.939261039602
    H            0.010636325119    -1.035281379527     0.797264432141
    C           -2.558713123873    -0.301477879291     0.034339866018
    H           -1.292372155876     1.241130230011    -0.751859084657
    H           -1.252840267582     1.112030455996     0.981672809553
    H           -2.631864484929    -0.873054945647    -0.884974525071
    H           -3.436969177170     0.330278282122     0.101263781821
    H           -2.591398137754    -1.002758835329     0.861314578518

  Mulliken Charges: (a.u.)
   Center  Symbol    Alpha    Beta     Spin     Total
       1     H     0.43060  0.43060  0.00000  0.13879
       2     N     3.69045  3.69045  0.00000 -0.38090
       3     C     3.02160  3.02160  0.00000 -0.04319
       4     H     0.43024  0.43024  0.00000  0.13952
       5     C     3.08300  3.08300  0.00000 -0.16600
       6     H     0.46968  0.46968  0.00000  0.06065
       7     H     0.45846  0.45846  0.00000  0.08308
       8     C     3.08832  3.08832  0.00000 -0.17663
       9     H     0.46115  0.46115  0.00000  0.07770
      10     H     0.44882  0.44882  0.00000  0.10236
      11     C     3.14919  3.14919  0.00000 -0.29838
      12     H     0.45610  0.45610  0.00000  0.08780
      13     H     0.45405  0.45405  0.00000  0.09190
      14     H     0.45552  0.45552  0.00000  0.08895
      15     H     0.44866  0.44866  0.00000  0.10269
      16     H     0.45417  0.45417  0.00000  0.09166

   Total alpha = 21.00000, Total beta = 21.00000, Total charge = -0.00000
