  ==> Input File <==

--------------------------------------------------------------------------
set {
	reference rhf
	basis cc-pvtz
}

set_num_threads( 4 )
memory 2 gb

molecule MOL {
0 1

H	 2.653452	 0.254265	 0.543770
O	 2.063695	 -0.083403	 -0.105237
C	 0.742924	 0.005675	 0.350750
H	 0.731380	 0.039219	 1.440080
C	 -0.064076	 -1.193495	 -0.124425
C	 -0.047832	 1.190568	 -0.194462
H	 0.194729	 -1.376165	 -1.161308
H	 0.163013	 -2.094508	 0.429933
C	 -1.533112	 -0.752002	 0.006102
H	 0.148003	 1.266545	 -1.259275
H	 0.226235	 2.136493	 0.259722
C	 -1.506634	 0.799189	 0.067162
H	 -2.124360	 -1.110499	 -0.826089
H	 -1.983103	 -1.158030	 0.903403
H	 -2.183808	 1.252169	 -0.644677
H	 -1.813926	 1.138698	 1.049457

	symmetry c1
}
set optking {
	frozen_dihedral = ("
		1 2 3 6
	")
}

ee = optimize('scf')
oeprop('DIPOLE', 'QUADRUPOLE', 'MULLIKEN_CHARGES')
f=open( 'psi4out.xyz', 'w' )
f.write( "16  " )
f.write( str(ee) + "\n" )
f.write( MOL.save_string_xyz() )
f.close()
--------------------------------------------------------------------------

    Molecular point group: c1
  Charge       = 0
  Multiplicity = 1
  Basis Set: CC-PVTZ
  Basis Set:
  @DF-RHF Final Energy:  -270.11587431963358
    Total Energy =                       -270.1158743196336331
    Molecular point group: c1
  Basis Set: CC-PVTZ
  Basis Set:
  Basis Set: CC-PVTZ
  Basis Set:
  @DF-RHF Final Energy:  -270.11596270267705
    Total Energy =                       -270.1159627026769954
  Basis Set: CC-PVTZ
  Basis Set:
  Basis Set: CC-PVTZ
  Basis Set:
  @DF-RHF Final Energy:  -270.11597161368979
    Total Energy =                       -270.1159716136899078
  Basis Set: CC-PVTZ
  Basis Set:
  Charge       = 0
  Multiplicity = 1
  Basis Set: CC-PVTZ
  Basis Set:

    Orbital Energies (a.u.)
    -----------------------

    Doubly Occupied:

       1A    -20.545376     2A    -11.268092     3A    -11.213033
       4A    -11.212134     5A    -11.206674     6A    -11.206109
       7A     -1.365030     8A     -1.113734     9A     -0.964472
      10A     -0.949200    11A     -0.783959    12A     -0.777129
      13A     -0.716487    14A     -0.654027    15A     -0.621161
      16A     -0.580928    17A     -0.556667    18A     -0.527351
      19A     -0.520145    20A     -0.479511    21A     -0.469373
      22A     -0.456558    23A     -0.452310    24A     -0.414648

  @DF-RHF Final Energy:  -270.11597208288003

   => Energetics <=

    Nuclear Repulsion Energy =            255.3918774566157310
    One-Electron Energy =                -872.9074870436073752
    Two-Electron Energy =                 347.3996375041117517
    DFT Exchange-Correlation Energy =       0.0000000000000000
    Empirical Dispersion Energy =           0.0000000000000000
    PCM Polarization Energy =               0.0000000000000000
    EFP Energy =                            0.0000000000000000
    Total Energy =                       -270.1159720828799209
    Molecular point group: c1
  Basis Set: CC-PVTZ
  Basis Set:

  -Total Gradient:
     Atom            X                  Y                   Z
    ------   -----------------  -----------------  -----------------
       1        0.000119382408    -0.001262312529     0.000521351555
       2       -0.000280974091     0.001353081735    -0.000913583699
       3        0.000487539978     0.000400538693     0.001062896874
       4       -0.000003405785    -0.000006562584    -0.000006911319
       5       -0.000033880172     0.000031017860     0.000006068504
       6       -0.000252188705    -0.000506737977    -0.000708742653
       7        0.000006625445    -0.000001574399    -0.000011988579
       8        0.000003964583     0.000001254441    -0.000002008527
       9        0.000020635984     0.000022353330    -0.000024157248
      10        0.000019899524    -0.000009793163     0.000017484250
      11        0.000005836521    -0.000014335858     0.000005180090
      12       -0.000061379792     0.000003197309     0.000038162155
      13       -0.000007612240    -0.000004262466     0.000010297753
      14        0.000001791818     0.000011596831     0.000010835599
      15       -0.000003485448    -0.000008461956    -0.000005161265
      16       -0.000022750026    -0.000008999268     0.000000276510

  **** Optimization is complete! (in 4 steps) ****
    Final optimized geometry and variables:
    Molecular point group: c1

    Geometry (in Angstrom), charge = 0, multiplicity = 1:

    H            2.660343943888     0.275954630990     0.520483225603
    O            2.063513728879    -0.063893918818    -0.118428419060
    C            0.743783781412     0.004876017183     0.352231143495
    H            0.740218798248     0.037005470432     1.440200328213
    C           -0.069191884880    -1.193792504797    -0.121588817473
    C           -0.046646698161     1.189878520776    -0.192414637831
    H            0.195584138274    -1.380509020823    -1.156337446127
    H            0.153065925438    -2.094605051076     0.435762223033
    C           -1.537497378056    -0.749151157745    -0.001690038363
    H            0.155570052704     1.264269546699    -1.255775945108
    H            0.230801638485     2.134416908652     0.260804878187
    C           -1.506538922156     0.801930574774     0.063135214313
    H           -2.123330241412    -1.103528900742    -0.839498123288
    H           -1.996214479227    -1.156107990163     0.890906085277
    H           -2.181108212883     1.257827728988    -0.649360969112
    H           -1.816409062004     1.139429294724     1.045572977459

  Mulliken Charges: (a.u.)
   Center  Symbol    Alpha    Beta     Spin     Total
       1     H     0.39291  0.39291  0.00000  0.21418
       2     O     4.20308  4.20308  0.00000 -0.40616
       3     C     2.92182  2.92182  0.00000  0.15636
       4     H     0.46915  0.46915  0.00000  0.06170
       5     C     3.10141  3.10141  0.00000 -0.20283
       6     C     3.09539  3.09539  0.00000 -0.19078
       7     H     0.45149  0.45149  0.00000  0.09703
       8     H     0.44584  0.44584  0.00000  0.10832
       9     C     3.11020  3.11020  0.00000 -0.22039
      10     H     0.45371  0.45371  0.00000  0.09259
      11     H     0.45061  0.45061  0.00000  0.09878
      12     C     3.11493  3.11493  0.00000 -0.22987
      13     H     0.44558  0.44558  0.00000  0.10884
      14     H     0.44913  0.44913  0.00000  0.10174
      15     H     0.44360  0.44360  0.00000  0.11279
      16     H     0.45115  0.45115  0.00000  0.09770

   Total alpha = 24.00000, Total beta = 24.00000, Total charge = -0.00000
