                              Psi4 1.0.54 Driver

  ==> Input File <==

--------------------------------------------------------------------------
set {
	reference rhf
	basis cc-pvtz
}

set_num_threads( 4 )
memory 2 gb

molecule MOL {
0 1

O	 -2.817697	 1.304178	 0.001046
C	 -2.664672	 0.129869	 0.003507
C	 -3.797908	 -0.860100	 -0.001145
O	 -1.481217	 -0.452708	 0.001092
H	 -4.408836	 -0.679689	 -0.875387
H	 -3.443486	 -1.878443	 -0.002770
H	 -4.412123	 -0.683688	 0.871605
C	 -0.332055	 0.384012	 -0.000250
C	 0.892252	 -0.506059	 -0.000295
H	 -0.360822	 1.020205	 -0.874146
H	 -0.359817	 1.021310	 0.872861
C	 2.188199	 0.299473	 -0.001416
H	 0.857046	 -1.152781	 -0.871031
H	 0.857910	 -1.151798	 0.871202
C	 1.955728	 1.805619	 -0.082703
H	 2.756099	 0.073900	 0.897797
H	 2.807823	 -0.011824	 -0.838753
C	 3.250542	 2.610888	 -0.085044
H	 1.338112	 2.118188	 0.754500
H	 1.388443	 2.032269	 -0.980981
H	 3.824604	 2.431661	 0.817828
H	 3.050633	 3.674423	 -0.143669
H	 3.875473	 2.344833	 -0.930934

	symmetry c1
}
set optking {
	frozen_dihedral = ("
		16 12 9 13
	")
}

ee,wfn = optimize('scf', return_wfn=True)
oeprop( wfn, 'DIPOLE', 'QUADRUPOLE', 'MULLIKEN_CHARGES')
f=open( 'psi4out.xyz', 'w' )
f.write( "23  " )
f.write( str(ee) + "\n" )
f.write( MOL.save_string_xyz() )
f.close()
--------------------------------------------------------------------------

    Molecular point group: c1
  Charge       = 0
  Multiplicity = 1
  Basis Set: CC-PVTZ
  Basis Set:
  @DF-RHF Final Energy:  -423.12005596748446
    Total Energy =                       -423.1200559674846318
    Molecular point group: c1
  Basis Set: CC-PVTZ
  Basis Set:
  Basis Set: CC-PVTZ
  Basis Set:
  @DF-RHF Final Energy:  -423.11578503284994
    Total Energy =                       -423.1157850328498853
  Basis Set: CC-PVTZ
  Basis Set:
  Basis Set: CC-PVTZ
  Basis Set:
  @DF-RHF Final Energy:  -423.12417750998236
    Total Energy =                       -423.1241775099827009
  Basis Set: CC-PVTZ
  Basis Set:
  Basis Set: CC-PVTZ
  Basis Set:
  @DF-RHF Final Energy:  -423.12487080234655
    Total Energy =                       -423.1248708023470044
  Basis Set: CC-PVTZ
  Basis Set:
  @DF-RHF Final Energy:  -423.12478907880990
    Total Energy =                       -423.1247890788105224
  Basis Set: CC-PVTZ
  Basis Set:
  @DF-RHF Final Energy:  -423.12414139760330
    Total Energy =                       -423.1241413976040349
  Basis Set: CC-PVTZ
  Basis Set:
  Basis Set: CC-PVTZ
  Basis Set:
  @DF-RHF Final Energy:  -423.12498401433317
    Total Energy =                       -423.1249840143334495
  Basis Set: CC-PVTZ
  Basis Set:
  Basis Set: CC-PVTZ
  Basis Set:
  @DF-RHF Final Energy:  -423.12498606117094
    Total Energy =                       -423.1249860611707163
  Basis Set: CC-PVTZ
  Basis Set:
  Charge       = 0
  Multiplicity = 1
  Basis Set: CC-PVTZ
  Basis Set:

    Orbital Energies (a.u.)
    -----------------------

    Doubly Occupied:

       1A    -20.595439     2A    -20.529273     3A    -11.366152
       4A    -11.278980     5A    -11.230467     6A    -11.222363
       7A    -11.221408     8A    -11.219720     9A    -11.210720
      10A     -1.470766    11A     -1.363668    12A     -1.091098
      13A     -1.041162    14A     -1.002054    15A     -0.932028
      16A     -0.854719    17A     -0.789521    18A     -0.778376
      19A     -0.693827    20A     -0.688031    21A     -0.668352
      22A     -0.644981    23A     -0.605809    24A     -0.589419
      25A     -0.577813    26A     -0.569802    27A     -0.568463
      28A     -0.529331    29A     -0.525126    30A     -0.514654
      31A     -0.499394    32A     -0.474550    33A     -0.465365
      34A     -0.461931    35A     -0.447576    36A     -0.439220

  @DF-RHF Final Energy:  -423.12498628629947

   => Energetics <=

    Nuclear Repulsion Energy =            457.7222979505453964
    One-Electron Energy =               -1483.3714410843113001
    Two-Electron Energy =                 602.5241568474659744
    DFT Exchange-Correlation Energy =       0.0000000000000000
    Empirical Dispersion Energy =           0.0000000000000000
    PCM Polarization Energy =               0.0000000000000000
    EFP Energy =                            0.0000000000000000
    Total Energy =                       -423.1249862862998725
    Molecular point group: c1
  Basis Set: CC-PVTZ
  Basis Set:

  -Total Gradient:
     Atom            X                  Y                   Z
    ------   -----------------  -----------------  -----------------
       1        0.000042802260     0.000018219125    -0.000033321331
       2       -0.000039239754    -0.000011797477     0.000112059108
       3        0.000052073664    -0.000037255641    -0.000022388356
       4       -0.000151122527     0.000009599468    -0.000026079619
       5        0.000006648334    -0.000013663885    -0.000001102118
       6       -0.000028172526    -0.000017493821    -0.000006644107
       7        0.000045023177     0.000019355067    -0.000018337380
       8        0.000001384573     0.000023643162     0.000000884512
       9       -0.000862793953     0.001571149772    -0.001820088485
      10        0.000020386528     0.000002478264     0.000008722400
      11       -0.000006666006    -0.000029529233    -0.000018586581
      12       -0.000956239825     0.001786774164     0.001413866724
      13        0.000888051673    -0.001592517947     0.001307566313
      14        0.000012226846     0.000011751379    -0.000011556795
      15       -0.000003702560     0.000083106618     0.000072309294
      16        0.000949846916    -0.001785132304    -0.000919616724
      17       -0.000013208735    -0.000010205018     0.000016114292
      18        0.000013839697    -0.000016279995    -0.000023030958
      19        0.000042304257     0.000005014389    -0.000018550030
      20       -0.000012730007    -0.000007319198     0.000001013723
      21       -0.000009887641     0.000007060006    -0.000010898341
      22       -0.000006525450    -0.000023406341    -0.000005587899
      23        0.000015701061     0.000006449449     0.000003252359

  **** Optimization is complete! (in 9 steps) ****
    Final optimized geometry and variables:
    Molecular point group: c1

    Geometry (in Angstrom), charge = 0, multiplicity = 1:

    O           -2.615080545510     0.754018565565    -0.024180581247
    C           -2.419555345094    -0.413041687250     0.026205593906
    C           -3.516378453652    -1.442988107781     0.058794459771
    O           -1.216287573142    -0.951627241123     0.059541780730
    H           -4.128130225199    -1.322128835132    -0.825134700964
    H           -3.125649141601    -2.447052127728     0.102300521359
    H           -4.141657650794    -1.251816003634     0.920553864563
    C           -0.097521464105    -0.073292683873     0.032649904403
    C            1.143837308082    -0.943311004068     0.082826401604
    H           -0.146918863625     0.523626084223    -0.865407143982
    H           -0.161160358740     0.595048362499     0.878666544902
    C            2.503596224130    -0.199010328296     0.075395420058
    H            1.103013619282    -1.641699899162    -0.744484405084
    H            1.075707087327    -1.552113484598     0.976863211486
    C            2.486082966988     1.313001717588    -0.157283472976
    H            3.018486144924    -0.401172895016     1.008555961137
    H            3.128159187868    -0.644094163861    -0.692168209762
    C            3.891202725370     1.906475232839    -0.150000077086
    H            1.892133417273     1.805687544112     0.605180128853
    H            2.013935541752     1.537327896834    -1.108368715351
    H            4.384004431214     1.733736175023     0.800891830185
    H            3.864035876594     2.976532384338    -0.319011565421
    H            4.507337108498     1.464088182574    -0.925630650861

  Mulliken Charges: (a.u.)
   Center  Symbol    Alpha    Beta     Spin     Total
       1     O     4.20227  4.20227  0.00000 -0.40454
       2     C     2.81866  2.81866  0.00000  0.36268
       3     C     3.14045  3.14045  0.00000 -0.28091
       4     O     4.14487  4.14487  0.00000 -0.28974
       5     H     0.44218  0.44218  0.00000  0.11564
       6     H     0.44173  0.44173  0.00000  0.11654
       7     H     0.44219  0.44219  0.00000  0.11563
       8     C     2.97729  2.97729  0.00000  0.04543
       9     C     3.08920  3.08920  0.00000 -0.17840
      10     H     0.45274  0.45274  0.00000  0.09451
      11     H     0.45259  0.45259  0.00000  0.09482
      12     C     3.09955  3.09955  0.00000 -0.19911
      13     H     0.44815  0.44815  0.00000  0.10370
      14     H     0.44806  0.44806  0.00000  0.10388
      15     C     3.09352  3.09352  0.00000 -0.18704
      16     H     0.44975  0.44975  0.00000  0.10050
      17     H     0.44996  0.44996  0.00000  0.10007
      18     C     3.15038  3.15038  0.00000 -0.30075
      19     H     0.45027  0.45027  0.00000  0.09947
      20     H     0.45042  0.45042  0.00000  0.09915
      21     H     0.45462  0.45462  0.00000  0.09076
      22     H     0.44650  0.44650  0.00000  0.10700
      23     H     0.45465  0.45465  0.00000  0.09070

   Total alpha = 36.00000, Total beta = 36.00000, Total charge = -0.00000

*** Psi4 exiting successfully. Buy a developer a beer!
