                              Psi4 1.0.54 Driver

  ==> Input File <==

--------------------------------------------------------------------------
set {
	reference rhf
	basis cc-pvtz
}

set_num_threads( 4 )
memory 2 gb

molecule MOL {
0 1

H	 1.166964	 -1.062386	 0.758429
O	 1.324748	 -0.612467	 -0.052206
C	 0.706474	 0.636793	 -0.025501
C	 -0.617442	 0.695090	 -0.733654
H	 1.393836	 1.329316	 -0.496931
H	 0.572910	 0.981594	 0.998205
C	 -1.157348	 -0.276062	 -1.436273
H	 -1.138694	 1.633013	 -0.634432
H	 -0.661498	 -1.218190	 -1.572287
H	 -2.112144	 -0.152304	 -1.910730

	symmetry c1
}
set optking {
	frozen_dihedral = ("
		5 3 2 1
	")
}

ee,wfn = optimize('scf', return_wfn=True)
oeprop( wfn, 'DIPOLE', 'QUADRUPOLE', 'MULLIKEN_CHARGES')
f=open( 'psi4out.xyz', 'w' )
f.write( "10  " )
f.write( str(ee) + "\n" )
f.write( MOL.save_string_xyz() )
f.close()
--------------------------------------------------------------------------

    Molecular point group: c1
  Charge       = 0
  Multiplicity = 1
  Basis Set: CC-PVTZ
  Basis Set:
  @DF-RHF Final Energy:  -191.99732725119793
    Total Energy =                       -191.9973272511979872
    Molecular point group: c1
  Basis Set: CC-PVTZ
  Basis Set:
  Basis Set: CC-PVTZ
  Basis Set:
  @DF-RHF Final Energy:  -191.99757910042885
    Total Energy =                       -191.9975791004288794
  Basis Set: CC-PVTZ
  Basis Set:
  Basis Set: CC-PVTZ
  Basis Set:
  @DF-RHF Final Energy:  -191.99762008398702
    Total Energy =                       -191.9976200839869307
  Basis Set: CC-PVTZ
  Basis Set:
  Charge       = 0
  Multiplicity = 1
  Basis Set: CC-PVTZ
  Basis Set:

    Orbital Energies (a.u.)
    -----------------------

    Doubly Occupied:

       1A    -20.553945     2A    -11.278479     3A    -11.225372
       4A    -11.210960     5A     -1.373777     6A     -1.059263
       7A     -0.929256     8A     -0.764794     9A     -0.702597
      10A     -0.658646    11A     -0.616251    12A     -0.577852
      13A     -0.520642    14A     -0.507300    15A     -0.450095
      16A     -0.364188

  @DF-RHF Final Energy:  -191.99762108114408

   => Energetics <=

    Nuclear Repulsion Energy =            119.3974623560842474
    One-Electron Energy =                -497.2033333579216787
    Two-Electron Energy =                 185.8082499206932710
    DFT Exchange-Correlation Energy =       0.0000000000000000
    Empirical Dispersion Energy =           0.0000000000000000
    PCM Polarization Energy =               0.0000000000000000
    EFP Energy =                            0.0000000000000000
    Total Energy =                       -191.9976210811441604
    Molecular point group: c1
  Basis Set: CC-PVTZ
  Basis Set:

  -Total Gradient:
     Atom            X                  Y                   Z
    ------   -----------------  -----------------  -----------------
       1        0.001392980081     0.000676048735     0.000717105233
       2       -0.001627985007    -0.000787162590    -0.000484187153
       3       -0.000340038411    -0.000117010421    -0.001548591040
       4       -0.000031023850     0.000015803187     0.000036552218
       5        0.000562571287     0.000303419576     0.001308388242
       6        0.000029280729    -0.000081884570    -0.000002356599
       7       -0.000002712843    -0.000031375619     0.000031846745
       8        0.000006625391     0.000001638305    -0.000026792269
       9        0.000007443436     0.000018897105    -0.000030011066
      10        0.000002859189     0.000001626291    -0.000001954309

  **** Optimization is complete! (in 4 steps) ****
    Final optimized geometry and variables:
    Molecular point group: c1

    Geometry (in Angstrom), charge = 0, multiplicity = 1:

    H            1.031718519587    -1.141693281384     1.244939813734
    O            1.201097684838    -0.664782408470     0.454762965901
    C            0.565678510103     0.579381228521     0.493612848294
    C           -0.743474155150     0.615783834314    -0.241119247834
    H            1.243700591754     1.307420582352     0.060957184064
    H            0.401222055683     0.897233223162     1.520740104755
    C           -1.288397383157    -0.392896697540    -0.882890075061
    H           -1.244043619468     1.570071769419    -0.219387450993
    H           -0.807131445336    -1.350182922447    -0.931801025287
    H           -2.230048771664    -0.284742111892    -1.386844082589

  Mulliken Charges: (a.u.)
   Center  Symbol    Alpha    Beta     Spin     Total
       1     H     0.39056  0.39056  0.00000  0.21888
       2     O     4.19901  4.19901  0.00000 -0.39801
       3     C     2.95101  2.95101  0.00000  0.09798
       4     C     3.08110  3.08110  0.00000 -0.16219
       5     H     0.45724  0.45724  0.00000  0.08553
       6     H     0.47031  0.47031  0.00000  0.05937
       7     C     3.17663  3.17663  0.00000 -0.35327
       8     H     0.42384  0.42384  0.00000  0.15232
       9     H     0.42127  0.42127  0.00000  0.15745
      10     H     0.42903  0.42903  0.00000  0.14194

   Total alpha = 16.00000, Total beta = 16.00000, Total charge = -0.00000

*** Psi4 exiting successfully. Buy a developer a beer!
