  ==> Input File <==

--------------------------------------------------------------------------
set {
	reference rhf
	basis cc-pvtz
}

set_num_threads( 4 )
memory 2 gb

molecule MOL {
0 1

H	 1.166964	 -1.062386	 0.758429
O	 1.324748	 -0.612467	 -0.052206
C	 0.706474	 0.636793	 -0.025501
C	 -0.526285	 0.706764	 0.830678
H	 0.442644	 0.870387	 -1.050259
H	 1.403422	 1.407586	 0.298290
C	 -1.097103	 -0.307764	 1.441584
H	 -0.951152	 1.692469	 0.926193
H	 -0.713811	 -1.306692	 1.356713
H	 -1.978667	 -0.170663	 2.038331

	symmetry c1
}
set optking {
	frozen_dihedral = ("
		5 3 2 1
	")
}

ee = optimize('scf')
oeprop('DIPOLE', 'QUADRUPOLE', 'MULLIKEN_CHARGES')
f=open( 'psi4out.xyz', 'w' )
f.write( "10  " )
f.write( str(ee) + "\n" )
f.write( MOL.save_string_xyz() )
f.close()
--------------------------------------------------------------------------

    Molecular point group: c1
  Charge       = 0
  Multiplicity = 1
  Basis Set: CC-PVTZ
  Basis Set:
  @DF-RHF Final Energy:  -191.99648175023020
    Total Energy =                       -191.9964817502301742
    Molecular point group: c1
  Basis Set: CC-PVTZ
  Basis Set:
  Basis Set: CC-PVTZ
  Basis Set:
  @DF-RHF Final Energy:  -191.99677910476493
    Total Energy =                       -191.9967791047648689
  Basis Set: CC-PVTZ
  Basis Set:
  Basis Set: CC-PVTZ
  Basis Set:
  @DF-RHF Final Energy:  -191.99689442652732
    Total Energy =                       -191.9968944265273478
  Basis Set: CC-PVTZ
  Basis Set:
  Basis Set: CC-PVTZ
  Basis Set:
  @DF-RHF Final Energy:  -191.99689844968219
    Total Energy =                       -191.9968984496822486
  Basis Set: CC-PVTZ
  Basis Set:
  Charge       = 0
  Multiplicity = 1
  Basis Set: CC-PVTZ
  Basis Set:

    Orbital Energies (a.u.)
    -----------------------

    Doubly Occupied:

       1A    -20.552095     2A    -11.278392     3A    -11.237880
       4A    -11.223792     5A     -1.373458     6A     -1.067159
       7A     -0.936454     8A     -0.777019     9A     -0.690572
      10A     -0.663688    11A     -0.629585    12A     -0.573368
      13A     -0.554572    14A     -0.486086    15A     -0.457910
      16A     -0.374147

  @DF-RHF Final Energy:  -191.99689939829940

   => Energetics <=

    Nuclear Repulsion Energy =            119.5924787647108758
    One-Electron Energy =                -497.4264001038198444
    Two-Electron Energy =                 185.8370219408096204
    DFT Exchange-Correlation Energy =       0.0000000000000000
    Empirical Dispersion Energy =           0.0000000000000000
    PCM Polarization Energy =               0.0000000000000000
    EFP Energy =                            0.0000000000000000
    Total Energy =                       -191.9968993982993766
    Molecular point group: c1
  Basis Set: CC-PVTZ
  Basis Set:

  -Total Gradient:
     Atom            X                  Y                   Z
    ------   -----------------  -----------------  -----------------
       1       -0.002809911338    -0.001514193767    -0.001075285531
       2        0.002903237365     0.001533751313     0.001449028897
       3        0.002460702455     0.001252939266    -0.000858465762
       4       -0.000083039448    -0.000081124367    -0.000030865983
       5       -0.002488103649    -0.001296505712     0.000543000010
       6        0.000001317043    -0.000006196031    -0.000040211476
       7        0.000044754138     0.000092435816    -0.000047101191
       8       -0.000035012561     0.000039713488     0.000034683620
       9        0.000010553792    -0.000010830084    -0.000002106768
      10       -0.000004497799    -0.000009989922     0.000027324185

  **** Optimization is complete! (in 5 steps) ****
    Final optimized geometry and variables:
    Molecular point group: c1

    Geometry (in Angstrom), charge = 0, multiplicity = 1:

    H            1.082188593392    -1.093748697425     0.270992402555
    O            1.189767686526    -0.671431793266    -0.561365795395
    C            0.533148171466     0.558807127360    -0.561533667150
    C           -0.682374333717     0.631675488016     0.319630452750
    H            0.215342861053     0.750688600702    -1.580874404099
    H            1.218067355032     1.354033949971    -0.278428182191
    C           -1.294865757981    -0.380608495873     0.893729302863
    H           -1.067734069843     1.627172026892     0.463459121864
    H           -0.974372033499    -1.397985778275     0.765207690761
    H           -2.161414186733    -0.227082692956     1.507744350259

  Mulliken Charges: (a.u.)
   Center  Symbol    Alpha    Beta     Spin     Total
       1     H     0.39027  0.39027  0.00000  0.21945
       2     O     4.20180  4.20180  0.00000 -0.40360
       3     C     2.93947  2.93947  0.00000  0.12107
       4     C     3.08106  3.08106  0.00000 -0.16213
       5     H     0.45926  0.45926  0.00000  0.08149
       6     H     0.47049  0.47049  0.00000  0.05902
       7     C     3.17706  3.17706  0.00000 -0.35413
       8     H     0.42226  0.42226  0.00000  0.15548
       9     H     0.43128  0.43128  0.00000  0.13745
      10     H     0.42705  0.42705  0.00000  0.14591

   Total alpha = 16.00000, Total beta = 16.00000, Total charge = -0.00000
