  ==> Input File <==

--------------------------------------------------------------------------
set {
	reference rhf
	basis 6-31G*
}

set_num_threads( 4 )
memory 2 gb

molecule MOL {
0 1

H	 3.893188	 0.355400	 -0.101367
N	 3.092854	 -0.246221	 -0.068770
C	 1.865559	 0.531981	 0.018834
H	 3.199514	 -0.826043	 0.741946
C	 0.645745	 -0.382037	 -0.029944
H	 1.841966	 1.207024	 -0.831236
H	 1.815756	 1.155410	 0.915079
C	 -0.679275	 0.379305	 0.025956
H	 0.698998	 -0.976915	 -0.937203
H	 0.693479	 -1.083846	 0.802235
C	 -0.698485	 1.621842	 -0.866292
H	 -0.882362	 0.674982	 1.054149
H	 -1.492788	 -0.282945	 -0.266393
C	 -2.022938	 2.381763	 -0.804188
H	 0.112637	 2.285586	 -0.575192
H	 -0.498413	 1.329153	 -1.894864
H	 -2.234994	 2.717930	 0.206920
H	 -2.005260	 3.256921	 -1.446363
H	 -2.850582	 1.754312	 -1.123095

	symmetry c1
}
set optking {
	frozen_dihedral = ("
		12 8 5 9
	")
}

ee = optimize('scf')
oeprop('DIPOLE', 'QUADRUPOLE', 'MULLIKEN_CHARGES')
f=open( 'psi4out.xyz', 'w' )
f.write( "19  " )
f.write( str(ee) + "\n" )
f.write( MOL.save_string_xyz() )
f.close()
--------------------------------------------------------------------------

    Molecular point group: c1
  Charge       = 0
  Multiplicity = 1
  Basis Set: 6-31G*
  Basis Set:
  @DF-RHF Final Energy:  -251.34672062295161
    Total Energy =                       -251.3467206229516933
    Molecular point group: c1
  Basis Set: 6-31G*
  Basis Set:
  Basis Set: 6-31G*
  Basis Set:
  @DF-RHF Final Energy:  -251.34784738597151
    Total Energy =                       -251.3478473859715336
  Basis Set: 6-31G*
  Basis Set:
  Basis Set: 6-31G*
  Basis Set:
  @DF-RHF Final Energy:  -251.34882548789511
    Total Energy =                       -251.3488254878949419
  Basis Set: 6-31G*
  Basis Set:
  Basis Set: 6-31G*
  Basis Set:
  @DF-RHF Final Energy:  -251.34891442995152
    Total Energy =                       -251.3489144299514919
  Basis Set: 6-31G*
  Basis Set:
  Basis Set: 6-31G*
  Basis Set:
  @DF-RHF Final Energy:  -251.34892547466836
    Total Energy =                       -251.3489254746682491
  Basis Set: 6-31G*
  Basis Set:
  Charge       = 0
  Multiplicity = 1
  Basis Set: 6-31G*
  Basis Set:

    Orbital Energies (a.u.)
    -----------------------

    Doubly Occupied:

       1A    -15.532492     2A    -11.239535     3A    -11.214494
       4A    -11.212977     5A    -11.209812     6A    -11.207995
       7A     -1.176702     8A     -1.072145     9A     -0.996289
      10A     -0.899432    11A     -0.832924    12A     -0.771751
      13A     -0.664903    14A     -0.637182    15A     -0.613626
      16A     -0.593114    17A     -0.570667    18A     -0.550881
      19A     -0.525028    20A     -0.500930    21A     -0.490084
      22A     -0.459298    23A     -0.456070    24A     -0.448237
      25A     -0.380946

  @DF-RHF Final Energy:  -251.34892628235664

   => Energetics <=

    Nuclear Repulsion Energy =            249.2799433216880232
    One-Electron Energy =                -832.7427105631862787
    Two-Electron Energy =                 332.1138409591416121
    DFT Exchange-Correlation Energy =       0.0000000000000000
    Empirical Dispersion Energy =           0.0000000000000000
    PCM Polarization Energy =               0.0000000000000000
    EFP Energy =                            0.0000000000000000
    Total Energy =                       -251.3489262823566150
    Molecular point group: c1
  Basis Set: 6-31G*
  Basis Set:

  -Total Gradient:
     Atom            X                  Y                   Z
    ------   -----------------  -----------------  -----------------
       1        0.000010037291    -0.000004214020    -0.000000723585
       2        0.000021883986    -0.000004672078    -0.000013410070
       3       -0.000007062203     0.000002489434     0.000045748004
       4       -0.000007843046     0.000006893647    -0.000002217658
       5        0.001539155192     0.002945156128    -0.002163959617
       6        0.000011883207    -0.000013353634    -0.000004869619
       7       -0.000008563320     0.000017649910    -0.000010476117
       8        0.001995799381     0.003300637462    -0.000288983801
       9       -0.001649063022    -0.002960379672     0.001861066899
      10        0.000003478149    -0.000010955431    -0.000010393694
      11       -0.000000194171    -0.000000569564    -0.000021926859
      12       -0.001900048989    -0.003278898364     0.000605126240
      13       -0.000008110034    -0.000001329200     0.000009620599
      14       -0.000004114755     0.000001181994     0.000004690501
      15       -0.000007533392     0.000005853687    -0.000011503669
      16        0.000009674082    -0.000008424046    -0.000007629128
      17       -0.000016903639    -0.000006337851     0.000007694697
      18        0.000006676915     0.000005984557     0.000013945927
      19        0.000010848368     0.000003287039    -0.000011799050

  **** Optimization is complete! (in 6 steps) ****
    Final optimized geometry and variables:
    Molecular point group: c1

    Geometry (in Angstrom), charge = 0, multiplicity = 1:

    H            3.560150378730    -0.548576886398     0.264259506401
    N            2.714281378004    -1.085086920039     0.274041383255
    C            1.548861696204    -0.212773871057     0.285821660207
    H            2.738956866697    -1.651624841656     1.100528270963
    C            0.272216272509    -1.042532868173     0.197304592818
    H            1.626274554112     0.443388298862    -0.573743349355
    H            1.501876239830     0.430296106162     1.169073527616
    C           -1.037962482309    -0.251622580848     0.312553427347
    H            0.282011516774    -1.625034731095    -0.719445935125
    H            0.288526012193    -1.777898635292     1.001173122444
    C           -1.153780841765     0.974389918692    -0.595889121074
    H           -1.202112665247     0.034655757983     1.350212098549
    H           -1.854372971542    -0.931965465271     0.076964684354
    C           -2.537861353805     1.620100706360    -0.534120887794
    H           -0.406315872169     1.714124896162    -0.322377016823
    H           -0.936342688114     0.683817428006    -1.621898675866
    H           -2.776989950506     1.937505454698     0.477127224260
    H           -2.593956380455     2.493574469514    -1.176434932296
    H           -3.309551985115     0.924909745595    -0.852251546912

  Mulliken Charges: (a.u.)
   Center  Symbol    Alpha    Beta     Spin     Total
       1     H     0.33242  0.33242  0.00000  0.33517
       2     N     3.92229  3.92229  0.00000 -0.84458
       3     C     3.06272  3.06272  0.00000 -0.12543
       4     H     0.33533  0.33533  0.00000  0.32933
       5     C     3.15167  3.15167  0.00000 -0.30334
       6     H     0.41835  0.41835  0.00000  0.16331
       7     H     0.43508  0.43508  0.00000  0.12984
       8     C     3.15569  3.15569  0.00000 -0.31137
       9     H     0.41365  0.41365  0.00000  0.17271
      10     H     0.42647  0.42647  0.00000  0.14705
      11     C     3.15501  3.15501  0.00000 -0.31002
      12     H     0.42438  0.42438  0.00000  0.15125
      13     H     0.42147  0.42147  0.00000  0.15707
      14     C     3.23910  3.23910  0.00000 -0.47821
      15     H     0.42180  0.42180  0.00000  0.15639
      16     H     0.42160  0.42160  0.00000  0.15681
      17     H     0.42205  0.42205  0.00000  0.15590
      18     H     0.41943  0.41943  0.00000  0.16113
      19     H     0.42149  0.42149  0.00000  0.15702

   Total alpha = 25.00000, Total beta = 25.00000, Total charge = -0.00000
