  ==> Input File <==

--------------------------------------------------------------------------
set {
	reference rhf
	basis cc-pvtz
}

set_num_threads( 4 )
memory 2 gb

molecule MOL {
0 1

O	 -0.406170	 -0.097515	 -2.163538
C	 -0.060472	 -0.593750	 -1.145652
C	 1.140583	 -1.490296	 -0.979723
O	 -0.695554	 -0.422406	 0.000602
C	 1.907488	 -1.719034	 -2.272204
H	 0.787361	 -2.425421	 -0.559334
H	 1.771985	 -1.043585	 -0.219647
H	 1.278451	 -2.179818	 -3.022010
H	 2.755777	 -2.367926	 -2.091385
H	 2.272032	 -0.785417	 -2.679258
C	 -1.852370	 0.402254	 0.000718
C	 -3.063338	 -0.501097	 -0.000437
H	 -1.831732	 1.039442	 -0.872158
H	 -1.832493	 1.038301	 0.874430
H	 -3.071944	 -1.133732	 -0.879113
H	 -3.966302	 0.097976	 -0.000483
H	 -3.072764	 -1.134834	 0.877435

	symmetry c1
}
set optking {
	frozen_dihedral = ("
		2 4 11 13
	")
}

ee = optimize('scf')
oeprop('DIPOLE', 'QUADRUPOLE', 'MULLIKEN_CHARGES')
f=open( 'psi4out.xyz', 'w' )
f.write( "17  " )
f.write( str(ee) + "\n" )
f.write( MOL.save_string_xyz() )
f.close()
--------------------------------------------------------------------------

    Molecular point group: c1
  Charge       = 0
  Multiplicity = 1
  Basis Set: CC-PVTZ
  Basis Set:
  @DF-RHF Final Energy:  -345.03791826012480
    Total Energy =                       -345.0379182601250250
    Molecular point group: c1
  Basis Set: CC-PVTZ
  Basis Set:
  Basis Set: CC-PVTZ
  Basis Set:
  @DF-RHF Final Energy:  -345.03867613474421
    Total Energy =                       -345.0386761347444349
  Basis Set: CC-PVTZ
  Basis Set:
  Basis Set: CC-PVTZ
  Basis Set:
  @DF-RHF Final Energy:  -345.03899735751980
    Total Energy =                       -345.0389973575195199
  Basis Set: CC-PVTZ
  Basis Set:
  Basis Set: CC-PVTZ
  Basis Set:
  @DF-RHF Final Energy:  -345.03907689726077
    Total Energy =                       -345.0390768972605997
  Basis Set: CC-PVTZ
  Basis Set:
  Basis Set: CC-PVTZ
  Basis Set:
  @DF-RHF Final Energy:  -345.03907838360772
    Total Energy =                       -345.0390783836074320
  Basis Set: CC-PVTZ
  Basis Set:
  Charge       = 0
  Multiplicity = 1
  Basis Set: CC-PVTZ
  Basis Set:

    Orbital Energies (a.u.)
    -----------------------

    Doubly Occupied:

       1A    -20.592367     2A    -20.532591     3A    -11.364877
       4A    -11.281379     5A    -11.235512     6A    -11.218395
       7A    -11.213572     8A     -1.468489     9A     -1.365193
      10A     -1.069966    11A     -1.030130    12A     -0.915447
      13A     -0.852442    14A     -0.765781    15A     -0.704397
      16A     -0.683531    17A     -0.662573    18A     -0.624690
      19A     -0.605517    20A     -0.570070    21A     -0.552163
      22A     -0.533061    23A     -0.521397    24A     -0.515969
      25A     -0.497024    26A     -0.493466    27A     -0.451355
      28A     -0.440031

  @DF-RHF Final Energy:  -345.03907862803158

   => Energetics <=

    Nuclear Repulsion Energy =            317.3279106372756360
    One-Electron Energy =               -1099.2112130870214060
    Two-Electron Energy =                 436.8442238217139675
    DFT Exchange-Correlation Energy =       0.0000000000000000
    Empirical Dispersion Energy =           0.0000000000000000
    PCM Polarization Energy =               0.0000000000000000
    EFP Energy =                            0.0000000000000000
    Total Energy =                       -345.0390786280318025
    Molecular point group: c1
  Basis Set: CC-PVTZ
  Basis Set:

  -Total Gradient:
     Atom            X                  Y                   Z
    ------   -----------------  -----------------  -----------------
       1       -0.000019402786     0.000003747349     0.000023824612
       2        0.000626920672     0.000878368874     0.000220172853
       3        0.000000961133     0.000005491708    -0.000003417179
       4       -0.001063075445    -0.001496041515    -0.000481900954
       5        0.000007033141    -0.000005018444     0.000002029044
       6       -0.000002417122     0.000000523104    -0.000004199047
       7        0.000000651982    -0.000005482016     0.000000063295
       8       -0.000001417685     0.000002479457     0.000006239321
       9        0.000002734734    -0.000000788678    -0.000003209334
      10        0.000002267455     0.000000751082    -0.000002696787
      11        0.001063931251     0.001495842527     0.000928681636
      12        0.000006220442    -0.000020255511    -0.000011292580
      13       -0.000625751860    -0.000867612831    -0.000659898131
      14        0.000011728927    -0.000008820413    -0.000011692238
      15       -0.000002236791    -0.000001346054     0.000002873220
      16       -0.000010360234     0.000009332694     0.000002230627
      17        0.000002212187     0.000008828669    -0.000007808360

  **** Optimization is complete! (in 6 steps) ****
    Final optimized geometry and variables:
    Molecular point group: c1

    Geometry (in Angstrom), charge = 0, multiplicity = 1:

    O            0.051588758181     0.496458534063    -1.256055309049
    C            0.391867626861     0.026661644566    -0.223978775470
    C            1.608957115112    -0.842827381820    -0.029958717999
    O           -0.255222049771     0.196979163334     0.916863006426
    C            2.391658113551    -1.083959734686    -1.310636116234
    H            1.269987456333    -1.775332854087     0.407452812484
    H            2.224663394182    -0.367913594570     0.725827478261
    H            1.778664460429    -1.573240760301    -2.055678933735
    H            3.250851134857    -1.711901799471    -1.108466190989
    H            2.741526603333    -0.152339070392    -1.734708578893
    C           -1.417002757108     1.017172755867     0.949302788066
    C           -2.667581624166     0.163446982210     0.973643001842
    H           -1.417080496368     1.671490037359     0.093641409763
    H           -1.331420236121     1.605499887421     1.851189387326
    H           -2.753571247046    -0.415568065927     0.062686971158
    H           -3.543376158452     0.796985559587     1.057369424206
    H           -2.654531185443    -0.516007302588     1.816838054144

  Mulliken Charges: (a.u.)
   Center  Symbol    Alpha    Beta     Spin     Total
       1     O     4.19896  4.19896  0.00000 -0.39791
       2     C     2.80110  2.80110  0.00000  0.39779
       3     C     3.09485  3.09485  0.00000 -0.18970
       4     O     4.15770  4.15770  0.00000 -0.31539
       5     C     3.14012  3.14012  0.00000 -0.28024
       6     H     0.44188  0.44188  0.00000  0.11623
       7     H     0.44185  0.44185  0.00000  0.11630
       8     H     0.44864  0.44864  0.00000  0.10271
       9     H     0.45061  0.45061  0.00000  0.09878
      10     H     0.44846  0.44846  0.00000  0.10309
      11     C     2.98906  2.98906  0.00000  0.02188
      12     C     3.14270  3.14270  0.00000 -0.28541
      13     H     0.44526  0.44526  0.00000  0.10948
      14     H     0.44700  0.44700  0.00000  0.10600
      15     H     0.44764  0.44764  0.00000  0.10473
      16     H     0.45230  0.45230  0.00000  0.09540
      17     H     0.45187  0.45187  0.00000  0.09626

   Total alpha = 28.00000, Total beta = 28.00000, Total charge = -0.00000
