  ==> Input File <==

--------------------------------------------------------------------------
set {
	reference rhf
	basis 6-31G*
}

set_num_threads( 1 )
memory 2 gb

molecule MOL {
0 1

H	 3.276176	 0.174363	 -0.109463
N	 2.434251	 -0.367735	 -0.081097
C	 1.267428	 0.496480	 0.024474
H	 2.501951	 -0.965776	 0.720575
C	 -0.016086	 -0.325158	 -0.029487
H	 1.288818	 1.183521	 -0.816092
H	 1.267576	 1.109062	 0.929528
C	 -1.282277	 0.529072	 0.046735
H	 -0.012495	 -0.908639	 -0.945788
H	 -0.015903	 -1.041248	 0.791956
C	 -2.560074	 -0.281753	 -0.166567
H	 -1.229419	 1.319102	 -0.699621
H	 -1.328832	 1.025742	 1.013745
H	 -2.560091	 -0.763018	 -1.140274
H	 -3.441243	 0.349726	 -0.109158
H	 -2.660707	 -1.059386	 0.585352

	symmetry c1
}
set optking {
	frozen_dihedral = ("
		6 3 5 9,
		1 2 3 6
	")
}

ee = energy('scf')
oeprop('DIPOLE', 'QUADRUPOLE', 'MULLIKEN_CHARGES')
f=open( 'psi4out.xyz', 'w' )
f.write( "16  " )
f.write( str(ee) + "\n" )
f.write( MOL.save_string_xyz() )
f.close()
--------------------------------------------------------------------------

    Molecular point group: c1

    Geometry (in Angstrom), charge = 0, multiplicity = 1:

       Center              X                  Y                   Z               Mass
    ------------   -----------------  -----------------  -----------------  -----------------
           H          3.275383591909     0.170244275326    -0.076472332306     1.007825032070
           N          2.433458591909    -0.371853724674    -0.048106332306    14.003074004780
           C          1.266635591909     0.492361275326     0.057464667694    12.000000000000
           H          2.501158591909    -0.969894724674     0.753565667694     1.007825032070
           C         -0.016878408091    -0.329276724674     0.003503667694    12.000000000000
           H          1.288025591909     1.179402275326    -0.783101332306     1.007825032070
           H          1.266783591909     1.104943275326     0.962518667694     1.007825032070
           C         -1.283069408091     0.524953275326     0.079725667694    12.000000000000
           H         -0.013287408091    -0.912757724674    -0.912797332306     1.007825032070
           H         -0.016695408091    -1.045366724674     0.824946667694     1.007825032070
           C         -2.560866408091    -0.285871724674    -0.133576332306    12.000000000000
           H         -1.230211408091     1.314983275326    -0.666630332306     1.007825032070
           H         -1.329624408091     1.021623275326     1.046735667694     1.007825032070
           H         -2.560883408091    -0.767136724674    -1.107283332306     1.007825032070
           H         -3.442035408091     0.345607275326    -0.076167332306     1.007825032070
           H         -2.661499408091    -1.063504724674     0.618342667694     1.007825032070

  Charge       = 0
  Multiplicity = 1
  Basis Set: 6-31G*
  Basis Set:

    Orbital Energies (a.u.)
    -----------------------

    Doubly Occupied:

       1A    -15.532646     2A    -11.239931     3A    -11.215052
       4A    -11.209632     5A    -11.207857     6A     -1.176752
       7A     -1.059498     8A     -0.958625     9A     -0.843724
      10A     -0.791934    11A     -0.664141    12A     -0.636358
      13A     -0.607373    14A     -0.574117    15A     -0.564466
      16A     -0.526247    17A     -0.499044    18A     -0.470664
      19A     -0.464581    20A     -0.461779    21A     -0.381152

  @DF-RHF Final Energy:  -212.31687108602586

   => Energetics <=

    Nuclear Repulsion Energy =            186.2685297256369950
    One-Electron Energy =                -654.9996781483121140
    Two-Electron Energy =                 256.4142773366497181
    DFT Exchange-Correlation Energy =       0.0000000000000000
    Empirical Dispersion Energy =           0.0000000000000000
    PCM Polarization Energy =               0.0000000000000000
    EFP Energy =                            0.0000000000000000
    Total Energy =                       -212.3168710860254009

  Mulliken Charges: (a.u.)
   Center  Symbol    Alpha    Beta     Spin     Total
       1     H     0.33248  0.33248  0.00000  0.33505
       2     N     3.92174  3.92174  0.00000 -0.84348
       3     C     3.06052  3.06052  0.00000 -0.12104
       4     H     0.33534  0.33534  0.00000  0.32932
       5     C     3.15042  3.15042  0.00000 -0.30084
       6     H     0.42080  0.42080  0.00000  0.15839
       7     H     0.43484  0.43484  0.00000  0.13032
       8     C     3.15561  3.15561  0.00000 -0.31121
       9     H     0.41349  0.41349  0.00000  0.17303
      10     H     0.42765  0.42765  0.00000  0.14469
      11     C     3.23868  3.23868  0.00000 -0.47737
      12     H     0.42293  0.42293  0.00000  0.15414
      13     H     0.42345  0.42345  0.00000  0.15310
      14     H     0.42046  0.42046  0.00000  0.15908
      15     H     0.41969  0.41969  0.00000  0.16061
      16     H     0.42189  0.42189  0.00000  0.15621

   Total alpha = 21.00000, Total beta = 21.00000, Total charge = -0.00000
