  ==> Input File <==

--------------------------------------------------------------------------
set {
	reference rhf
	basis cc-pvtz
}

set_num_threads( 4 )
memory 2 gb

molecule MOL {
0 1

H	 -2.504828	 2.441958	 0.475612
O	 -1.822531	 1.847246	 0.224648
C	 -2.302264	 0.528872	 0.237390
C	 -1.175688	 -0.398187	 -0.171891
H	 -2.658650	 0.263034	 1.230412
H	 -3.138602	 0.421439	 -0.450234
C	 0.196029	 0.106276	 0.266738
H	 -1.201873	 -0.515469	 -1.250677
H	 -1.365975	 -1.378728	 0.252664
C	 1.330220	 -0.826136	 -0.155230
H	 0.359542	 1.097229	 -0.145561
H	 0.212134	 0.218135	 1.348778
C	 2.719700	 -0.407669	 0.328325
H	 1.339388	 -0.911200	 -1.239363
H	 1.119001	 -1.821953	 0.224128
C	 3.241564	 0.893452	 -0.276737
H	 3.418299	 -1.204729	 0.093035
H	 2.711776	 -0.323368	 1.411960
H	 3.254204	 0.841071	 -1.360784
H	 2.634460	 1.745075	 0.005842
H	 4.254264	 1.092401	 0.054971

	symmetry c1
}
set optking {
	frozen_dihedral = ("
		2 3 4 8
	")
}

ee = optimize('scf')
oeprop('DIPOLE', 'QUADRUPOLE', 'MULLIKEN_CHARGES')
f=open( 'psi4out.xyz', 'w' )
f.write( "21  " )
f.write( str(ee) + "\n" )
f.write( MOL.save_string_xyz() )
f.close()
--------------------------------------------------------------------------

    Molecular point group: c1
  Charge       = 0
  Multiplicity = 1
  Basis Set: CC-PVTZ
  Basis Set:
  @DF-RHF Final Energy:  -310.32779022902923
    Total Energy =                       -310.3277902290292332
    Molecular point group: c1
  Basis Set: CC-PVTZ
  Basis Set:
  Basis Set: CC-PVTZ
  Basis Set:
  @DF-RHF Final Energy:  -310.32857195970053
    Total Energy =                       -310.3285719597006391
  Basis Set: CC-PVTZ
  Basis Set:
  Basis Set: CC-PVTZ
  Basis Set:
  @DF-RHF Final Energy:  -310.32915494994035
    Total Energy =                       -310.3291549499400048
  Basis Set: CC-PVTZ
  Basis Set:
  Basis Set: CC-PVTZ
  Basis Set:
  @DF-RHF Final Energy:  -310.32918319755629
    Total Energy =                       -310.3291831975564605
  Basis Set: CC-PVTZ
  Basis Set:
  Basis Set: CC-PVTZ
  Basis Set:
  @DF-RHF Final Energy:  -310.32918432391483
    Total Energy =                       -310.3291843239145464
  Basis Set: CC-PVTZ
  Basis Set:
  Basis Set: CC-PVTZ
  Basis Set:
  @DF-RHF Final Energy:  -310.32918575838130
    Total Energy =                       -310.3291857583809588
  Basis Set: CC-PVTZ
  Basis Set:
  Charge       = 0
  Multiplicity = 1
  Basis Set: CC-PVTZ
  Basis Set:

    Orbital Energies (a.u.)
    -----------------------

    Doubly Occupied:

       1A    -20.546010     2A    -11.266481     3A    -11.210844
       4A    -11.208135     5A    -11.205878     6A    -11.202692
       7A    -11.200438     8A     -1.364022     9A     -1.080764
      10A     -1.029134    11A     -0.953419    12A     -0.876156
      13A     -0.800922    14A     -0.773197    15A     -0.702461
      16A     -0.651885    17A     -0.621328    18A     -0.602800
      19A     -0.587043    20A     -0.563015    21A     -0.537710
      22A     -0.520954    23A     -0.499279    24A     -0.494126
      25A     -0.479863    26A     -0.457286    27A     -0.448204
      28A     -0.438803    29A     -0.430093

  @DF-RHF Final Energy:  -310.32918648747324

   => Energetics <=

    Nuclear Repulsion Energy =            318.3807627063860650
    One-Electron Energy =               -1051.9140157724334586
    Two-Electron Energy =                 423.2040665785740430
    DFT Exchange-Correlation Energy =       0.0000000000000000
    Empirical Dispersion Energy =           0.0000000000000000
    PCM Polarization Energy =               0.0000000000000000
    EFP Energy =                            0.0000000000000000
    Total Energy =                       -310.3291864874732937
    Molecular point group: c1
  Basis Set: CC-PVTZ
  Basis Set:

  -Total Gradient:
     Atom            X                  Y                   Z
    ------   -----------------  -----------------  -----------------
       1        0.000009408649    -0.000038681694    -0.000001669474
       2        0.001561224388    -0.000362292605     0.004616866731
       3       -0.002879146443    -0.000698034088    -0.005941660575
       4        0.004853955997     0.006299401799     0.000618609115
       5        0.000003775014    -0.000030727098    -0.000010616101
       6       -0.000004024613    -0.000031226069     0.000002177581
       7       -0.000000275322    -0.000004824514     0.000018129409
       8       -0.003547766571    -0.005157473829     0.000683291084
       9       -0.000006620079     0.000016692324     0.000010065309
      10        0.000022932599     0.000013134685    -0.000014974088
      11       -0.000006711752    -0.000015842689     0.000001715262
      12        0.000004196442     0.000008365043     0.000016750625
      13       -0.000014404761     0.000010120823     0.000007849770
      14       -0.000000090720    -0.000002595069    -0.000005952042
      15        0.000004393681     0.000001892374     0.000002129131
      16        0.000003584668    -0.000004428420    -0.000004060838
      17       -0.000005590817    -0.000000280825     0.000000672231
      18       -0.000003728990     0.000001874766     0.000002176621
      19       -0.000004384117     0.000002169792    -0.000001612491
      20        0.000005612091    -0.000004583496     0.000003729719
      21        0.000003660660    -0.000002661208    -0.000003616977

  **** Optimization is complete! (in 7 steps) ****
    Final optimized geometry and variables:
    Molecular point group: c1

    Geometry (in Angstrom), charge = 0, multiplicity = 1:

    H           -2.957092967865     2.103678101286     0.422794455392
    O           -2.219327099507     1.576030902927     0.179708995107
    C           -2.582304809010     0.219316085660     0.180592529688
    C           -1.408870474754    -0.643960012078    -0.274465947312
    H           -2.871129526724    -0.073203062413     1.187911981403
    H           -3.437255550909     0.046750083354    -0.466752243182
    C           -0.036713961518    -0.163478252204     0.185024515621
    H           -1.440019707390    -0.768785919809    -1.352872487114
    H           -1.585196761055    -1.642283766824     0.120158806199
    C            1.077799320993    -1.126943527561    -0.218424475991
    H            0.148417427450     0.820570525600    -0.221344508032
    H           -0.040760028180    -0.050927211705     1.266726470254
    C            2.472349899777    -0.729688634869     0.269039362507
    H            1.094037510002    -1.224823959195    -1.301866037686
    H            0.846831861868    -2.115246686705     0.170583721538
    C            3.025315845483     0.549540346842    -0.354579383025
    H            3.156549486393    -1.545025226343     0.053923315380
    H            2.457079211821    -0.625415425128     1.350843933040
    H            3.047222118477     0.476260226790    -1.437303322513
    H            2.431373971994     1.416956923077    -0.094356947764
    H            4.038725690256     0.734729619109    -0.016626623195

  Mulliken Charges: (a.u.)
   Center  Symbol    Alpha    Beta     Spin     Total
       1     H     0.39712  0.39712  0.00000  0.20576
       2     O     4.19473  4.19473  0.00000 -0.38946
       3     C     2.97207  2.97207  0.00000  0.05585
       4     C     3.09640  3.09640  0.00000 -0.19279
       5     H     0.47317  0.47317  0.00000  0.05367
       6     H     0.46719  0.46719  0.00000  0.06562
       7     C     3.08724  3.08724  0.00000 -0.17449
       8     H     0.45330  0.45330  0.00000  0.09341
       9     H     0.45715  0.45715  0.00000  0.08571
      10     C     3.09542  3.09542  0.00000 -0.19084
      11     H     0.44074  0.44074  0.00000  0.11853
      12     H     0.45625  0.45625  0.00000  0.08749
      13     C     3.08941  3.08941  0.00000 -0.17883
      14     H     0.45520  0.45520  0.00000  0.08959
      15     H     0.45166  0.45166  0.00000  0.09668
      16     C     3.15221  3.15221  0.00000 -0.30442
      17     H     0.44977  0.44977  0.00000  0.10045
      18     H     0.45555  0.45555  0.00000  0.08889
      19     H     0.45570  0.45570  0.00000  0.08861
      20     H     0.45183  0.45183  0.00000  0.09635
      21     H     0.44789  0.44789  0.00000  0.10422

   Total alpha = 29.00000, Total beta = 29.00000, Total charge =  0.00000
