  ==> Input File <==

--------------------------------------------------------------------------
set {
	reference rhf
	basis cc-pvtz
}

set_num_threads( 4 )
memory 2 gb

molecule MOL {
0 1

O	 -2.374409	 1.338660	 -0.336961
C	 -2.104891	 0.204655	 -0.107126
C	 -0.881910	 -0.448129	 -0.720509
C	 -2.949910	 -0.638219	 0.818225
C	 0.127264	 0.606626	 -1.191574
H	 -1.214060	 -1.036414	 -1.566504
H	 -0.412128	 -1.114385	 -0.004776
C	 1.365769	 -0.019861	 -1.828854
H	 -0.370417	 1.262676	 -1.894524
H	 0.432717	 1.223360	 -0.349768
C	 2.433660	 0.984693	 -2.265187
H	 1.062816	 -0.616263	 -2.685885
H	 1.811374	 -0.711596	 -1.119247
C	 2.012615	 1.907100	 -3.406575
H	 3.316223	 0.431965	 -2.571589
H	 2.734346	 1.583068	 -1.409109
H	 1.701147	 1.334956	 -4.274463
H	 2.836787	 2.542584	 -3.709349
H	 1.190472	 2.553679	 -3.124978
H	 -3.440322	 -1.417144	 0.243099
H	 -3.694377	 -0.025850	 1.303346
H	 -2.331085	 -1.129829	 1.560495

	symmetry c1
}
set optking {
	frozen_dihedral = ("
		6 3 2 1
	")
}

ee = optimize('scf')
oeprop('DIPOLE', 'QUADRUPOLE', 'MULLIKEN_CHARGES')
f=open( 'psi4out.xyz', 'w' )
f.write( "22  " )
f.write( str(ee) + "\n" )
f.write( MOL.save_string_xyz() )
f.close()
--------------------------------------------------------------------------

    Molecular point group: c1
  Charge       = 0
  Multiplicity = 1
  Basis Set: CC-PVTZ
  Basis Set:
  @DF-RHF Final Energy:  -348.22357338903913
    Total Energy =                       -348.2235733890396432
    Molecular point group: c1
  Basis Set: CC-PVTZ
  Basis Set:
  Basis Set: CC-PVTZ
  Basis Set:
  @DF-RHF Final Energy:  -348.22277770519179
    Total Energy =                       -348.2227777051915609
  Basis Set: CC-PVTZ
  Basis Set:
  Basis Set: CC-PVTZ
  Basis Set:
  @DF-RHF Final Energy:  -348.22427582628109
    Total Energy =                       -348.2242758262809730
  Basis Set: CC-PVTZ
  Basis Set:
  Basis Set: CC-PVTZ
  Basis Set:
  @DF-RHF Final Energy:  -348.22471826285459
    Total Energy =                       -348.2247182628548785
  Basis Set: CC-PVTZ
  Basis Set:
  @DF-RHF Final Energy:  -348.22474331794382
    Total Energy =                       -348.2247433179434779
  Basis Set: CC-PVTZ
  Basis Set:
  @DF-RHF Final Energy:  -348.22487063155023
    Total Energy =                       -348.2248706315502886
  Basis Set: CC-PVTZ
  Basis Set:
  Basis Set: CC-PVTZ
  Basis Set:
  @DF-RHF Final Energy:  -348.22488856556970
    Total Energy =                       -348.2248885655703816
  Basis Set: CC-PVTZ
  Basis Set:
  Basis Set: CC-PVTZ
  Basis Set:
  @DF-RHF Final Energy:  -348.22489117393889
    Total Energy =                       -348.2248911739387722
  Basis Set: CC-PVTZ
  Basis Set:
  Charge       = 0
  Multiplicity = 1
  Basis Set: CC-PVTZ
  Basis Set:

    Orbital Energies (a.u.)
    -----------------------

    Doubly Occupied:

       1A    -20.538270     2A    -11.320758     3A    -11.230169
       4A    -11.226990     5A    -11.216044     6A    -11.215386
       7A    -11.214649     8A    -11.205610     9A     -1.398677
      10A     -1.092184    11A     -1.044023    12A     -1.001956
      13A     -0.935785    14A     -0.854993    15A     -0.782183
      16A     -0.732072    17A     -0.660156    18A     -0.648618
      19A     -0.631249    20A     -0.616781    21A     -0.600285
      22A     -0.581072    23A     -0.562362    24A     -0.547156
      25A     -0.526006    26A     -0.511445    27A     -0.499797
      28A     -0.486636    29A     -0.466377    30A     -0.462369
      31A     -0.458104    32A     -0.401036

  @DF-RHF Final Energy:  -348.22489162233705

   => Energetics <=

    Nuclear Repulsion Energy =            373.0267999303363240
    One-Electron Energy =               -1211.1649929893480930
    Two-Electron Energy =                 489.9133014366747148
    DFT Exchange-Correlation Energy =       0.0000000000000000
    Empirical Dispersion Energy =           0.0000000000000000
    PCM Polarization Energy =               0.0000000000000000
    EFP Energy =                            0.0000000000000000
    Total Energy =                       -348.2248916223370543
    Molecular point group: c1
  Basis Set: CC-PVTZ
  Basis Set:

  -Total Gradient:
     Atom            X                  Y                   Z
    ------   -----------------  -----------------  -----------------
       1       -0.000600022929    -0.000357022986    -0.000855691364
       2        0.000854505423     0.000665024249     0.001104199301
       3       -0.000358963626    -0.001146203793     0.000393683465
       4       -0.000009174172     0.000006463335    -0.000015065498
       5       -0.000006939032    -0.000006490648     0.000012375721
       6        0.000100557608     0.000847588017    -0.000631157633
       7       -0.000000307552    -0.000000485497     0.000004349241
       8       -0.000010194185    -0.000007975331    -0.000027483752
       9        0.000005940987    -0.000005302470     0.000002517590
      10       -0.000009198979    -0.000003679291     0.000006791056
      11        0.000012808105     0.000005552149     0.000018871695
      12        0.000005371304    -0.000017383311    -0.000001163793
      13       -0.000010312089     0.000009228927    -0.000002961707
      14        0.000003411130    -0.000002782380    -0.000011859754
      15       -0.000000002267     0.000015597346    -0.000006620593
      16        0.000012673480    -0.000000644770     0.000002356907
      17        0.000000267886     0.000002310625    -0.000003630794
      18       -0.000005352403     0.000001508941    -0.000000651877
      19        0.000007678036    -0.000004291140     0.000000956280
      20        0.000003920106     0.000003812404     0.000001667553
      21       -0.000001194741    -0.000005143030     0.000003768223
      22        0.000004527910     0.000000318652     0.000004749737

  **** Optimization is complete! (in 9 steps) ****
    Final optimized geometry and variables:
    Molecular point group: c1

    Geometry (in Angstrom), charge = 0, multiplicity = 1:

    O           -2.138179522738     0.844793689083     0.842430485007
    C           -1.813121214556    -0.277761017290     1.053040271720
    C           -0.578347071609    -0.892079403127     0.423306350418
    C           -2.631764748131    -1.182506766191     1.944093282951
    C            0.450627987899     0.124781585022    -0.055718832246
    H           -0.933500873334    -1.484823775859    -0.418361830390
    H           -0.136857086149    -1.597673976717     1.120372808724
    C            1.648879749995    -0.537792306387    -0.732457728317
    H           -0.034739267668     0.817743132615    -0.728470383271
    H            0.791168279545     0.712596571977     0.791635354141
    C            2.750742659962     0.431826399301    -1.163288063004
    H            1.308367834009    -1.098830198438    -1.600267350221
    H            2.080059408455    -1.267055982404    -0.051415911342
    C            2.346588121796     1.404185043918    -2.268727218958
    H            3.603209237921    -0.147947765620    -1.503601376588
    H            3.092419008172     0.992291404878    -0.297189979877
    H            1.994910034619     0.871238477851    -3.146441482869
    H            3.190577589325     2.013865927670    -2.570266520415
    H            1.557903493809     2.074870855109    -1.950887651068
    H           -2.810016803917    -2.136842293410     1.461367548261
    H           -3.570420615927    -0.709840694070     2.189300653069
    H           -2.079367714417    -1.381511437377     2.856752296558

  Mulliken Charges: (a.u.)
   Center  Symbol    Alpha    Beta     Spin     Total
       1     O     4.17232  4.17232  0.00000 -0.34464
       2     C     2.86092  2.86092  0.00000  0.27816
       3     C     3.11246  3.11246  0.00000 -0.22491
       4     C     3.15244  3.15244  0.00000 -0.30489
       5     C     3.08862  3.08862  0.00000 -0.17724
       6     H     0.44421  0.44421  0.00000  0.11158
       7     H     0.44446  0.44446  0.00000  0.11107
       8     C     3.09614  3.09614  0.00000 -0.19228
       9     H     0.43901  0.43901  0.00000  0.12199
      10     H     0.45054  0.45054  0.00000  0.09891
      11     C     3.09014  3.09014  0.00000 -0.18029
      12     H     0.45443  0.45443  0.00000  0.09114
      13     H     0.45086  0.45086  0.00000  0.09828
      14     C     3.15260  3.15260  0.00000 -0.30520
      15     H     0.44858  0.44858  0.00000  0.10284
      16     H     0.45418  0.45418  0.00000  0.09165
      17     H     0.45549  0.45549  0.00000  0.08901
      18     H     0.44667  0.44667  0.00000  0.10666
      19     H     0.45065  0.45065  0.00000  0.09871
      20     H     0.45056  0.45056  0.00000  0.09887
      21     H     0.43585  0.43585  0.00000  0.12830
      22     H     0.44886  0.44886  0.00000  0.10229

   Total alpha = 32.00000, Total beta = 32.00000, Total charge =  0.00000
