                              Psi4 1.0.54 Driver

  ==> Input File <==

--------------------------------------------------------------------------
set {
	reference rhf
	basis cc-pvtz
}

set_num_threads( 4 )
memory 2 gb

molecule MOL {
0 1

H	 2.073819	 0.543990	 -3.163919
O	 2.353779	 -0.137814	 -3.745809
C	 2.661080	 -1.299319	 -3.020726
C	 1.434778	 -2.016838	 -2.476633
H	 3.183783	 -1.948363	 -3.710293
H	 3.349679	 -1.069429	 -2.209904
C	 0.662077	 -1.226941	 -1.422667
H	 0.778379	 -2.257431	 -3.307543
H	 1.762595	 -2.961512	 -2.049403
C	 -0.542529	 -1.991837	 -0.876137
H	 0.329401	 -0.287402	 -1.851148
H	 1.329072	 -0.976750	 -0.599376
C	 -1.311023	 -1.277304	 0.237018
H	 -1.222724	 -2.217802	 -1.693756
H	 -0.199194	 -2.949900	 -0.495737
C	 -2.041121	 -0.006551	 -0.194127
H	 -2.039038	 -1.971161	 0.648217
H	 -0.627806	 -1.041249	 1.049820
C	 -3.489218	 0.042606	 0.286507
H	 -2.022185	 0.066287	 -1.279394
H	 -1.518764	 0.869305	 0.178730
C	 -4.219984	 1.311773	 -0.139038
H	 -4.022855	 -0.824300	 -0.093339
H	 -3.510372	 -0.038577	 1.370031
H	 -4.244251	 1.405725	 -1.219696
H	 -5.244345	 1.313233	 0.215630
H	 -3.732090	 2.196311	 0.257073

	symmetry c1
}
set optking {
	frozen_dihedral = ("
		10 13 16 20
	")
}

ee,wfn = optimize('scf', return_wfn=True)
oeprop( wfn, 'DIPOLE', 'QUADRUPOLE', 'MULLIKEN_CHARGES')
f=open( 'psi4out.xyz', 'w' )
f.write( "27  " )
f.write( str(ee) + "\n" )
f.write( MOL.save_string_xyz() )
f.close()
--------------------------------------------------------------------------

    Molecular point group: c1
  Charge       = 0
  Multiplicity = 1
  Basis Set: CC-PVTZ
  Basis Set:
  @DF-RHF Final Energy:  -388.42335850845694
    Total Energy =                       -388.4233585084571132
    Molecular point group: c1
  Basis Set: CC-PVTZ
  Basis Set:
  Basis Set: CC-PVTZ
  Basis Set:
  @DF-RHF Final Energy:  -388.42362859185585
    Total Energy =                       -388.4236285918560725
  Basis Set: CC-PVTZ
  Basis Set:
  Basis Set: CC-PVTZ
  Basis Set:
  @DF-RHF Final Energy:  -388.42370211082260
    Total Energy =                       -388.4237021108227736
  Basis Set: CC-PVTZ
  Basis Set:
  Basis Set: CC-PVTZ
  Basis Set:
  @DF-RHF Final Energy:  -388.42368353416362
    Total Energy =                       -388.4236835341637288
  Basis Set: CC-PVTZ
  Basis Set:
  Basis Set: CC-PVTZ
  Basis Set:
  @DF-RHF Final Energy:  -388.42370717955993
    Total Energy =                       -388.4237071795602105
  Basis Set: CC-PVTZ
  Basis Set:
  Charge       = 0
  Multiplicity = 1
  Basis Set: CC-PVTZ
  Basis Set:

    Orbital Energies (a.u.)
    -----------------------

    Doubly Occupied:

       1A    -20.545260     2A    -11.264936     3A    -11.216623
       4A    -11.214810     5A    -11.214310     6A    -11.213216
       7A    -11.212859     8A    -11.211935     9A    -11.206953
      10A     -1.363121    11A     -1.095384    12A     -1.061887
      13A     -1.012230    14A     -0.948251    15A     -0.888661
      16A     -0.821787    17A     -0.803296    18A     -0.776977
      19A     -0.696169    20A     -0.654911    21A     -0.629453
      22A     -0.617137    23A     -0.605288    24A     -0.587285
      25A     -0.578206    26A     -0.555416    27A     -0.538419
      28A     -0.532047    29A     -0.506258    30A     -0.495181
      31A     -0.483916    32A     -0.477399    33A     -0.470451
      34A     -0.454166    35A     -0.452917    36A     -0.443684
      37A     -0.425096

  @DF-RHF Final Energy:  -388.42370747130542

   => Energetics <=

    Nuclear Repulsion Energy =            460.6350418530029174
    One-Electron Energy =               -1439.5657107881529555
    Two-Electron Energy =                 590.5069614638441635
    DFT Exchange-Correlation Energy =       0.0000000000000000
    Empirical Dispersion Energy =           0.0000000000000000
    PCM Polarization Energy =               0.0000000000000000
    EFP Energy =                            0.0000000000000000
    Total Energy =                       -388.4237074713058746
    Molecular point group: c1
  Basis Set: CC-PVTZ
  Basis Set:

  -Total Gradient:
     Atom            X                  Y                   Z
    ------   -----------------  -----------------  -----------------
       1       -0.000004616229     0.000024948027     0.000002613940
       2       -0.000010274996     0.000027546194    -0.000049986515
       3       -0.000001801105    -0.000000392758     0.000036381785
       4       -0.000006154592    -0.000003303666    -0.000034912310
       5        0.000007163482    -0.000018612458    -0.000004211048
       6        0.000013844709    -0.000016862040     0.000019550047
       7       -0.000007473343     0.000015372665     0.000014607901
       8       -0.000009175613    -0.000010164327    -0.000022888072
       9        0.000002593455    -0.000015296717     0.000003322885
      10       -0.001744379485    -0.001263711761    -0.000404653598
      11       -0.000013810063     0.000002510219    -0.000009906806
      12       -0.000001226409     0.000004339169     0.000035406761
      13        0.003095495136     0.002107850150     0.000587761779
      14        0.000000142697     0.000008455626     0.000018930911
      15        0.000014517144    -0.000015159359    -0.000012261561
      16       -0.003898837671    -0.002465858011    -0.000276528126
      17       -0.000003233731    -0.000012287029    -0.000003163263
      18        0.000002248005     0.000000947353    -0.000005157314
      19        0.000048574039     0.000024634681    -0.000004648084
      20        0.002562428355     0.001568572645     0.000088881691
      21       -0.000018272058     0.000025797562     0.000019621218
      22       -0.000030377456     0.000001059545     0.000004047293
      23        0.000014923280    -0.000011920425     0.000003245906
      24        0.000001433342     0.000012909333     0.000001217552
      25        0.000003662930    -0.000002453557    -0.000003410786
      26       -0.000018724301     0.000014223196    -0.000007309655
      27        0.000001330475    -0.000003144256     0.000003447474

  **** Optimization is complete! (in 6 steps) ****
    Final optimized geometry and variables:
    Molecular point group: c1

    Geometry (in Angstrom), charge = 0, multiplicity = 1:

    H            2.538263152854     1.291815334482    -1.779340793343
    O            2.799072084383     0.636426037741    -2.399121208305
    C            3.105263188898    -0.562977279384    -1.738092305878
    C            1.880384724305    -1.290911453652    -1.204962149576
    H            3.605811658439    -1.183711636578    -2.468948128545
    H            3.812471711181    -0.381637029848    -0.931018999004
    C            1.135311034796    -0.540963580264    -0.103328324219
    H            1.206998824759    -1.486827953526    -2.033970676086
    H            2.204425326074    -2.257428215602    -0.826289448252
    C           -0.057275801770    -1.320179768166     0.448285308547
    H            0.792888661991     0.416058080307    -0.484947295661
    H            1.822247888106    -0.322534067183     0.712444437934
    C           -0.830990287586    -0.591217570491     1.547639532268
    H           -0.737757636971    -1.560348620796    -0.364871044085
    H            0.298167840971    -2.269734664107     0.838877337387
    C           -1.584813901482     0.668788715146     1.078471083562
    H           -1.547206874261    -1.291454559933     1.966512887977
    H           -0.154905343200    -0.339486756585     2.359130239192
    C           -3.023955919419     0.742700739300     1.580319869813
    H           -1.575326196218     0.723684408932    -0.006485500360
    H           -1.055640666712     1.557925868120     1.410055062367
    C           -3.750570479845     2.008352324366     1.139294287077
    H           -3.569246699694    -0.128736700878     1.227980585710
    H           -3.026998592190     0.683919140436     2.665535651162
    H           -3.789103493212     2.080312978215     0.057325301876
    H           -4.769835487505     2.025296994441     1.507908182357
    H           -3.250103842691     2.896651027574     1.510369207817

  Mulliken Charges: (a.u.)
   Center  Symbol    Alpha    Beta     Spin     Total
       1     H     0.39209  0.39209  0.00000  0.21581
       2     O     4.20577  4.20577  0.00000 -0.41154
       3     C     2.97984  2.97984  0.00000  0.04032
       4     C     3.08974  3.08974  0.00000 -0.17948
       5     H     0.44864  0.44864  0.00000  0.10273
       6     H     0.46960  0.46960  0.00000  0.06079
       7     C     3.10191  3.10191  0.00000 -0.20382
       8     H     0.45082  0.45082  0.00000  0.09836
       9     H     0.45503  0.45503  0.00000  0.08994
      10     C     3.09799  3.09799  0.00000 -0.19598
      11     H     0.45491  0.45491  0.00000  0.09017
      12     H     0.45345  0.45345  0.00000  0.09309
      13     C     3.10266  3.10266  0.00000 -0.20533
      14     H     0.45207  0.45207  0.00000  0.09587
      15     H     0.44813  0.44813  0.00000  0.10375
      16     C     3.09527  3.09527  0.00000 -0.19054
      17     H     0.44825  0.44825  0.00000  0.10349
      18     H     0.44996  0.44996  0.00000  0.10008
      19     C     3.08289  3.08289  0.00000 -0.16578
      20     H     0.45264  0.45264  0.00000  0.09471
      21     H     0.45139  0.45139  0.00000  0.09722
      22     C     3.15030  3.15030  0.00000 -0.30061
      23     H     0.45456  0.45456  0.00000  0.09087
      24     H     0.45342  0.45342  0.00000  0.09316
      25     H     0.45488  0.45488  0.00000  0.09025
      26     H     0.44839  0.44839  0.00000  0.10321
      27     H     0.45538  0.45538  0.00000  0.08924

   Total alpha = 37.00000, Total beta = 37.00000, Total charge = -0.00000

*** Psi4 exiting successfully. Buy a developer a beer!
