  ==> Input File <==

--------------------------------------------------------------------------
set {
	reference rhf
	basis cc-pvtz
}

set_num_threads( 4 )
memory 2 gb

molecule MOL {
0 1

O	 -0.988175	 -1.402891	 0.050086
C	 -0.675048	 -0.248293	 -0.009686
C	 -1.742492	 0.826599	 -0.011538
N	 0.622280	 0.144970	 -0.099307
H	 -1.692153	 1.431066	 -0.908439
H	 -2.698310	 0.331559	 0.031353
H	 -1.642148	 1.483784	 0.843455
C	 1.577338	 -0.736090	 -0.737700
C	 1.195947	 1.216316	 0.679716
H	 2.278057	 -0.149028	 -1.318711
H	 1.060726	 -1.419675	 -1.386548
H	 2.138457	 -1.308719	 -0.003620
H	 1.971986	 1.700797	 0.101202
H	 0.462684	 1.963554	 0.930429
H	 1.645509	 0.852736	 1.600991

	symmetry c1
}
set optking {
	frozen_dihedral = ("
		8 4 2 3
	")
}

ee = optimize('scf')
oeprop('DIPOLE', 'QUADRUPOLE', 'MULLIKEN_CHARGES')
f=open( 'psi4out.xyz', 'w' )
f.write( "15  " )
f.write( str(ee) + "\n" )
f.write( MOL.save_string_xyz() )
f.close()
--------------------------------------------------------------------------

    Molecular point group: c1
  Charge       = 0
  Multiplicity = 1
  Basis Set: CC-PVTZ
  Basis Set:
  @DF-RHF Final Energy:  -286.12450383399266
    Total Energy =                       -286.1245038339927760
    Molecular point group: c1
  Basis Set: CC-PVTZ
  Basis Set:
  Basis Set: CC-PVTZ
  Basis Set:
  @DF-RHF Final Energy:  -286.12636940592273
    Total Energy =                       -286.1263694059227873
  Basis Set: CC-PVTZ
  Basis Set:
  Basis Set: CC-PVTZ
  Basis Set:
  @DF-RHF Final Energy:  -286.12800360627955
    Total Energy =                       -286.1280036062794352
  Basis Set: CC-PVTZ
  Basis Set:
  Basis Set: CC-PVTZ
  Basis Set:
  @DF-RHF Final Energy:  -286.12890079172905
    Total Energy =                       -286.1289007917290519
  Basis Set: CC-PVTZ
  Basis Set:
  @DF-RHF Final Energy:  -286.12967718536061
    Total Energy =                       -286.1296771853607197
  @DF-RHF Final Energy:  -286.13042378212265
    Total Energy =                       -286.1304237821228753
  @DF-RHF Final Energy:  -286.13142644695688
    Total Energy =                       -286.1314264469571071
  @DF-RHF Final Energy:  -286.13197586810139
    Total Energy =                       -286.1319758681011649
  @DF-RHF Final Energy:  -286.13212249195908
    Total Energy =                       -286.1321224919588531
  @DF-RHF Final Energy:  -286.13215326239646
    Total Energy =                       -286.1321532623966277
  Basis Set: CC-PVTZ
  Basis Set:
  @DF-RHF Final Energy:  -286.13219844895320
    Total Energy =                       -286.1321984489534316
  Basis Set: CC-PVTZ
  Basis Set:
  Basis Set: CC-PVTZ
  Basis Set:
  @DF-RHF Final Energy:  -286.13221295606041
    Total Energy =                       -286.1322129560602434
  Basis Set: CC-PVTZ
  Basis Set:
  Basis Set: CC-PVTZ
  Basis Set:
  @DF-RHF Final Energy:  -286.13221895625725
    Total Energy =                       -286.1322189562574749
  Basis Set: CC-PVTZ
  Basis Set:
  Charge       = 0
  Multiplicity = 1
  Basis Set: CC-PVTZ
  Basis Set:

    Orbital Energies (a.u.)
    -----------------------

    Doubly Occupied:

       1A    -20.508602     2A    -15.576184     3A    -11.336850
       4A    -11.262072     5A    -11.247929     6A    -11.227984
       7A     -1.391035     8A     -1.245578     9A     -1.015053
      10A     -0.970776    11A     -0.919501    12A     -0.738374
      13A     -0.684037    14A     -0.662193    15A     -0.653048
      16A     -0.590197    17A     -0.577215    18A     -0.570948
      19A     -0.561690    20A     -0.550331    21A     -0.529247
      22A     -0.507099    23A     -0.416838    24A     -0.372108

  @DF-RHF Final Energy:  -286.13221960793953

   => Energetics <=

    Nuclear Repulsion Energy =            253.1486105103751072
    One-Electron Energy =                -890.3318894361293587
    Two-Electron Energy =                 351.0510593178146337
    DFT Exchange-Correlation Energy =       0.0000000000000000
    Empirical Dispersion Energy =           0.0000000000000000
    PCM Polarization Energy =               0.0000000000000000
    EFP Energy =                            0.0000000000000000
    Total Energy =                       -286.1322196079396463
    Molecular point group: c1
  Basis Set: CC-PVTZ
  Basis Set:

  -Total Gradient:
     Atom            X                  Y                   Z
    ------   -----------------  -----------------  -----------------
       1        0.000029025675    -0.000037961963     0.000123477927
       2       -0.001425808703    -0.000240765808     0.006186081887
       3        0.001054749680     0.001572364637    -0.005455725298
       4        0.000001741943    -0.005586148766     0.003333507322
       5        0.000013173317     0.000009813527    -0.000022998766
       6        0.000008174927     0.000005994323     0.000001003342
       7       -0.000000802838     0.000014593467    -0.000018814352
       8        0.000364941933     0.004301406765    -0.004244771224
       9       -0.000039159028    -0.000018557371     0.000101997667
      10        0.000001917121     0.000006356196     0.000014373949
      11        0.000001932079    -0.000006761813    -0.000007863188
      12        0.000000660952    -0.000008949931    -0.000010858435
      13       -0.000001917845     0.000001577290     0.000002288938
      14        0.000002253402     0.000000496567     0.000004048948
      15       -0.000010882618    -0.000013457125    -0.000005748717

  **** Optimization is complete! (in 14 steps) ****
    Final optimized geometry and variables:
    Molecular point group: c1

    Geometry (in Angstrom), charge = 0, multiplicity = 1:

    O           -1.085814285471    -1.249786521082    -0.495888566593
    C           -0.690853461779    -0.210144383334    -0.058066704921
    C           -1.641650240089     0.958539166492     0.097253979111
    N            0.627035236079    -0.012693721375     0.251631412862
    H           -1.294913520467     1.808598714305    -0.477198996006
    H           -2.605885652299     0.643723455728    -0.265656308067
    H           -1.737884596446     1.271067714435     1.129446657831
    C            1.613194689289    -0.798172411447    -0.465971538431
    C            1.118835637715     1.266320040993     0.711835873326
    H            1.959759903863    -0.268916239335    -1.350846641356
    H            1.181876115113    -1.736735814040    -0.763952315345
    H            2.466431208046    -0.989029867941     0.172501672814
    H            1.300572520622     1.964222759404    -0.103714134851
    H            0.437136747880     1.722672076338     1.410724001392
    H            2.056225659387     1.110625154877     1.228491808684

  Mulliken Charges: (a.u.)
   Center  Symbol    Alpha    Beta     Spin     Total
       1     O     4.21343  4.21343  0.00000 -0.42686
       2     C     2.84174  2.84174  0.00000  0.31653
       3     C     3.16045  3.16045  0.00000 -0.32090
       4     N     3.56992  3.56992  0.00000 -0.13983
       5     H     0.44970  0.44970  0.00000  0.10060
       6     H     0.42868  0.42868  0.00000  0.14265
       7     H     0.44710  0.44710  0.00000  0.10581
       8     C     3.09878  3.09878  0.00000 -0.19756
       9     C     3.10159  3.10159  0.00000 -0.20319
      10     H     0.46039  0.46039  0.00000  0.07923
      11     H     0.42669  0.42669  0.00000  0.14662
      12     H     0.45480  0.45480  0.00000  0.09040
      13     H     0.45733  0.45733  0.00000  0.08534
      14     H     0.44504  0.44504  0.00000  0.10992
      15     H     0.44438  0.44438  0.00000  0.11125

   Total alpha = 24.00000, Total beta = 24.00000, Total charge =  0.00000
