  ==> Input File <==

--------------------------------------------------------------------------
set {
	reference rhf
	basis 6-31G*
}

set_num_threads( 4 )
memory 2 gb

molecule MOL {
0 1

H	 0.206393	 3.477604	 -0.379281
C	 0.488641	 2.978713	 0.556168
C	 -0.599573	 2.150026	 1.189948
O	 1.583478	 3.112934	 0.997831
C	 -1.220012	 1.144545	 0.209990
H	 -0.188511	 1.654894	 2.062061
H	 -1.370272	 2.840560	 1.530302
C	 -0.252658	 0.041456	 -0.226725
H	 -2.089247	 0.696089	 0.681797
H	 -1.591059	 1.675237	 -0.665480
C	 1.180775	 0.282413	 0.250794
H	 -0.266029	 -0.034465	 -1.312038
H	 -0.597733	 -0.921000	 0.146291
C	 2.148627	 -0.814315	 -0.201312
H	 1.516199	 1.249228	 -0.115937
H	 1.192670	 0.346017	 1.338083
C	 3.580890	 -0.659131	 0.322722
H	 2.166869	 -0.852443	 -1.289387
H	 1.762857	 -1.776509	 0.128956
C	 4.324889	 0.564933	 -0.213704
H	 4.142010	 -1.551473	 0.056605
H	 3.564836	 -0.624694	 1.410140
H	 4.342616	 0.565491	 -1.300421
H	 3.866655	 1.493402	 0.110242
H	 5.353900	 0.572371	 0.132816

	symmetry c1
}
set optking {
	frozen_dihedral = ("
		3 5 8 12
	")
}

ee = optimize('scf')
oeprop('DIPOLE', 'QUADRUPOLE', 'MULLIKEN_CHARGES')
f=open( 'psi4out.xyz', 'w' )
f.write( "25  " )
f.write( str(ee) + "\n" )
f.write( MOL.save_string_xyz() )
f.close()
--------------------------------------------------------------------------

    Molecular point group: c1
  Charge       = 0
  Multiplicity = 1
  Basis Set: 6-31G*
  Basis Set:
  @DF-RHF Final Energy:  -387.09838488826085
    Total Energy =                       -387.0983848882607390
    Molecular point group: c1
  Basis Set: 6-31G*
  Basis Set:
  Basis Set: 6-31G*
  Basis Set:
  @DF-RHF Final Energy:  -387.10706135956258
    Total Energy =                       -387.1070613595622945
  Basis Set: 6-31G*
  Basis Set:
  Basis Set: 6-31G*
  Basis Set:
  @DF-RHF Final Energy:  -387.10980020192466
    Total Energy =                       -387.1098002019250544
  Basis Set: 6-31G*
  Basis Set:
  Basis Set: 6-31G*
  Basis Set:
  @DF-RHF Final Energy:  -387.11049293513594
    Total Energy =                       -387.1104929351359942
  Basis Set: 6-31G*
  Basis Set:
  @DF-RHF Final Energy:  -387.11056871606178
    Total Energy =                       -387.1105687160614934
  @DF-RHF Final Energy:  -387.11141483186969
    Total Energy =                       -387.1114148318696380
  @DF-RHF Final Energy:  -387.11152975020264
    Total Energy =                       -387.1115297502028625
  @DF-RHF Final Energy:  -387.11160045297800
    Total Energy =                       -387.1116004529785641
  @DF-RHF Final Energy:  -387.11162545684113
    Total Energy =                       -387.1116254568412387
  @DF-RHF Final Energy:  -387.11161453961790
    Total Energy =                       -387.1116145396183583
  Basis Set: 6-31G*
  Basis Set:
  @DF-RHF Final Energy:  -387.11164681645482
    Total Energy =                       -387.1116468164555044
  Basis Set: 6-31G*
  Basis Set:
  Basis Set: 6-31G*
  Basis Set:
  @DF-RHF Final Energy:  -387.11165357038868
    Total Energy =                       -387.1116535703881709
  Basis Set: 6-31G*
  Basis Set:
  Basis Set: 6-31G*
  Basis Set:
  @DF-RHF Final Energy:  -387.11165636421271
    Total Energy =                       -387.1116563642131041
  Basis Set: 6-31G*
  Basis Set:
  Charge       = 0
  Multiplicity = 1
  Basis Set: 6-31G*
  Basis Set:

    Orbital Energies (a.u.)
    -----------------------

    Doubly Occupied:

       1A    -20.561067     2A    -11.326807     3A    -11.235720
       4A    -11.235127     5A    -11.224297     6A    -11.217112
       7A    -11.215405     8A    -11.214235     9A    -11.204899
      10A     -1.401827    11A     -1.099788    12A     -1.065431
      13A     -1.008435    14A     -0.942930    15A     -0.880772
      16A     -0.815099    17A     -0.787333    18A     -0.774971
      19A     -0.661219    20A     -0.658780    21A     -0.629640
      22A     -0.627409    23A     -0.605137    24A     -0.594007
      25A     -0.564186    26A     -0.548710    27A     -0.537977
      28A     -0.527286    29A     -0.509115    30A     -0.500248
      31A     -0.476454    32A     -0.471273    33A     -0.459446
      34A     -0.453335    35A     -0.441910    36A     -0.408807

  @DF-RHF Final Energy:  -387.11165649466335

   => Energetics <=

    Nuclear Repulsion Energy =            456.1581631785080049
    One-Electron Energy =               -1428.7672513954955775
    Two-Electron Energy =                 585.4974317223243361
    DFT Exchange-Correlation Energy =       0.0000000000000000
    Empirical Dispersion Energy =           0.0000000000000000
    PCM Polarization Energy =               0.0000000000000000
    EFP Energy =                            0.0000000000000000
    Total Energy =                       -387.1116564946632934
    Molecular point group: c1
  Basis Set: 6-31G*
  Basis Set:

  -Total Gradient:
     Atom            X                  Y                   Z
    ------   -----------------  -----------------  -----------------
       1        0.000004533598     0.000001164567    -0.000009149072
       2       -0.000004577239     0.000030900156    -0.000006224870
       3        0.000366340711     0.000700369828    -0.000938057434
       4       -0.000010879178    -0.000021783410    -0.000002314743
       5       -0.000268438174    -0.000791181389     0.001340455818
       6        0.000001590768    -0.000017456110     0.000025276232
       7        0.000007777076    -0.000005622838    -0.000011806572
       8       -0.001238456891    -0.001050332021    -0.000339703920
       9        0.000010612334    -0.000002179658     0.000000187238
      10       -0.000004915900     0.000009511908     0.000004506802
      11       -0.000034700000    -0.000022800878     0.000007911068
      12        0.001151473795     0.001134854744    -0.000072609497
      13       -0.000003153901     0.000006611823     0.000009213272
      14       -0.000002410879    -0.000000206590     0.000009401965
      15        0.000014728397     0.000029077878    -0.000011871051
      16       -0.000005150938     0.000007008942     0.000015236574
      17        0.000000302988    -0.000018708154    -0.000007212612
      18       -0.000002242481     0.000009557633    -0.000000675684
      19        0.000018660390    -0.000008986777    -0.000007188704
      20        0.000008184304     0.000013879522     0.000000981189
      21       -0.000013323267    -0.000014732913     0.000007033840
      22        0.000003700201     0.000004421104     0.000000775383
      23        0.000014987411     0.000003103673    -0.000006445856
      24       -0.000009359240     0.000000358233    -0.000010663644
      25       -0.000005283889     0.000003170726     0.000002944278

  **** Optimization is complete! (in 14 steps) ****
    Final optimized geometry and variables:
    Molecular point group: c1

    Geometry (in Angstrom), charge = 0, multiplicity = 1:

    H           -1.317204257087     2.551091398062    -0.725014736712
    C           -1.047876145111     2.216644495407     0.284817081280
    C           -1.956323267763     1.166769079174     0.874712997994
    O           -0.118969131931     2.700344177234     0.846103614356
    C           -2.407305174136     0.084314211653    -0.119206825186
    H           -1.486211193201     0.760475703661     1.761195482614
    H           -2.845816050623     1.703243003683     1.205781050140
    C           -1.373804679369    -0.996728866820    -0.546056676495
    H           -3.269383588733    -0.412250100021     0.312092091638
    H           -2.782688189197     0.588729648568    -1.006557938055
    C            0.078515226524    -0.809595776216    -0.089922733432
    H           -1.372527241616    -1.060998947443    -1.630641953451
    H           -1.716632843734    -1.963714339088    -0.189745035405
    C            0.976840909697    -1.950294770723    -0.577431840952
    H            0.465392397838     0.135136208612    -0.457008545060
    H            0.129211605295    -0.761063986419     0.994835204798
    C            2.425278063571    -1.875126542497    -0.080932917003
    H            0.972232926187    -1.972853216657    -1.666207778028
    H            0.548803820822    -2.896711422425    -0.252883290160
    C            3.214435100389    -0.672482848347    -0.601873825417
    H            2.937538397772    -2.786366245154    -0.380100680568
    H            2.431745293835    -1.867048344648     1.007028730401
    H            3.211737940372    -0.645113421323    -1.688497066967
    H            2.807316879950     0.267234423241    -0.244617164415
    H            4.249082377588    -0.722480360004    -0.276944701812

  Mulliken Charges: (a.u.)
   Center  Symbol    Alpha    Beta     Spin     Total
       1     H     0.43218  0.43218  0.00000  0.13564
       2     C     2.82858  2.82858  0.00000  0.34284
       3     C     3.21132  3.21132  0.00000 -0.42265
       4     O     4.24155  4.24155  0.00000 -0.48309
       5     C     3.16953  3.16953  0.00000 -0.33905
       6     H     0.39758  0.39758  0.00000  0.20485
       7     H     0.40395  0.40395  0.00000  0.19210
       8     C     3.15527  3.15527  0.00000 -0.31053
       9     H     0.41095  0.41095  0.00000  0.17809
      10     H     0.41835  0.41835  0.00000  0.16331
      11     C     3.16377  3.16377  0.00000 -0.32755
      12     H     0.41872  0.41872  0.00000  0.16256
      13     H     0.41812  0.41812  0.00000  0.16375
      14     C     3.15246  3.15246  0.00000 -0.30492
      15     H     0.41566  0.41566  0.00000  0.16867
      16     H     0.41923  0.41923  0.00000  0.16154
      17     C     3.15218  3.15218  0.00000 -0.30435
      18     H     0.42436  0.42436  0.00000  0.15127
      19     H     0.42270  0.42270  0.00000  0.15461
      20     C     3.24353  3.24353  0.00000 -0.48706
      21     H     0.42133  0.42133  0.00000  0.15734
      22     H     0.42234  0.42234  0.00000  0.15531
      23     H     0.42359  0.42359  0.00000  0.15283
      24     H     0.41383  0.41383  0.00000  0.17234
      25     H     0.41892  0.41892  0.00000  0.16216

   Total alpha = 36.00000, Total beta = 36.00000, Total charge = -0.00000
