  ==> Input File <==

--------------------------------------------------------------------------
set {
	reference rhf
	basis 6-31G*
}

set_num_threads( 1 )
memory 2 gb

molecule MOL {
0 1

H	 -3.261111	 -0.295142	 1.469456
C	 -3.306842	 -0.277400	 0.373456
C	 -2.660244	 0.921717	 -0.272021
O	 -3.838538	 -1.161155	 -0.216482
C	 -2.364133	 2.043219	 0.733368
H	 -1.760516	 0.593497	 -0.779436
H	 -3.353338	 1.291242	 -1.026824
C	 -1.293015	 1.673235	 1.762503
H	 -2.046502	 2.923667	 0.182727
H	 -3.284097	 2.321940	 1.244971
C	 -1.000064	 2.804013	 2.750600
H	 -0.377837	 1.400217	 1.241200
H	 -1.601157	 0.786639	 2.313444
C	 0.082983	 2.436379	 3.768344
H	 -0.702969	 3.689471	 2.194335
H	 -1.915333	 3.066902	 3.279331
C	 0.352598	 3.508243	 4.830647
H	 1.009618	 2.211164	 3.242682
H	 -0.210399	 1.517698	 4.271996
C	 0.953415	 4.805418	 4.286610
H	 1.032212	 3.093871	 5.571166
H	 -0.571665	 3.731749	 5.359517
H	 1.871355	 4.610389	 3.738323
H	 0.271576	 5.320136	 3.617928
H	 1.191806	 5.488493	 5.096284

	symmetry c1
}
set optking {
	frozen_dihedral = ("
		6 3 5 8,
		3 5 8 12,
		12 8 11 14,
		8 11 14 18,
		20 17 14 18
	")
}

ee = energy('scf')
oeprop('DIPOLE', 'QUADRUPOLE', 'MULLIKEN_CHARGES')
f=open( 'psi4out.xyz', 'w' )
f.write( "25  " )
f.write( str(ee) + "\n" )
f.write( MOL.save_string_xyz() )
f.close()
--------------------------------------------------------------------------

    Molecular point group: c1

    Geometry (in Angstrom), charge = 0, multiplicity = 1:

       Center              X                  Y                   Z               Mass
    ------------   -----------------  -----------------  -----------------  -----------------
           H         -1.809064717381    -2.156551161884    -0.533957224773     1.007825032070
           C         -1.854795717381    -2.138809161884    -1.629957224773    12.000000000000
           C         -1.208197717381    -0.939692161884    -2.275434224773    12.000000000000
           O         -2.386491717381    -3.022564161884    -2.219895224773    15.994914619560
           C         -0.912086717381     0.181809838116    -1.270045224773    12.000000000000
           H         -0.308469717381    -1.267912161884    -2.782849224773     1.007825032070
           H         -1.901291717381    -0.570167161884    -3.030237224773     1.007825032070
           C          0.159031282619    -0.188174161884    -0.240910224773    12.000000000000
           H         -0.594455717381     1.062257838116    -1.820686224773     1.007825032070
           H         -1.832050717381     0.460530838116    -0.758442224773     1.007825032070
           C          0.451982282619     0.942603838116     0.747186775227    12.000000000000
           H          1.074209282619    -0.461192161884    -0.762213224773     1.007825032070
           H         -0.149110717381    -1.074770161884     0.310030775227     1.007825032070
           C          1.535029282619     0.574969838116     1.764930775227    12.000000000000
           H          0.749077282619     1.828061838116     0.190921775227     1.007825032070
           H         -0.463286717381     1.205492838116     1.275917775227     1.007825032070
           C          1.804644282619     1.646833838116     2.827233775227    12.000000000000
           H          2.461664282619     0.349754838116     1.239268775227     1.007825032070
           H          1.241647282619    -0.343711161884     2.268582775227     1.007825032070
           C          2.405461282619     2.944008838116     2.283196775227    12.000000000000
           H          2.484258282619     1.232461838116     3.567752775227     1.007825032070
           H          0.880381282619     1.870339838116     3.356103775227     1.007825032070
           H          3.323401282619     2.748979838116     1.734909775227     1.007825032070
           H          1.723622282619     3.458726838116     1.614514775227     1.007825032070
           H          2.643852282619     3.627083838116     3.092870775227     1.007825032070

  Charge       = 0
  Multiplicity = 1
  Basis Set: 6-31G*
  Basis Set:

    Orbital Energies (a.u.)
    -----------------------

    Doubly Occupied:

       1A    -20.560694     2A    -11.325834     3A    -11.235183
       4A    -11.233667     5A    -11.227669     6A    -11.222453
       7A    -11.220227     8A    -11.219614     9A    -11.212410
      10A     -1.401137    11A     -1.106574    12A     -1.071635
      13A     -1.014706    14A     -0.943044    15A     -0.875780
      16A     -0.827174    17A     -0.786402    18A     -0.784496
      19A     -0.665032    20A     -0.660563    21A     -0.634422
      22A     -0.623434    23A     -0.613562    24A     -0.597229
      25A     -0.564728    26A     -0.557095    27A     -0.543480
      28A     -0.522640    29A     -0.505439    30A     -0.503962
      31A     -0.489901    32A     -0.480950    33A     -0.467371
      34A     -0.461777    35A     -0.443533    36A     -0.406987

  @DF-RHF Final Energy:  -387.11902312454168

   => Energetics <=

    Nuclear Repulsion Energy =            436.8898096823306219
    One-Electron Energy =               -1389.9957800214694998
    Two-Electron Energy =                 565.9869472145977625
    DFT Exchange-Correlation Energy =       0.0000000000000000
    Empirical Dispersion Energy =           0.0000000000000000
    PCM Polarization Energy =               0.0000000000000000
    EFP Energy =                            0.0000000000000000
    Total Energy =                       -387.1190231245410587

  Mulliken Charges: (a.u.)
   Center  Symbol    Alpha    Beta     Spin     Total
       1     H     0.42998  0.42998  0.00000  0.14004
       2     C     2.83332  2.83332  0.00000  0.33336
       3     C     3.20724  3.20724  0.00000 -0.41449
       4     O     4.24189  4.24189  0.00000 -0.48377
       5     C     3.16902  3.16902  0.00000 -0.33804
       6     H     0.39914  0.39914  0.00000  0.20172
       7     H     0.39754  0.39754  0.00000  0.20491
       8     C     3.15790  3.15790  0.00000 -0.31580
       9     H     0.41277  0.41277  0.00000  0.17447
      10     H     0.41776  0.41776  0.00000  0.16449
      11     C     3.15346  3.15346  0.00000 -0.30692
      12     H     0.41996  0.41996  0.00000  0.16008
      13     H     0.42149  0.42149  0.00000  0.15702
      14     C     3.15310  3.15310  0.00000 -0.30620
      15     H     0.42000  0.42000  0.00000  0.16000
      16     H     0.42280  0.42280  0.00000  0.15440
      17     C     3.15281  3.15281  0.00000 -0.30563
      18     H     0.42336  0.42336  0.00000  0.15327
      19     H     0.42165  0.42165  0.00000  0.15671
      20     C     3.24147  3.24147  0.00000 -0.48293
      21     H     0.41992  0.41992  0.00000  0.16017
      22     H     0.42283  0.42283  0.00000  0.15433
      23     H     0.42194  0.42194  0.00000  0.15612
      24     H     0.42037  0.42037  0.00000  0.15927
      25     H     0.41827  0.41827  0.00000  0.16345

   Total alpha = 36.00000, Total beta = 36.00000, Total charge =  0.00000
