  ==> Input File <==

--------------------------------------------------------------------------
set {
	reference rhf
	basis cc-pvtz
}

set_num_threads( 4 )
memory 2 gb

molecule MOL {
0 1

H	 -2.816458	 -0.841657	 -0.064679
N	 -1.878861	 -0.711874	 0.250184
C	 -1.341419	 0.551458	 -0.220231
H	 -1.333674	 -1.468530	 -0.105118
C	 0.082190	 0.731516	 0.254705
H	 -1.357065	 0.652078	 -1.304747
H	 -1.939897	 1.357530	 0.189797
O	 0.206689	 0.170853	 1.526658
H	 0.767194	 0.244034	 -0.437612
H	 0.325774	 1.791053	 0.285971
C	 1.458221	 0.331720	 2.107183
H	 1.437234	 -0.140606	 3.078705
H	 2.237311	 -0.135595	 1.508576
H	 1.705929	 1.382997	 2.233757

	symmetry c1
}
set optking {
	frozen_dihedral = ("
		8 5 3 6
	")
}

ee = optimize('scf')
oeprop('DIPOLE', 'QUADRUPOLE', 'MULLIKEN_CHARGES')
f=open( 'psi4out.xyz', 'w' )
f.write( "14  " )
f.write( str(ee) + "\n" )
f.write( MOL.save_string_xyz() )
f.close()
--------------------------------------------------------------------------

    Molecular point group: c1
  Charge       = 0
  Multiplicity = 1
  Basis Set: CC-PVTZ
  Basis Set:
  @DF-RHF Final Energy:  -248.21533341335964
    Total Energy =                       -248.2153334133597582
    Molecular point group: c1
  Basis Set: CC-PVTZ
  Basis Set:
  Basis Set: CC-PVTZ
  Basis Set:
  @DF-RHF Final Energy:  -248.21658683919657
    Total Energy =                       -248.2165868391965091
  Basis Set: CC-PVTZ
  Basis Set:
  Basis Set: CC-PVTZ
  Basis Set:
  @DF-RHF Final Energy:  -248.21712254991644
    Total Energy =                       -248.2171225499165530
  Basis Set: CC-PVTZ
  Basis Set:
  Basis Set: CC-PVTZ
  Basis Set:
  @DF-RHF Final Energy:  -248.21719331552998
    Total Energy =                       -248.2171933155298120
  Basis Set: CC-PVTZ
  Basis Set:
  @DF-RHF Final Energy:  -248.21725012015568
    Total Energy =                       -248.2172501201560522
  Basis Set: CC-PVTZ
  Basis Set:
  @DF-RHF Final Energy:  -248.21727043389200
    Total Energy =                       -248.2172704338918834
  Basis Set: CC-PVTZ
  Basis Set:
  Basis Set: CC-PVTZ
  Basis Set:
  @DF-RHF Final Energy:  -248.21727813017748
    Total Energy =                       -248.2172781301776467
  Basis Set: CC-PVTZ
  Basis Set:
  Basis Set: CC-PVTZ
  Basis Set:
  @DF-RHF Final Energy:  -248.21728106625392
    Total Energy =                       -248.2172810662539746
  Basis Set: CC-PVTZ
  Basis Set:
  Charge       = 0
  Multiplicity = 1
  Basis Set: CC-PVTZ
  Basis Set:

    Orbital Energies (a.u.)
    -----------------------

    Doubly Occupied:

       1A    -20.548886     2A    -15.520842     3A    -11.269278
       4A    -11.263062     5A    -11.241762     6A     -1.385126
       7A     -1.172628     8A     -0.999194     9A     -0.909235
      10A     -0.817520    11A     -0.685467    12A     -0.671537
      13A     -0.653239    14A     -0.608218    15A     -0.590807
      16A     -0.574892    17A     -0.517266    18A     -0.499577
      19A     -0.471283    20A     -0.417551    21A     -0.377331

  @DF-RHF Final Energy:  -248.21728293512362

   => Energetics <=

    Nuclear Repulsion Energy =            194.7312104820934167
    One-Electron Energy =                -723.5075831559747712
    Two-Electron Energy =                 280.5590897387579616
    DFT Exchange-Correlation Energy =       0.0000000000000000
    Empirical Dispersion Energy =           0.0000000000000000
    PCM Polarization Energy =               0.0000000000000000
    EFP Energy =                            0.0000000000000000
    Total Energy =                       -248.2172829351234213
    Molecular point group: c1
  Basis Set: CC-PVTZ
  Basis Set:

  -Total Gradient:
     Atom            X                  Y                   Z
    ------   -----------------  -----------------  -----------------
       1       -0.000012687680     0.000002366985    -0.000006703960
       2        0.000019724930     0.000028496224     0.000062124938
       3       -0.000540037107     0.005142043467    -0.000021550501
       4        0.000007226739    -0.000009920334    -0.000025627168
       5       -0.001206168139     0.004113934415     0.002205875403
       6        0.000746971559    -0.005352124736    -0.000488689983
       7       -0.000005953452    -0.000004943204    -0.000006263477
       8        0.001007666197    -0.003918559650    -0.001727490480
       9       -0.000002847848     0.000002096348     0.000010809034
      10       -0.000015880616    -0.000009152421     0.000001483829
      11        0.000000070543     0.000006802757    -0.000005762814
      12        0.000001950990    -0.000000854548     0.000001795082
      13       -0.000000969784    -0.000000279265    -0.000000047621
      14        0.000000933672     0.000000093963     0.000000047718

  **** Optimization is complete! (in 9 steps) ****
    Final optimized geometry and variables:
    Molecular point group: c1

    Geometry (in Angstrom), charge = 0, multiplicity = 1:

    H           -2.405001063436    -1.156059924425    -1.201294113696
    N           -1.659637650197    -0.900993320872    -0.590664444587
    C           -1.075584976704     0.371700537516    -0.984183828742
    H           -0.985081920016    -1.635172664183    -0.599723726017
    C            0.359022487027     0.522515571633    -0.495920732742
    H           -1.039617666021     0.472305379223    -2.068237090043
    H           -1.689465193023     1.171755600060    -0.588369553602
    O            0.516471925149    -0.017239070576     0.774669406055
    H            1.029195378673     0.007243971348    -1.186294989448
    H            0.634448340925     1.575568138213    -0.508916845979
    C            1.798929990133     0.108995554932     1.290626297159
    H            1.809351720955    -0.353115112580     2.266934703581
    H            2.533781010570    -0.388122786958     0.659937097856
    H            2.087627574449     1.152841331356     1.394382796269

  Mulliken Charges: (a.u.)
   Center  Symbol    Alpha    Beta     Spin     Total
       1     H     0.43222  0.43222  0.00000  0.13555
       2     N     3.68046  3.68046  0.00000 -0.36092
       3     C     3.02257  3.02257  0.00000 -0.04514
       4     H     0.42967  0.42967  0.00000  0.14066
       5     C     2.97536  2.97536  0.00000  0.04928
       6     H     0.47009  0.47009  0.00000  0.05982
       7     H     0.45970  0.45970  0.00000  0.08061
       8     O     4.16707  4.16707  0.00000 -0.33414
       9     H     0.47460  0.47460  0.00000  0.05081
      10     H     0.46645  0.46645  0.00000  0.06710
      11     C     3.03129  3.03129  0.00000 -0.06258
      12     H     0.44541  0.44541  0.00000  0.10918
      13     H     0.47362  0.47362  0.00000  0.05277
      14     H     0.47151  0.47151  0.00000  0.05699

   Total alpha = 21.00000, Total beta = 21.00000, Total charge = -0.00000
