  ==> Input File <==

--------------------------------------------------------------------------
set {
	reference rhf
	basis 6-31G*
}

set_num_threads( 4 )
memory 2 gb

molecule MOL {
0 1

H	 1.136379	 0.211822	 1.465562
C	 1.135357	 0.094285	 0.374742
C	 0.065331	 0.871482	 -0.349150
O	 1.941633	 -0.601957	 -0.151457
C	 0.644936	 1.815299	 -1.412516
H	 -0.519814	 1.413142	 0.385100
H	 -0.589070	 0.146521	 -0.831179
C	 1.470432	 2.958437	 -0.820727
H	 -0.175454	 2.224380	 -1.993570
H	 1.254536	 1.243844	 -2.109271
H	 0.870182	 3.563120	 -0.147983
H	 1.849171	 3.606809	 -1.603982
H	 2.322539	 2.590124	 -0.257123

	symmetry c1
}
set optking {
	frozen_dihedral = ("
		6 3 2 4
	")
}

ee = optimize('scf')
oeprop('DIPOLE', 'QUADRUPOLE', 'MULLIKEN_CHARGES')
f=open( 'psi4out.xyz', 'w' )
f.write( "13  " )
f.write( str(ee) + "\n" )
f.write( MOL.save_string_xyz() )
f.close()
--------------------------------------------------------------------------

    Molecular point group: c1
  Charge       = 0
  Multiplicity = 1
  Basis Set: 6-31G*
  Basis Set:
  @DF-RHF Final Energy:  -230.98291972470881
    Total Energy =                       -230.9829197247087507
    Molecular point group: c1
  Basis Set: 6-31G*
  Basis Set:
  Basis Set: 6-31G*
  Basis Set:
  @DF-RHF Final Energy:  -230.98277889573737
    Total Energy =                       -230.9827788957372832
  Basis Set: 6-31G*
  Basis Set:
  Basis Set: 6-31G*
  Basis Set:
  @DF-RHF Final Energy:  -230.98275706932787
    Total Energy =                       -230.9827570693277607
  Basis Set: 6-31G*
  Basis Set:
  Basis Set: 6-31G*
  Basis Set:
  @DF-RHF Final Energy:  -230.98332076165789
    Total Energy =                       -230.9833207616578079
  Basis Set: 6-31G*
  Basis Set:
  Basis Set: 6-31G*
  Basis Set:
  @DF-RHF Final Energy:  -230.98331944692237
    Total Energy =                       -230.9833194469223372
  Basis Set: 6-31G*
  Basis Set:
  Basis Set: 6-31G*
  Basis Set:
  @DF-RHF Final Energy:  -230.98332315367495
    Total Energy =                       -230.9833231536748599
  Basis Set: 6-31G*
  Basis Set:
  Basis Set: 6-31G*
  Basis Set:
  @DF-RHF Final Energy:  -230.98331273675629
    Total Energy =                       -230.9833127367563748
  Basis Set: 6-31G*
  Basis Set:
  Charge       = 0
  Multiplicity = 1
  Basis Set: 6-31G*
  Basis Set:

    Orbital Energies (a.u.)
    -----------------------

    Doubly Occupied:

       1A    -20.563326     2A    -11.328155     3A    -11.235647
       4A    -11.231080     5A    -11.218604     6A     -1.403744
       7A     -1.079987     8A     -0.971083     9A     -0.853006
      10A     -0.770133    11A     -0.685613    12A     -0.638318
      13A     -0.622397    14A     -0.593143    15A     -0.558255
      16A     -0.530861    17A     -0.502213    18A     -0.487341
      19A     -0.478354    20A     -0.410526

  @DF-RHF Final Energy:  -230.98332429428982

   => Energetics <=

    Nuclear Repulsion Energy =            175.2168004385269171
    One-Electron Energy =                -660.0766787505074262
    Two-Electron Energy =                 253.8765540176907507
    DFT Exchange-Correlation Energy =       0.0000000000000000
    Empirical Dispersion Energy =           0.0000000000000000
    PCM Polarization Energy =               0.0000000000000000
    EFP Energy =                            0.0000000000000000
    Total Energy =                       -230.9833242942897868
    Molecular point group: c1
  Basis Set: 6-31G*
  Basis Set:

  -Total Gradient:
     Atom            X                  Y                   Z
    ------   -----------------  -----------------  -----------------
       1       -0.000010268699     0.000013432006    -0.000027246057
       2        0.001105931916     0.001345178591    -0.000074993689
       3        0.000671431147     0.000861432692    -0.000051985884
       4       -0.000919952838    -0.001131186875     0.000083653000
       5        0.000014917663     0.000020307856    -0.000015832271
       6       -0.000867544993    -0.001115041114     0.000084549398
       7        0.000010937913     0.000006298451    -0.000003901342
       8       -0.000000844774    -0.000003778177     0.000004777806
       9        0.000001731837     0.000000940429    -0.000003921537
      10       -0.000008802638    -0.000000758368     0.000007739937
      11        0.000005460648    -0.000001483264    -0.000000845825
      12       -0.000000827390     0.000000590381    -0.000002763859
      13       -0.000002169792     0.000004067395     0.000000770323

  **** Optimization is complete! (in 8 steps) ****
    Final optimized geometry and variables:
    Molecular point group: c1

    Geometry (in Angstrom), charge = 0, multiplicity = 1:

    H            0.059096640154    -0.879936006643     1.956434872329
    C            0.065031784694    -0.942967724527     0.863403146677
    C           -1.001995642138    -0.160809923434     0.125730364684
    O            0.870462029133    -1.621765881814     0.311850955850
    C           -0.423343881598     0.780353389169    -0.939151170887
    H           -1.617688629350     0.381220029708     0.837511715629
    H           -1.645148885132    -0.894688100291    -0.354283741082
    C            0.402992171509     1.926171285499    -0.354434352006
    H           -1.245523580102     1.187218213865    -1.520197124628
    H            0.185917669128     0.195958335908    -1.619363287106
    H           -0.188796346845     2.530789905198     0.327361421223
    H            0.768591990582     2.577777496310    -1.141154911255
    H            1.267279519355     1.556627286515     0.189448024601

  Mulliken Charges: (a.u.)
   Center  Symbol    Alpha    Beta     Spin     Total
       1     H     0.42571  0.42571  0.00000  0.14858
       2     C     2.84527  2.84527  0.00000  0.30945
       3     C     3.20272  3.20272  0.00000 -0.40543
       4     O     4.23706  4.23706  0.00000 -0.47413
       5     C     3.15614  3.15614  0.00000 -0.31227
       6     H     0.41656  0.41656  0.00000  0.16687
       7     H     0.39934  0.39934  0.00000  0.20132
       8     C     3.24543  3.24543  0.00000 -0.49086
       9     H     0.41602  0.41602  0.00000  0.16796
      10     H     0.40379  0.40379  0.00000  0.19243
      11     H     0.42172  0.42172  0.00000  0.15657
      12     H     0.41419  0.41419  0.00000  0.17162
      13     H     0.41606  0.41606  0.00000  0.16789

   Total alpha = 20.00000, Total beta = 20.00000, Total charge =  0.00000
