  ==> Input File <==

--------------------------------------------------------------------------
set {
	reference rhf
	basis 6-31G*
}

set_num_threads( 4 )
memory 2 gb

molecule MOL {
0 1

H	 -2.798360	 -0.862255	 -0.071053
N	 -1.863561	 -0.715187	 0.256814
C	 -1.344686	 0.554728	 -0.219830
H	 -1.300452	 -1.461917	 -0.101532
C	 -0.652496	 0.362795	 -1.552935
H	 -2.108370	 1.324880	 -0.336690
H	 -0.617412	 0.923410	 0.497056
O	 -1.610380	 -0.036813	 -2.490943
H	 -0.182727	 1.293346	 -1.870785
H	 0.121339	 -0.395675	 -1.457344
C	 -1.093576	 -0.332736	 -3.749083
H	 -1.919860	 -0.625214	 -4.382651
H	 -0.601331	 0.531980	 -4.190604
H	 -0.377781	 -1.150829	 -3.702492

	symmetry c1
}
set optking {
	frozen_dihedral = ("
		6 3 2 4
	")
}

ee = optimize('scf')
oeprop('DIPOLE', 'QUADRUPOLE', 'MULLIKEN_CHARGES')
f=open( 'psi4out.xyz', 'w' )
f.write( "14  " )
f.write( str(ee) + "\n" )
f.write( MOL.save_string_xyz() )
f.close()
--------------------------------------------------------------------------

    Molecular point group: c1
  Charge       = 0
  Multiplicity = 1
  Basis Set: 6-31G*
  Basis Set:
  @DF-RHF Final Energy:  -248.11980456242779
    Total Energy =                       -248.1198045624277029
    Molecular point group: c1
  Basis Set: 6-31G*
  Basis Set:
  Basis Set: 6-31G*
  Basis Set:
  @DF-RHF Final Energy:  -248.12197835427708
    Total Energy =                       -248.1219783542770756
  Basis Set: 6-31G*
  Basis Set:
  Basis Set: 6-31G*
  Basis Set:
  @DF-RHF Final Energy:  -248.12228052822289
    Total Energy =                       -248.1222805282230865
  Basis Set: 6-31G*
  Basis Set:
  Basis Set: 6-31G*
  Basis Set:
  @DF-RHF Final Energy:  -248.12228894146068
    Total Energy =                       -248.1222889414607380
  Basis Set: 6-31G*
  Basis Set:
  Charge       = 0
  Multiplicity = 1
  Basis Set: 6-31G*
  Basis Set:

    Orbital Energies (a.u.)
    -----------------------

    Doubly Occupied:

       1A    -20.561539     2A    -15.530074     3A    -11.271008
       4A    -11.270464     5A    -11.241957     6A     -1.386138
       7A     -1.174659     8A     -1.001356     9A     -0.910762
      10A     -0.823989    11A     -0.686705    12A     -0.667785
      13A     -0.648186    14A     -0.635280    15A     -0.581432
      16A     -0.545905    17A     -0.534323    18A     -0.506204
      19A     -0.475315    20A     -0.422234    21A     -0.382137

  @DF-RHF Final Energy:  -248.12228931786484

   => Energetics <=

    Nuclear Repulsion Energy =            194.2475019397334677
    One-Electron Energy =                -722.2246827509337663
    Two-Electron Energy =                 279.8548914933352876
    DFT Exchange-Correlation Energy =       0.0000000000000000
    Empirical Dispersion Energy =           0.0000000000000000
    PCM Polarization Energy =               0.0000000000000000
    EFP Energy =                            0.0000000000000000
    Total Energy =                       -248.1222893178649542
    Molecular point group: c1
  Basis Set: 6-31G*
  Basis Set:

  -Total Gradient:
     Atom            X                  Y                   Z
    ------   -----------------  -----------------  -----------------
       1       -0.000018654699    -0.000017951400     0.000001672947
       2        0.002842042478     0.000187784335     0.003199231080
       3        0.000147719969     0.001399065145     0.003435040895
       4       -0.002360827438    -0.000306017341    -0.003240579775
       5        0.000030494666    -0.000065500148     0.000036512338
       6       -0.000607567744    -0.001240629452    -0.003394559824
       7       -0.000005200952    -0.000001569501     0.000018517211
       8       -0.000006869115     0.000015986195    -0.000055348604
       9       -0.000013037564     0.000005251503    -0.000009961599
      10        0.000011676993     0.000015132879     0.000010156594
      11       -0.000023050208     0.000016462917    -0.000000768275
      12        0.000001916021    -0.000004300638    -0.000005602295
      13        0.000001674969    -0.000002101142    -0.000004836491
      14       -0.000000317374    -0.000001613353     0.000010525805

  **** Optimization is complete! (in 5 steps) ****
    Final optimized geometry and variables:
    Molecular point group: c1

    Geometry (in Angstrom), charge = 0, multiplicity = 1:

    H           -1.513226899809    -0.743258075635     1.518392958540
    N           -0.596486169883    -0.620065170324     1.902109043618
    C           -0.006069355360     0.590213393574     1.347444629050
    H           -0.082776448708    -1.428011120223     1.603198574681
    C            0.674727118544     0.404583920717     0.000574060774
    H           -0.793208431217     1.323633952699     1.214064620095
    H            0.716710041578     0.998653720773     2.047625635444
    O           -0.274888911773    -0.030925994594    -0.925832209596
    H            1.120664377430     1.344845528727    -0.324778081019
    H            1.481806452360    -0.326262213496     0.082089361044
    C            0.227262534169    -0.249623973087    -2.205732168626
    H           -0.592893377702    -0.581994948785    -2.827274480551
    H            0.644671130089     0.661077799638    -2.631001363906
    H            1.001157947541    -1.015115314744    -2.204610046962

  Mulliken Charges: (a.u.)
   Center  Symbol    Alpha    Beta     Spin     Total
       1     H     0.32801  0.32801  0.00000  0.34398
       2     N     3.91790  3.91790  0.00000 -0.83581
       3     C     3.06664  3.06664  0.00000 -0.13329
       4     H     0.33448  0.33448  0.00000  0.33104
       5     C     3.00162  3.00162  0.00000 -0.00324
       6     H     0.41433  0.41433  0.00000  0.17134
       7     H     0.41843  0.41843  0.00000  0.16314
       8     O     4.30549  4.30549  0.00000 -0.61098
       9     H     0.42996  0.42996  0.00000  0.14007
      10     H     0.43394  0.43394  0.00000  0.13213
      11     C     3.07952  3.07952  0.00000 -0.15904
      12     H     0.41142  0.41142  0.00000  0.17716
      13     H     0.42865  0.42865  0.00000  0.14269
      14     H     0.42959  0.42959  0.00000  0.14082

   Total alpha = 21.00000, Total beta = 21.00000, Total charge =  0.00000
