  ==> Input File <==

--------------------------------------------------------------------------
set {
	reference rhf
	basis 6-31G*
}

set_num_threads( 1 )
memory 2 gb

molecule MOL {
0 1

H	 -2.600262	 -0.467763	 0.131143
N	 -1.852125	 0.165761	 -0.074816
C	 -0.563778	 -0.502042	 0.037919
H	 -1.917844	 0.916302	 0.586338
C	 0.575259	 0.508231	 -0.048326
H	 -0.482092	 -1.204004	 -0.786564
H	 -0.460411	 -1.085169	 0.956626
C	 1.954651	 -0.143624	 0.035137
H	 0.475158	 1.060484	 -0.977307
H	 0.469181	 1.234488	 0.755973
H	 2.103292	 -0.853109	 -0.774172
H	 2.742821	 0.599562	 -0.030094
H	 2.083613	 -0.679371	 0.971560

	symmetry c1
}
set optking {
	frozen_dihedral = ("
		6 3 5 9
	")
}

ee = energy('scf')
oeprop('DIPOLE', 'QUADRUPOLE', 'MULLIKEN_CHARGES')
f=open( 'psi4out.xyz', 'w' )
f.write( "13  " )
f.write( str(ee) + "\n" )
f.write( MOL.save_string_xyz() )
f.close()
--------------------------------------------------------------------------

    Molecular point group: c1

    Geometry (in Angstrom), charge = 0, multiplicity = 1:

       Center              X                  Y                   Z               Mass
    ------------   -----------------  -----------------  -----------------  -----------------
           H         -2.601793683929    -0.470972876654     0.129634181257     1.007825032070
           N         -1.853656683929     0.162551123346    -0.076324818743    14.003074004780
           C         -0.565309683929    -0.505251876654     0.036410181257    12.000000000000
           H         -1.919375683929     0.913092123346     0.584829181257     1.007825032070
           C          0.573727316071     0.505021123346    -0.049834818743    12.000000000000
           H         -0.483623683929    -1.207213876654    -0.788072818743     1.007825032070
           H         -0.461942683929    -1.088378876654     0.955117181257     1.007825032070
           C          1.953119316071    -0.146833876654     0.033628181257    12.000000000000
           H          0.473626316071     1.057274123346    -0.978815818743     1.007825032070
           H          0.467649316071     1.231278123346     0.754464181257     1.007825032070
           H          2.101760316071    -0.856318876654    -0.775680818743     1.007825032070
           H          2.741289316071     0.596352123346    -0.031602818743     1.007825032070
           H          2.082081316071    -0.682580876654     0.970051181257     1.007825032070

  Charge       = 0
  Multiplicity = 1
  Basis Set: 6-31G*
  Basis Set:

    Orbital Energies (a.u.)
    -----------------------

    Doubly Occupied:

       1A    -15.532207     2A    -11.239852     3A    -11.214657
       4A    -11.210593     5A     -1.176957     6A     -1.036137
       7A     -0.898963     8A     -0.802415     9A     -0.655473
      10A     -0.636176    11A     -0.603183    12A     -0.563132
      13A     -0.535627    14A     -0.493613    15A     -0.476271
      16A     -0.469877    17A     -0.381212

  @DF-RHF Final Energy:  -173.28192819858418

   => Energetics <=

    Nuclear Repulsion Energy =            131.8545483593793506
    One-Electron Energy =                -494.4202648360794683
    Two-Electron Energy =                 189.2837882781162193
    DFT Exchange-Correlation Energy =       0.0000000000000000
    Empirical Dispersion Energy =           0.0000000000000000
    PCM Polarization Energy =               0.0000000000000000
    EFP Energy =                            0.0000000000000000
    Total Energy =                       -173.2819281985838984

  Mulliken Charges: (a.u.)
   Center  Symbol    Alpha    Beta     Spin     Total
       1     H     0.33274  0.33274  0.00000  0.33451
       2     N     3.92255  3.92255  0.00000 -0.84510
       3     C     3.05541  3.05541  0.00000 -0.11082
       4     H     0.33559  0.33559  0.00000  0.32882
       5     C     3.15610  3.15610  0.00000 -0.31220
       6     H     0.42038  0.42038  0.00000  0.15924
       7     H     0.43545  0.43545  0.00000  0.12909
       8     C     3.24319  3.24319  0.00000 -0.48639
       9     H     0.41208  0.41208  0.00000  0.17584
      10     H     0.42699  0.42699  0.00000  0.14601
      11     H     0.42019  0.42019  0.00000  0.15961
      12     H     0.41752  0.41752  0.00000  0.16495
      13     H     0.42179  0.42179  0.00000  0.15642

   Total alpha = 17.00000, Total beta = 17.00000, Total charge =  0.00000
