                              Psi4 1.0.54 Driver

  ==> Input File <==

--------------------------------------------------------------------------
set {
	reference rhf
	basis cc-pvtz
}

set_num_threads( 4 )
memory 2 gb

molecule MOL {
0 1

O	 -2.081319	 -0.951530	 -0.502732
N	 -1.613558	 0.006676	 0.014756
C	 -0.329345	 -0.171618	 0.743966
O	 -2.068523	 1.100482	 -0.024385
C	 0.835904	 0.041968	 -0.213982
H	 -0.346048	 -1.174374	 1.137184
H	 -0.333613	 0.555559	 1.538590
C	 0.461220	 1.001773	 -1.340283
H	 1.680520	 0.433355	 0.340993
H	 1.132395	 -0.915529	 -0.626329
C	 1.608811	 1.227478	 -2.318328
H	 0.154910	 1.953616	 -0.916483
H	 -0.398850	 0.611236	 -1.876164
H	 2.472531	 1.649364	 -1.816634
H	 1.916127	 0.296600	 -2.781727
H	 1.316768	 1.910162	 -3.106880

	symmetry c1
}
set optking {
	frozen_dihedral = ("
		9 5 3 2
	")
}

ee,wfn = optimize('scf', return_wfn=True)
oeprop( wfn, 'DIPOLE', 'QUADRUPOLE', 'MULLIKEN_CHARGES')
f=open( 'psi4out.xyz', 'w' )
f.write( "16  " )
f.write( str(ee) + "\n" )
f.write( MOL.save_string_xyz() )
f.close()
--------------------------------------------------------------------------

    Molecular point group: c1
  Charge       = 0
  Multiplicity = 1
  Basis Set: CC-PVTZ
  Basis Set:
  @DF-RHF Final Energy:  -360.90063836898304
    Total Energy =                       -360.9006383689825270
    Molecular point group: c1
  Basis Set: CC-PVTZ
  Basis Set:
  Basis Set: CC-PVTZ
  Basis Set:
  @DF-RHF Final Energy:  -360.89881004179398
    Total Energy =                       -360.8988100417940359
  Basis Set: CC-PVTZ
  Basis Set:
  Basis Set: CC-PVTZ
  Basis Set:
  @DF-RHF Final Energy:  -360.90148040718094
    Total Energy =                       -360.9014804071805997
  Basis Set: CC-PVTZ
  Basis Set:
  Basis Set: CC-PVTZ
  Basis Set:
  @DF-RHF Final Energy:  -360.90410571159885
    Total Energy =                       -360.9041057115991293
  Basis Set: CC-PVTZ
  Basis Set:
  @DF-RHF Final Energy:  -360.90455874328893
    Total Energy =                       -360.9045587432884759
  @DF-RHF Final Energy:  -360.90467087874089
    Total Energy =                       -360.9046708787406601
  @DF-RHF Final Energy:  -360.90475971640257
    Total Energy =                       -360.9047597164026797
  @DF-RHF Final Energy:  -360.90482294579658
    Total Energy =                       -360.9048229457966954
  Basis Set: CC-PVTZ
  Basis Set:
  @DF-RHF Final Energy:  -360.90483478942025
    Total Energy =                       -360.9048347894199651
  Basis Set: CC-PVTZ
  Basis Set:
  Basis Set: CC-PVTZ
  Basis Set:
  @DF-RHF Final Energy:  -360.90485385385830
    Total Energy =                       -360.9048538538581283
  Basis Set: CC-PVTZ
  Basis Set:
  Basis Set: CC-PVTZ
  Basis Set:
  @DF-RHF Final Energy:  -360.90485925374446
    Total Energy =                       -360.9048592537443483
  Basis Set: CC-PVTZ
  Basis Set:
  Charge       = 0
  Multiplicity = 1
  Basis Set: CC-PVTZ
  Basis Set:

    Orbital Energies (a.u.)
    -----------------------

    Doubly Occupied:

       1A    -20.592401     2A    -20.588200     3A    -15.836254
       4A    -11.296753     5A    -11.251206     6A    -11.232419
       7A    -11.220841     8A     -1.635817     9A     -1.419950
      10A     -1.132669    11A     -1.054351    12A     -0.947185
      13A     -0.856937    14A     -0.814065    15A     -0.751357
      16A     -0.738724    17A     -0.730181    18A     -0.672094
      19A     -0.616376    20A     -0.599343    21A     -0.573942
      22A     -0.543168    23A     -0.507299    24A     -0.495468
      25A     -0.493653    26A     -0.480704    27A     -0.472097
      28A     -0.453104

  @DF-RHF Final Energy:  -360.90485982172612

   => Energetics <=

    Nuclear Repulsion Energy =            322.3020673413388408
    One-Electron Energy =               -1130.4007337173040924
    Two-Electron Energy =                 447.1938065542391882
    DFT Exchange-Correlation Energy =       0.0000000000000000
    Empirical Dispersion Energy =           0.0000000000000000
    PCM Polarization Energy =               0.0000000000000000
    EFP Energy =                            0.0000000000000000
    Total Energy =                       -360.9048598217260064
    Molecular point group: c1
  Basis Set: CC-PVTZ
  Basis Set:

  -Total Gradient:
     Atom            X                  Y                   Z
    ------   -----------------  -----------------  -----------------
       1       -0.000003191554     0.000006160985     0.000015377885
       2       -0.000043144238     0.004415996748     0.001274595220
       3       -0.000364492625    -0.004928493152    -0.001871034644
       4       -0.000014167961     0.000001201428     0.000000333830
       5        0.002664597774    -0.005128477628     0.001134347420
       6        0.000005129025    -0.000001752814    -0.000006052266
       7        0.000027681798    -0.000002631286     0.000004594356
       8       -0.000032153796    -0.000052310268     0.000017951043
       9       -0.002245909198     0.005644624383    -0.000533092045
      10       -0.000020505769    -0.000005662863     0.000016707385
      11        0.000012499858     0.000023594121    -0.000025079007
      12       -0.000015654435     0.000002503677     0.000004987705
      13        0.000026423166     0.000016125573    -0.000025605169
      14       -0.000006071472    -0.000008091374    -0.000000734084
      15       -0.000005204387     0.000006146287    -0.000000078511
      16        0.000014163809     0.000011066181    -0.000007219120

  **** Optimization is complete! (in 12 steps) ****
    Final optimized geometry and variables:
    Molecular point group: c1

    Geometry (in Angstrom), charge = 0, multiplicity = 1:

    O           -1.501559006824    -1.269174524610    -0.106135993879
    N           -1.120135971561    -0.419554002872     0.629212264535
    C            0.260370488264    -0.563364740855     1.167370943184
    O           -1.741973978141     0.533253740555     0.956592388256
    C            1.326637608493    -0.238564794434     0.111049665856
    H            0.337423071366    -1.580743799964     1.513090595460
    H            0.305718493229     0.120336481351     1.997010178391
    C            0.929063109707     0.822962925266    -0.917991500389
    H            2.177371956008     0.152882690897     0.657150707033
    H            1.629786940762    -1.144831918627    -0.395295708274
    C            2.083544624175     1.157463164328    -1.856297079456
    H            0.604663806448     1.722484017977    -0.405605133341
    H            0.085148460024     0.475371665850    -1.501614606308
    H            2.936417741695     1.546094244492    -1.310090422564
    H            2.411365335360     0.279767242673    -2.402709671124
    H            1.786050271197     1.905509958796    -2.580748013823

  Mulliken Charges: (a.u.)
   Center  Symbol    Alpha    Beta     Spin     Total
       1     O     4.17539  4.17539  0.00000 -0.35079
       2     N     3.27712  3.27712  0.00000  0.44576
       3     C     3.04507  3.04507  0.00000 -0.09013
       4     O     4.17203  4.17203  0.00000 -0.34406
       5     C     3.09843  3.09843  0.00000 -0.19685
       6     H     0.42863  0.42863  0.00000  0.14273
       7     H     0.43289  0.43289  0.00000  0.13422
       8     C     3.09586  3.09586  0.00000 -0.19171
       9     H     0.44713  0.44713  0.00000  0.10574
      10     H     0.44166  0.44166  0.00000  0.11668
      11     C     3.15070  3.15070  0.00000 -0.30141
      12     H     0.44301  0.44301  0.00000  0.11397
      13     H     0.43975  0.43975  0.00000  0.12051
      14     H     0.45530  0.45530  0.00000  0.08940
      15     H     0.45317  0.45317  0.00000  0.09366
      16     H     0.44386  0.44386  0.00000  0.11227

   Total alpha = 28.00000, Total beta = 28.00000, Total charge =  0.00000

*** Psi4 exiting successfully. Buy a developer a beer!
