                              Psi4 1.0.54 Driver

  ==> Input File <==

--------------------------------------------------------------------------
set {
	reference rhf
	basis cc-pvtz
}

set_num_threads( 4 )
memory 2 gb

molecule MOL {
0 1

O	 1.216069	 1.304886	 0.000821
C	 1.121787	 0.124983	 0.000110
C	 -0.170912	 -0.649867	 -0.000147
O	 2.167739	 -0.685178	 -0.000678
C	 -1.413045	 0.229353	 0.001137
H	 -0.152877	 -1.303435	 -0.866175
H	 -0.152278	 -1.305116	 0.864586
C	 -1.981592	 0.430112	 1.402835
H	 -2.166187	 -0.213847	 -0.640650
H	 -1.171906	 1.190636	 -0.438558
C	 -3.228181	 1.308035	 1.415459
H	 -2.218155	 -0.536651	 1.839468
H	 -1.222430	 0.874274	 2.041294
H	 -4.018441	 0.872892	 0.813193
H	 -3.609525	 1.433037	 2.422250
H	 -3.015495	 2.294073	 1.016618
C	 3.449556	 -0.089977	 -0.000570
H	 3.585694	 0.522473	 -0.879546
H	 4.155805	 -0.904274	 -0.001389
H	 3.586173	 0.521118	 0.879272

	symmetry c1
}
set optking {
	frozen_dihedral = ("
		9 5 3 6
	")
}

ee,wfn = optimize('scf', return_wfn=True)
oeprop( wfn, 'DIPOLE', 'QUADRUPOLE', 'MULLIKEN_CHARGES')
f=open( 'psi4out.xyz', 'w' )
f.write( "20  " )
f.write( str(ee) + "\n" )
f.write( MOL.save_string_xyz() )
f.close()
--------------------------------------------------------------------------

    Molecular point group: c1
  Charge       = 0
  Multiplicity = 1
  Basis Set: CC-PVTZ
  Basis Set:
  @DF-RHF Final Energy:  -384.08033750309471
    Total Energy =                       -384.0803375030947109
    Molecular point group: c1
  Basis Set: CC-PVTZ
  Basis Set:
  Basis Set: CC-PVTZ
  Basis Set:
  @DF-RHF Final Energy:  -384.08061924935737
    Total Energy =                       -384.0806192493571416
  Basis Set: CC-PVTZ
  Basis Set:
  Basis Set: CC-PVTZ
  Basis Set:
  @DF-RHF Final Energy:  -384.08062444400747
    Total Energy =                       -384.0806244440075261
  Basis Set: CC-PVTZ
  Basis Set:
  Basis Set: CC-PVTZ
  Basis Set:
  @DF-RHF Final Energy:  -384.08059897279838
    Total Energy =                       -384.0805989727983842
  Basis Set: CC-PVTZ
  Basis Set:
  Basis Set: CC-PVTZ
  Basis Set:
  @DF-RHF Final Energy:  -384.08067420637377
    Total Energy =                       -384.0806742063734873
  Basis Set: CC-PVTZ
  Basis Set:
  Basis Set: CC-PVTZ
  Basis Set:
  @DF-RHF Final Energy:  -384.08067575886963
    Total Energy =                       -384.0806757588698019
  Basis Set: CC-PVTZ
  Basis Set:
  Basis Set: CC-PVTZ
  Basis Set:
  @DF-RHF Final Energy:  -384.08067694654591
    Total Energy =                       -384.0806769465465322
  Basis Set: CC-PVTZ
  Basis Set:
  Charge       = 0
  Multiplicity = 1
  Basis Set: CC-PVTZ
  Basis Set:

    Orbital Energies (a.u.)
    -----------------------

    Doubly Occupied:

       1A    -20.597081     2A    -20.535157     3A    -11.365758
       4A    -11.279053     5A    -11.233785     6A    -11.216502
       7A    -11.214523     8A    -11.205874     9A     -1.473229
      10A     -1.366694    11A     -1.087380    12A     -1.024006
      13A     -0.969344    14A     -0.885524    15A     -0.805626
      16A     -0.768937    17A     -0.705747    18A     -0.683952
      19A     -0.676479    20A     -0.631211    21A     -0.606524
      22A     -0.590075    23A     -0.579996    24A     -0.547651
      25A     -0.530851    26A     -0.514515    27A     -0.514349
      28A     -0.477014    29A     -0.470567    30A     -0.463258
      31A     -0.459940    32A     -0.442647

  @DF-RHF Final Energy:  -384.08067706835374

   => Energetics <=

    Nuclear Repulsion Energy =            386.5078771319908242
    One-Electron Energy =               -1289.3306166612026118
    Two-Electron Energy =                 518.7420624608579374
    DFT Exchange-Correlation Energy =       0.0000000000000000
    Empirical Dispersion Energy =           0.0000000000000000
    PCM Polarization Energy =               0.0000000000000000
    EFP Energy =                            0.0000000000000000
    Total Energy =                       -384.0806770683537934
    Molecular point group: c1
  Basis Set: CC-PVTZ
  Basis Set:

  -Total Gradient:
     Atom            X                  Y                   Z
    ------   -----------------  -----------------  -----------------
       1        0.000040970450    -0.000009156594     0.000008967761
       2       -0.000031500514    -0.000023332115    -0.000040349939
       3        0.002223302054     0.003618959711    -0.002911473684
       4        0.000000565378     0.000030268755     0.000008185382
       5       -0.001755608751    -0.002919888394     0.003769674740
       6       -0.001574433228    -0.002543094631     0.001832549394
       7        0.000005053258     0.000005276570     0.000005932534
       8       -0.000001494855    -0.000000897506    -0.000007787317
       9        0.001087205195     0.001841588579    -0.002686654960
      10        0.000004756519     0.000004431450     0.000017731177
      11       -0.000004570615    -0.000003856498     0.000001307177
      12        0.000002730999    -0.000003640003     0.000004760247
      13       -0.000001429714     0.000005153797    -0.000003383120
      14       -0.000001634569    -0.000000822016    -0.000002815655
      15        0.000002135147    -0.000004787571    -0.000001657375
      16        0.000003533493    -0.000000941596     0.000002646421
      17       -0.000010474676    -0.000003631623     0.000005923168
      18        0.000002978362     0.000001867466    -0.000002041141
      19        0.000003834757     0.000003557813    -0.000001344281
      20        0.000004081313     0.000002944405    -0.000000170529

  **** Optimization is complete! (in 8 steps) ****
    Final optimized geometry and variables:
    Molecular point group: c1

    Geometry (in Angstrom), charge = 0, multiplicity = 1:

    O            1.013075003316     1.070602376611    -0.266227720548
    C            0.941122038042    -0.107569307743    -0.356946226762
    C           -0.333497219886    -0.912741971368    -0.382545326078
    O            2.002398653301    -0.892240579978    -0.441161748649
    C           -1.615257374722    -0.079497257890    -0.331108277365
    H           -0.305290401499    -1.556662947789    -1.253207244313
    H           -0.279967321177    -1.594334209568     0.461197283574
    C           -2.157084484022     0.125391716289     1.080119164036
    H           -2.366304370712    -0.548390434317    -0.958335944436
    H           -1.418730650015     0.887265450978    -0.777832240214
    C           -3.409853750018     0.993026274657     1.113476143321
    H           -2.375078109651    -0.841473412762     1.526518095461
    H           -1.385664861861     0.582438208293     1.692414748908
    H           -4.208065277981     0.551355432311     0.525736026992
    H           -3.774558387129     1.115606150264     2.126711081828
    H           -3.210357611243     1.980170494410     0.711225052838
    C            3.272193111116    -0.272119261674    -0.416849149508
    H            3.378982598238     0.410792511797    -1.246534269683
    H            3.993901516765    -1.068859231407    -0.495431434934
    H            3.414222948986     0.269858691511     0.506359711165

  Mulliken Charges: (a.u.)
   Center  Symbol    Alpha    Beta     Spin     Total
       1     O     4.19836  4.19836  0.00000 -0.39672
       2     C     2.80102  2.80102  0.00000  0.39796
       3     C     3.11203  3.11203  0.00000 -0.22406
       4     O     4.14644  4.14644  0.00000 -0.29288
       5     C     3.09428  3.09428  0.00000 -0.18856
       6     H     0.43027  0.43027  0.00000  0.13946
       7     H     0.44080  0.44080  0.00000  0.11840
       8     C     3.08176  3.08176  0.00000 -0.16352
       9     H     0.44676  0.44676  0.00000  0.10648
      10     H     0.44277  0.44277  0.00000  0.11446
      11     C     3.15137  3.15137  0.00000 -0.30275
      12     H     0.45685  0.45685  0.00000  0.08629
      13     H     0.45000  0.45000  0.00000  0.10000
      14     H     0.45643  0.45643  0.00000  0.08714
      15     H     0.44858  0.44858  0.00000  0.10285
      16     H     0.45157  0.45157  0.00000  0.09685
      17     C     3.03653  3.03653  0.00000 -0.07307
      18     H     0.45425  0.45425  0.00000  0.09150
      19     H     0.44545  0.44545  0.00000  0.10909
      20     H     0.45447  0.45447  0.00000  0.09106

   Total alpha = 32.00000, Total beta = 32.00000, Total charge = -0.00000

*** Psi4 exiting successfully. Buy a developer a beer!
