  ==> Input File <==

--------------------------------------------------------------------------
set {
	reference rhf
	basis 6-31G*
}

set_num_threads( 1 )
memory 2 gb

molecule MOL {
0 1

H	 -2.039771	 2.363625	 -2.365635
C	 -1.119564	 2.894720	 -2.639092
C	 -0.343401	 3.463765	 -1.478761
O	 -0.800722	 2.988612	 -3.779826
C	 -0.058212	 2.417953	 -0.391931
H	 0.571659	 3.901178	 -1.860919
H	 -0.945260	 4.266396	 -1.054256
C	 0.896674	 1.310897	 -0.845711
H	 0.361824	 2.925119	 0.471572
H	 -0.997024	 1.978897	 -0.057836
C	 1.180775	 0.282413	 0.250794
H	 1.831913	 1.759912	 -1.173676
H	 0.485641	 0.802759	 -1.715991
C	 2.148627	 -0.814315	 -0.201312
H	 1.581192	 0.796783	 1.120749
H	 0.244156	 -0.173820	 0.568570
C	 3.580890	 -0.659131	 0.322722
H	 2.166869	 -0.852443	 -1.289387
H	 1.762857	 -1.776509	 0.128956
C	 4.324889	 0.564933	 -0.213704
H	 4.142010	 -1.551473	 0.056605
H	 3.564836	 -0.624694	 1.410140
H	 4.342616	 0.565491	 -1.300421
H	 3.866655	 1.493402	 0.110242
H	 5.353900	 0.572371	 0.132816

	symmetry c1
}
set optking {
	frozen_dihedral = ("
		6 3 5 8,
		6 3 2 4,
		3 5 8 12,
		12 8 11 14,
		20 17 14 18
	")
}

ee = energy('scf')
oeprop('DIPOLE', 'QUADRUPOLE', 'MULLIKEN_CHARGES')
f=open( 'psi4out.xyz', 'w' )
f.write( "25  " )
f.write( str(ee) + "\n" )
f.write( MOL.save_string_xyz() )
f.close()
--------------------------------------------------------------------------

    Molecular point group: c1

    Geometry (in Angstrom), charge = 0, multiplicity = 1:

       Center              X                  Y                   Z               Mass
    ------------   -----------------  -----------------  -----------------  -----------------
           H         -3.140460620786     0.974981961065    -1.353352426208     1.007825032070
           C         -2.220253620786     1.506076961065    -1.626809426208    12.000000000000
           C         -1.444090620786     2.075121961065    -0.466478426208    12.000000000000
           O         -1.901411620786     1.599968961065    -2.767543426208    15.994914619560
           C         -1.158901620786     1.029309961065     0.620351573792    12.000000000000
           H         -0.529030620786     2.512534961065    -0.848636426208     1.007825032070
           H         -2.045949620786     2.877752961065    -0.041973426208     1.007825032070
           C         -0.204015620786    -0.077746038935     0.166571573792    12.000000000000
           H         -0.738865620786     1.536475961065     1.483854573792     1.007825032070
           H         -2.097713620786     0.590253961065     0.954446573792     1.007825032070
           C          0.080085379214    -1.106230038935     1.263076573792    12.000000000000
           H          0.731223379214     0.371268961065    -0.161393426208     1.007825032070
           H         -0.615048620786    -0.585884038935    -0.703708426208     1.007825032070
           C          1.047937379214    -2.202958038935     0.810970573792    12.000000000000
           H          0.480502379214    -0.591860038935     2.133031573792     1.007825032070
           H         -0.856533620786    -1.562463038935     1.580852573792     1.007825032070
           C          2.480200379214    -2.047774038935     1.335004573792    12.000000000000
           H          1.066179379214    -2.241086038935    -0.277104426208     1.007825032070
           H          0.662167379214    -3.165152038935     1.141238573792     1.007825032070
           C          3.224199379214    -0.823710038935     0.798578573792    12.000000000000
           H          3.041320379214    -2.940116038935     1.068887573792     1.007825032070
           H          2.464146379214    -2.013337038935     2.422422573792     1.007825032070
           H          3.241926379214    -0.823152038935    -0.288138426208     1.007825032070
           H          2.765965379214     0.104758961065     1.122524573792     1.007825032070
           H          4.253210379214    -0.816272038935     1.145098573792     1.007825032070

  Charge       = 0
  Multiplicity = 1
  Basis Set: 6-31G*
  Basis Set:

    Orbital Energies (a.u.)
    -----------------------

    Doubly Occupied:

       1A    -20.561818     2A    -11.325975     3A    -11.234740
       4A    -11.234153     5A    -11.223041     6A    -11.218909
       7A    -11.217939     8A    -11.215663     9A    -11.211037
      10A     -1.401817    11A     -1.104382    12A     -1.069318
      13A     -1.011464    14A     -0.944594    15A     -0.875160
      16A     -0.820207    17A     -0.787826    18A     -0.781280
      19A     -0.664452    20A     -0.661072    21A     -0.631447
      22A     -0.624559    23A     -0.607392    24A     -0.592482
      25A     -0.567624    26A     -0.557481    27A     -0.533196
      28A     -0.522688    29A     -0.515529    30A     -0.495973
      31A     -0.486525    32A     -0.485045    33A     -0.464966
      34A     -0.450858    35A     -0.440272    36A     -0.409347

  @DF-RHF Final Energy:  -387.11702722688437

   => Energetics <=

    Nuclear Repulsion Energy =            447.7529405988798317
    One-Electron Energy =               -1411.8394279930846551
    Two-Electron Energy =                 576.9694601673219267
    DFT Exchange-Correlation Energy =       0.0000000000000000
    Empirical Dispersion Energy =           0.0000000000000000
    PCM Polarization Energy =               0.0000000000000000
    EFP Energy =                            0.0000000000000000
    Total Energy =                       -387.1170272268828967

  Mulliken Charges: (a.u.)
   Center  Symbol    Alpha    Beta     Spin     Total
       1     H     0.43261  0.43261  0.00000  0.13478
       2     C     2.83081  2.83081  0.00000  0.33837
       3     C     3.20806  3.20806  0.00000 -0.41611
       4     O     4.23789  4.23789  0.00000 -0.47578
       5     C     3.16693  3.16693  0.00000 -0.33387
       6     H     0.39982  0.39982  0.00000  0.20036
       7     H     0.40683  0.40683  0.00000  0.18633
       8     C     3.15868  3.15868  0.00000 -0.31736
       9     H     0.41322  0.41322  0.00000  0.17355
      10     H     0.41972  0.41972  0.00000  0.16055
      11     C     3.15609  3.15609  0.00000 -0.31219
      12     H     0.41508  0.41508  0.00000  0.16983
      13     H     0.41798  0.41798  0.00000  0.16404
      14     C     3.15705  3.15705  0.00000 -0.31410
      15     H     0.42087  0.42087  0.00000  0.15827
      16     H     0.42037  0.42037  0.00000  0.15925
      17     C     3.15246  3.15246  0.00000 -0.30492
      18     H     0.41988  0.41988  0.00000  0.16023
      19     H     0.41908  0.41908  0.00000  0.16183
      20     C     3.24187  3.24187  0.00000 -0.48373
      21     H     0.42079  0.42079  0.00000  0.15842
      22     H     0.42305  0.42305  0.00000  0.15391
      23     H     0.42053  0.42053  0.00000  0.15893
      24     H     0.42201  0.42201  0.00000  0.15599
      25     H     0.41830  0.41830  0.00000  0.16340

   Total alpha = 36.00000, Total beta = 36.00000, Total charge =  0.00000
