  ==> Input File <==

--------------------------------------------------------------------------
set {
	reference rhf
	basis cc-pvtz
}

set_num_threads( 4 )
memory 2 gb

molecule MOL {
0 1

H	 2.828711	 -0.346904	 0.001083
C	 1.876752	 0.015931	 -0.363450
C	 0.776285	 -0.474665	 0.563092
H	 1.728113	 -0.357244	 -1.367440
H	 1.906171	 1.096574	 -0.386153
N	 -0.540022	 0.017605	 0.071630
H	 0.707111	 -1.548969	 0.573035
H	 0.886169	 -0.084184	 1.560432
O	 -0.913384	 1.065943	 0.478795
O	 -1.138194	 -0.685591	 -0.671406

	symmetry c1
}
set optking {
	frozen_dihedral = ("
		9 6 3 2
	")
}

ee = optimize('scf')
oeprop('DIPOLE', 'QUADRUPOLE', 'MULLIKEN_CHARGES')
f=open( 'psi4out.xyz', 'w' )
f.write( "10  " )
f.write( str(ee) + "\n" )
f.write( MOL.save_string_xyz() )
f.close()
--------------------------------------------------------------------------

    Molecular point group: c1
  Charge       = 0
  Multiplicity = 1
  Basis Set: CC-PVTZ
  Basis Set:
  @DF-RHF Final Energy:  -282.81314311838514
    Total Energy =                       -282.8131431183852555
    Molecular point group: c1
  Basis Set: CC-PVTZ
  Basis Set:
  Basis Set: CC-PVTZ
  Basis Set:
  @DF-RHF Final Energy:  -282.80881078394805
    Total Energy =                       -282.8088107839480472
  Basis Set: CC-PVTZ
  Basis Set:
  Basis Set: CC-PVTZ
  Basis Set:
  @DF-RHF Final Energy:  -282.81326399333022
    Total Energy =                       -282.8132639933301107
  Basis Set: CC-PVTZ
  Basis Set:
  Basis Set: CC-PVTZ
  Basis Set:
  @DF-RHF Final Energy:  -282.81335411589112
    Total Energy =                       -282.8133541158911157
  Basis Set: CC-PVTZ
  Basis Set:
  Charge       = 0
  Multiplicity = 1
  Basis Set: CC-PVTZ
  Basis Set:

    Orbital Energies (a.u.)
    -----------------------

    Doubly Occupied:

       1A    -20.591894     2A    -20.591720     3A    -15.838338
       4A    -11.301828     5A    -11.251042     6A     -1.637615
       7A     -1.421994     8A     -1.126677     9A     -0.966836
      10A     -0.839829    11A     -0.763480    12A     -0.739496
      13A     -0.730103    14A     -0.660086    15A     -0.590591
      16A     -0.559928    17A     -0.550274    18A     -0.488352
      19A     -0.479360    20A     -0.454779

  @DF-RHF Final Energy:  -282.81335510743088

   => Energetics <=

    Nuclear Repulsion Energy =            186.7876591486914890
    One-Electron Energy =                -756.0335854734215673
    Two-Electron Energy =                 286.4325712172991985
    DFT Exchange-Correlation Energy =       0.0000000000000000
    Empirical Dispersion Energy =           0.0000000000000000
    PCM Polarization Energy =               0.0000000000000000
    EFP Energy =                            0.0000000000000000
    Total Energy =                       -282.8133551074309366
    Molecular point group: c1
  Basis Set: CC-PVTZ
  Basis Set:

  -Total Gradient:
     Atom            X                  Y                   Z
    ------   -----------------  -----------------  -----------------
       1       -0.000000295637     0.000000424376    -0.000001028976
       2       -0.000006485737     0.000003198710     0.000033193087
       3        0.000021646176    -0.000057782992    -0.000049095488
       4       -0.000014925117    -0.000006902035     0.000024139711
       5        0.000009316601     0.000019076825    -0.000008585006
       6        0.000092125512    -0.000023988655     0.000071134319
       7        0.000024637502    -0.000022106071     0.000019305561
       8        0.000010498145     0.000005906111    -0.000026244133
       9       -0.000097733491    -0.000038506992    -0.000093474317
      10       -0.000038783953     0.000120680724     0.000030655243

  **** Optimization is complete! (in 5 steps) ****
    Final optimized geometry and variables:
    Molecular point group: c1

    Geometry (in Angstrom), charge = 0, multiplicity = 1:

    H            2.829608903882    -0.340642761961    -0.010599539280
    C            1.875014035386     0.017721750670    -0.372673156757
    C            0.780049120314    -0.470848892567     0.561346471221
    H            1.722543414453    -0.360949432766    -1.373907691401
    H            1.901762302418     1.098414969909    -0.401090278116
    N           -0.539655806699     0.016957020947     0.074285104838
    H            0.713110660030    -1.545373312680     0.575638899017
    H            0.893946922201    -0.076485848356     1.556566239250
    O           -0.913195536529     1.066323054720     0.478624164449
    O           -1.114196794745    -0.664026589158    -0.707047980784

  Mulliken Charges: (a.u.)
   Center  Symbol    Alpha    Beta     Spin     Total
       1     H     0.44787  0.44787  0.00000  0.10425
       2     C     3.14069  3.14069  0.00000 -0.28139
       3     C     3.03735  3.03735  0.00000 -0.07469
       4     H     0.44069  0.44069  0.00000  0.11862
       5     H     0.44094  0.44094  0.00000  0.11812
       6     N     3.27634  3.27634  0.00000  0.44731
       7     H     0.43487  0.43487  0.00000  0.13025
       8     H     0.43475  0.43475  0.00000  0.13050
       9     O     4.17311  4.17311  0.00000 -0.34622
      10     O     4.17338  4.17338  0.00000 -0.34677

   Total alpha = 20.00000, Total beta = 20.00000, Total charge = -0.00000
