  ==> Input File <==

--------------------------------------------------------------------------
set {
	reference rhf
	basis 6-31G*
}

set_num_threads( 4 )
memory 2 gb

molecule MOL {
0 1

O	 0.010563	 0.573344	 -1.710802
C	 -0.288497	 -0.253868	 -0.912267
C	 -1.641221	 -0.902144	 -0.800718
O	 0.550821	 -0.724572	 0.000672
H	 -1.544410	 -1.974627	 -0.923565
H	 -2.298567	 -0.500415	 -1.557291
H	 -2.053768	 -0.720366	 0.184848
C	 1.863949	 -0.193559	 -0.000319
H	 2.028859	 0.409284	 -0.881648
H	 2.526261	 -1.045082	 -0.000003
H	 2.029520	 0.410555	 0.880008

	symmetry c1
}
set optking {
	frozen_dihedral = ("
		2 4 8 9
	")
}

ee = optimize('scf')
oeprop('DIPOLE', 'QUADRUPOLE', 'MULLIKEN_CHARGES')
f=open( 'psi4out.xyz', 'w' )
f.write( "11  " )
f.write( str(ee) + "\n" )
f.write( MOL.save_string_xyz() )
f.close()
--------------------------------------------------------------------------

    Molecular point group: c1
  Charge       = 0
  Multiplicity = 1
  Basis Set: 6-31G*
  Basis Set:
  @DF-RHF Final Energy:  -266.83361847856975
    Total Energy =                       -266.8336184785698606
    Molecular point group: c1
  Basis Set: 6-31G*
  Basis Set:
  Basis Set: 6-31G*
  Basis Set:
  @DF-RHF Final Energy:  -266.83389109480282
    Total Energy =                       -266.8338910948026523
  Basis Set: 6-31G*
  Basis Set:
  Basis Set: 6-31G*
  Basis Set:
  @DF-RHF Final Energy:  -266.83427289526048
    Total Energy =                       -266.8342728952605967
  Basis Set: 6-31G*
  Basis Set:
  Basis Set: 6-31G*
  Basis Set:
  @DF-RHF Final Energy:  -266.83426366930001
    Total Energy =                       -266.8342636693000713
  Basis Set: 6-31G*
  Basis Set:
  Basis Set: 6-31G*
  Basis Set:
  @DF-RHF Final Energy:  -266.83441821704889
    Total Energy =                       -266.8344182170487215
  Basis Set: 6-31G*
  Basis Set:
  Charge       = 0
  Multiplicity = 1
  Basis Set: 6-31G*
  Basis Set:

    Orbital Energies (a.u.)
    -----------------------

    Doubly Occupied:

       1A    -20.604853     2A    -20.545744     3A    -11.377825
       4A    -11.280651     5A    -11.234036     6A     -1.468489
       7A     -1.364981     8A     -1.035966     9A     -0.953405
      10A     -0.777202    11A     -0.696950    12A     -0.678733
      13A     -0.676981    14A     -0.597359    15A     -0.591083
      16A     -0.560532    17A     -0.528708    18A     -0.518965
      19A     -0.454106    20A     -0.442541

  @DF-RHF Final Energy:  -266.83442043573712

   => Energetics <=

    Nuclear Repulsion Energy =            182.8597246969159187
    One-Electron Energy =                -726.6100668067663264
    Two-Electron Energy =                 276.9159216741131786
    DFT Exchange-Correlation Energy =       0.0000000000000000
    Empirical Dispersion Energy =           0.0000000000000000
    PCM Polarization Energy =               0.0000000000000000
    EFP Energy =                            0.0000000000000000
    Total Energy =                       -266.8344204357372291
    Molecular point group: c1
  Basis Set: 6-31G*
  Basis Set:

  -Total Gradient:
     Atom            X                  Y                   Z
    ------   -----------------  -----------------  -----------------
       1        0.000059243407     0.000005172557     0.000045989939
       2        0.000185341456    -0.000475828190    -0.000430398721
       3       -0.000026389900    -0.000006049484     0.000010302939
       4       -0.000307320738     0.000961900973     0.000753016422
       5       -0.000002930122    -0.000004413677    -0.000002373935
       6       -0.000001270529    -0.000003662589     0.000000552920
       7        0.000002344214     0.000000555243    -0.000005321995
       8        0.000347488797    -0.001127028376    -0.000690364341
       9       -0.000254199771     0.000632530955     0.000341799808
      10        0.000084189876     0.000023043982    -0.000001851832
      11       -0.000086496690    -0.000006221396    -0.000021351201

  **** Optimization is complete! (in 6 steps) ****
    Final optimized geometry and variables:
    Molecular point group: c1

    Geometry (in Angstrom), charge = 0, multiplicity = 1:

    O           -0.144705278099     0.881954362052    -1.046031436224
    C           -0.412103904978     0.051267258202    -0.240330110221
    C           -1.754128858473    -0.615385854022    -0.105247892441
    O            0.439831533121    -0.412638532902     0.666213927125
    H           -1.644404177732    -1.686656049834    -0.227529143933
    H           -2.429416926621    -0.224042151218    -0.851267100842
    H           -2.152229245243    -0.437226613754     0.886941595463
    C            1.767338238181     0.085283846626     0.689271662436
    H            1.967284124485     0.686201895460    -0.181722435122
    H            2.431134870104    -0.766203716672     0.726137587321
    H            1.893332295209     0.680947179753     1.583117466687

  Mulliken Charges: (a.u.)
   Center  Symbol    Alpha    Beta     Spin     Total
       1     O     4.28172  4.28172  0.00000 -0.56344
       2     C     2.62207  2.62207  0.00000  0.75587
       3     C     3.28212  3.28212  0.00000 -0.56423
       4     O     4.30149  4.30149  0.00000 -0.60299
       5     H     0.40015  0.40015  0.00000  0.19970
       6     H     0.39681  0.39681  0.00000  0.20638
       7     H     0.40001  0.40001  0.00000  0.19999
       8     C     3.09839  3.09839  0.00000 -0.19678
       9     H     0.39360  0.39360  0.00000  0.21280
      10     H     0.41106  0.41106  0.00000  0.17788
      11     H     0.41258  0.41258  0.00000  0.17483

   Total alpha = 20.00000, Total beta = 20.00000, Total charge =  0.00000
