                              Psi4 1.0.54 Driver

  ==> Input File <==

--------------------------------------------------------------------------
set {
	reference rhf
	basis cc-pvtz
}

set_num_threads( 4 )
memory 2 gb

molecule MOL {
0 1

H	 -2.656947	 0.433312	 -1.437453
O	 -3.458596	 0.315260	 -0.960865
C	 -3.176635	 -0.080824	 0.355601
C	 -1.763371	 0.265266	 0.799691
H	 -3.321825	 -1.153438	 0.379502
H	 -3.895468	 0.357385	 1.043382
C	 -0.673390	 -0.426948	 -0.013392
H	 -1.631049	 1.344913	 0.747560
H	 -1.664587	 -0.001624	 1.849167
C	 0.737842	 -0.043159	 0.423759
H	 -0.806103	 -0.190518	 -1.063345
H	 -0.797221	 -1.503753	 0.074146
C	 1.824000	 -0.743224	 -0.390623
H	 0.850588	 1.033777	 0.343840
H	 0.868587	 -0.286314	 1.476203
C	 3.255957	 -0.453067	 0.062319
H	 1.718250	 -0.470599	 -1.438164
H	 1.658105	 -1.815850	 -0.339904
C	 3.707029	 0.992337	 -0.133857
H	 3.928201	 -1.104096	 -0.488158
H	 3.362667	 -0.724561	 1.109374
H	 3.605811	 1.294044	 -1.171549
H	 4.748333	 1.111029	 0.143343
H	 3.129882	 1.683078	 0.468956

	symmetry c1
}
set optking {
	frozen_dihedral = ("
		1 2 3 5
	")
}

ee,wfn = optimize('scf', return_wfn=True)
oeprop( wfn, 'DIPOLE', 'QUADRUPOLE', 'MULLIKEN_CHARGES')
f=open( 'psi4out.xyz', 'w' )
f.write( "24  " )
f.write( str(ee) + "\n" )
f.write( MOL.save_string_xyz() )
f.close()
--------------------------------------------------------------------------

    Molecular point group: c1
  Charge       = 0
  Multiplicity = 1
  Basis Set: CC-PVTZ
  Basis Set:
  @DF-RHF Final Energy:  -349.37665110757194
    Total Energy =                       -349.3766511075718881
    Molecular point group: c1
  Basis Set: CC-PVTZ
  Basis Set:
  Basis Set: CC-PVTZ
  Basis Set:
  @DF-RHF Final Energy:  -349.37675069533293
    Total Energy =                       -349.3767506953330440
  Basis Set: CC-PVTZ
  Basis Set:
  Basis Set: CC-PVTZ
  Basis Set:
  @DF-RHF Final Energy:  -349.37803949645729
    Total Energy =                       -349.3780394964573475
  Basis Set: CC-PVTZ
  Basis Set:
  Basis Set: CC-PVTZ
  Basis Set:
  @DF-RHF Final Energy:  -349.37808846758844
    Total Energy =                       -349.3780884675880998
  Basis Set: CC-PVTZ
  Basis Set:
  Basis Set: CC-PVTZ
  Basis Set:
  @DF-RHF Final Energy:  -349.37810046585133
    Total Energy =                       -349.3781004658511620
  Basis Set: CC-PVTZ
  Basis Set:
  Charge       = 0
  Multiplicity = 1
  Basis Set: CC-PVTZ
  Basis Set:

    Orbital Energies (a.u.)
    -----------------------

    Doubly Occupied:

       1A    -20.542284     2A    -11.264015     3A    -11.222320
       4A    -11.220131     5A    -11.217393     6A    -11.216601
       7A    -11.215571     8A    -11.208917     9A     -1.360934
      10A     -1.096804    11A     -1.054112    12A     -0.990779
      13A     -0.921866    14A     -0.857276    15A     -0.804410
      16A     -0.783053    17A     -0.675941    18A     -0.659747
      19A     -0.631089    20A     -0.623083    21A     -0.607667
      22A     -0.591681    23A     -0.562416    24A     -0.539009
      25A     -0.530100    26A     -0.514565    27A     -0.495470
      28A     -0.485107    29A     -0.479318    30A     -0.465471
      31A     -0.459101    32A     -0.438768    33A     -0.432410

  @DF-RHF Final Energy:  -349.37810138222301

   => Energetics <=

    Nuclear Repulsion Energy =            384.8253880333048755
    One-Electron Energy =               -1236.0721539006990497
    Two-Electron Energy =                 501.8686644851708252
    DFT Exchange-Correlation Energy =       0.0000000000000000
    Empirical Dispersion Energy =           0.0000000000000000
    PCM Polarization Energy =               0.0000000000000000
    EFP Energy =                            0.0000000000000000
    Total Energy =                       -349.3781013822233490
    Molecular point group: c1
  Basis Set: CC-PVTZ
  Basis Set:

  -Total Gradient:
     Atom            X                  Y                   Z
    ------   -----------------  -----------------  -----------------
       1        0.000213554814     0.001621531658     0.000603672509
       2       -0.000522504425    -0.002125705742    -0.000430885486
       3        0.001686508981     0.000225325220    -0.000671560308
       4       -0.000036846747     0.000046029618    -0.000079068563
       5       -0.001392645270     0.000307781437     0.000542228329
       6        0.000036541034    -0.000076360431    -0.000011277304
       7       -0.000037780291    -0.000021589640     0.000041742467
       8        0.000033874537     0.000042934601     0.000006831405
       9        0.000005672180    -0.000013569008     0.000020326980
      10       -0.000020464156    -0.000013848937    -0.000001587753
      11       -0.000014348115     0.000014170542    -0.000007855277
      12       -0.000006784774    -0.000052341108    -0.000012360338
      13        0.000001472684     0.000077436222    -0.000024396423
      14       -0.000045893136    -0.000031253941    -0.000004585891
      15        0.000023058348     0.000012289321     0.000040550131
      16       -0.000054728646     0.000009737705     0.000082728458
      17       -0.000015002380     0.000026732304    -0.000034773912
      18        0.000007627113    -0.000026789209    -0.000034662578
      19        0.000037413544     0.000002055714    -0.000032980711
      20        0.000032086238    -0.000046323445    -0.000022418437
      21        0.000012895489     0.000005300345     0.000070572017
      22       -0.000013733126     0.000025362488    -0.000043231904
      23        0.000037891661    -0.000010279209    -0.000016179744
      24        0.000032134432     0.000001373497     0.000019172334

  **** Optimization is complete! (in 6 steps) ****
    Final optimized geometry and variables:
    Molecular point group: c1

    Geometry (in Angstrom), charge = 0, multiplicity = 1:

    H           -2.938553050596     0.575387739639    -1.084404010628
    O           -3.626134629748     0.446979796666    -0.459224631471
    C           -3.110345677908    -0.038252294616     0.753316613632
    C           -1.645117730274     0.295786049152     0.984695375456
    H           -3.262972533895    -1.113718115537     0.806256341480
    H           -3.707040287886     0.404157770362     1.541258323078
    C           -0.676584200447    -0.398121149474     0.027632828713
    H           -1.517462540259     1.373631135849     0.924563377881
    H           -1.397996419609     0.011267625208     2.003580449000
    C            0.786141823226    -0.066248048126     0.313512446923
    H           -0.898012966728    -0.124094198647    -1.001811508611
    H           -0.823252113430    -1.473262829825     0.090267008341
    C            1.753988809773    -0.758688915597    -0.644034833467
    H            0.918662221859     1.009847607265     0.263681351913
    H            1.024101144158    -0.356379703847     1.334322835304
    C            3.235112024467    -0.528238251632    -0.338498951011
    H            1.545220335071    -0.436307207617    -1.661802211762
    H            1.560320569519    -1.827615863711    -0.620163952029
    C            3.710526077351     0.909967018111    -0.530438870818
    H            3.821974866341    -1.176625349697    -0.981828572552
    H            3.444169673956    -0.844166230409     0.680252339537
    H            3.505548538766     1.256559528642    -1.538421502506
    H            4.779534562200     0.985794638814    -0.367583674982
    H            3.228183014714     1.592783817578     0.158598411281

  Mulliken Charges: (a.u.)
   Center  Symbol    Alpha    Beta     Spin     Total
       1     H     0.39085  0.39085  0.00000  0.21830
       2     O     4.20866  4.20866  0.00000 -0.41731
       3     C     2.95827  2.95827  0.00000  0.08346
       4     C     3.10746  3.10746  0.00000 -0.21493
       5     H     0.47553  0.47553  0.00000  0.04894
       6     H     0.45841  0.45841  0.00000  0.08319
       7     C     3.09243  3.09243  0.00000 -0.18486
       8     H     0.44869  0.44869  0.00000  0.10262
       9     H     0.45307  0.45307  0.00000  0.09387
      10     C     3.09201  3.09201  0.00000 -0.18402
      11     H     0.46183  0.46183  0.00000  0.07633
      12     H     0.45016  0.45016  0.00000  0.09968
      13     C     3.09521  3.09521  0.00000 -0.19042
      14     H     0.45137  0.45137  0.00000  0.09726
      15     H     0.45308  0.45308  0.00000  0.09383
      16     C     3.09057  3.09057  0.00000 -0.18114
      17     H     0.45397  0.45397  0.00000  0.09206
      18     H     0.44899  0.44899  0.00000  0.10202
      19     C     3.15248  3.15248  0.00000 -0.30497
      20     H     0.44799  0.44799  0.00000  0.10403
      21     H     0.45444  0.45444  0.00000  0.09111
      22     H     0.45484  0.45484  0.00000  0.09032
      23     H     0.44592  0.44592  0.00000  0.10817
      24     H     0.45378  0.45378  0.00000  0.09245

   Total alpha = 33.00000, Total beta = 33.00000, Total charge = -0.00000

*** Psi4 exiting successfully. Buy a developer a beer!
