  ==> Input File <==

--------------------------------------------------------------------------
set {
	reference rhf
	basis 6-31G*
}

set_num_threads( 4 )
memory 2 gb

molecule MOL {
0 1

O	 -3.690015	 -0.454670	 -0.172714
C	 -2.668563	 0.129746	 -0.000350
C	 -2.581194	 1.614791	 0.241055
O	 -1.481751	 -0.454642	 0.000584
H	 -3.163883	 1.859080	 1.121203
H	 -1.560565	 1.942111	 0.373778
H	 -3.027071	 2.130930	 -0.600773
C	 -0.334255	 0.388708	 0.000906
C	 0.891947	 -0.504646	 0.000751
H	 -0.365390	 1.025305	 -0.873475
H	 -0.365484	 1.024911	 0.875569
C	 2.191998	 0.301789	 0.000897
H	 0.855148	 -1.151283	 -0.871571
H	 0.855132	 -1.151660	 0.872805
C	 3.441114	 -0.581407	 0.000108
H	 2.215074	 0.954890	 -0.869742
H	 2.215465	 0.953923	 0.872248
C	 4.739576	 0.224112	 -0.001102
H	 3.419457	 -1.233487	 -0.870178
H	 3.420834	 -1.233096	 0.870717
H	 4.804918	 0.861552	 -0.878265
H	 5.606527	 -0.429058	 -0.001824
H	 4.806469	 0.861674	 0.875853

	symmetry c1
}
set optking {
	frozen_dihedral = ("
		1 2 4 8
	")
}

ee = optimize('scf')
oeprop('DIPOLE', 'QUADRUPOLE', 'MULLIKEN_CHARGES')
f=open( 'psi4out.xyz', 'w' )
f.write( "23  " )
f.write( str(ee) + "\n" )
f.write( MOL.save_string_xyz() )
f.close()
--------------------------------------------------------------------------

    Molecular point group: c1
  Charge       = 0
  Multiplicity = 1
  Basis Set: 6-31G*
  Basis Set:
  @DF-RHF Final Energy:  -422.94546457226448
    Total Energy =                       -422.9454645722648820
    Molecular point group: c1
  Basis Set: 6-31G*
  Basis Set:
  Basis Set: 6-31G*
  Basis Set:
  @DF-RHF Final Energy:  -422.94934998266353
    Total Energy =                       -422.9493499826643301
  Basis Set: 6-31G*
  Basis Set:
  Basis Set: 6-31G*
  Basis Set:
  @DF-RHF Final Energy:  -422.95796374133721
    Total Energy =                       -422.9579637413374940
  Basis Set: 6-31G*
  Basis Set:
  Basis Set: 6-31G*
  Basis Set:
  @DF-RHF Final Energy:  -422.96200239045697
    Total Energy =                       -422.9620023904570871
  Basis Set: 6-31G*
  Basis Set:
  @DF-RHF Final Energy:  -422.96266877269233
    Total Energy =                       -422.9626687726924956
  @DF-RHF Final Energy:  -422.96326020837381
    Total Energy =                       -422.9632602083738675
  @DF-RHF Final Energy:  -422.96299911687640
    Total Energy =                       -422.9629991168762899
  @DF-RHF Final Energy:  -422.96352690118312
    Total Energy =                       -422.9635269011829450
  @DF-RHF Final Energy:  -422.96367588525135
    Total Energy =                       -422.9636758852507228
  @DF-RHF Final Energy:  -422.91920601191828
    Total Energy =                       -422.9192060119179359
  @DF-RHF Final Energy:  -422.96014546406013
    Total Energy =                       -422.9601454640595648
  @DF-RHF Final Energy:  -422.96390790019410
    Total Energy =                       -422.9639079001943855
  @DF-RHF Final Energy:  -422.96471313776300
    Total Energy =                       -422.9647131377635105
  @DF-RHF Final Energy:  -422.96507788113558
    Total Energy =                       -422.9650778811351302
  @DF-RHF Final Energy:  -422.96543804240730
    Total Energy =                       -422.9654380424071860
  @DF-RHF Final Energy:  -422.96566103329440
    Total Energy =                       -422.9656610332942819
  @DF-RHF Final Energy:  -422.96579583603642
    Total Energy =                       -422.9657958360367047
  Basis Set: 6-31G*
  Basis Set:
  @DF-RHF Final Energy:  -422.96581875009832
    Total Energy =                       -422.9658187500986060
  Basis Set: 6-31G*
  Basis Set:
  Basis Set: 6-31G*
  Basis Set:
  @DF-RHF Final Energy:  -422.96581984776697
    Total Energy =                       -422.9658198477669657
  Basis Set: 6-31G*
  Basis Set:
  Basis Set: 6-31G*
  Basis Set:
  @DF-RHF Final Energy:  -422.96582207519873
    Total Energy =                       -422.9658220751985027
  Basis Set: 6-31G*
  Basis Set:
  Charge       = 0
  Multiplicity = 1
  Basis Set: 6-31G*
  Basis Set:

    Orbital Energies (a.u.)
    -----------------------

    Doubly Occupied:

       1A    -20.599258     2A    -20.537271     3A    -11.375045
       4A    -11.297216     5A    -11.241866     6A    -11.230173
       7A    -11.229502     8A    -11.225561     9A    -11.216549
      10A     -1.461493    11A     -1.363355    12A     -1.098378
      13A     -1.037020    14A     -1.015682    15A     -0.944154
      16A     -0.848855    17A     -0.808181    18A     -0.779384
      19A     -0.699881    20A     -0.696180    21A     -0.658957
      22A     -0.650555    23A     -0.610076    24A     -0.596013
      25A     -0.581411    26A     -0.573681    27A     -0.569762
      28A     -0.540477    29A     -0.532394    30A     -0.505933
      31A     -0.500273    32A     -0.482639    33A     -0.476140
      34A     -0.474003    35A     -0.442424    36A     -0.429333

  @DF-RHF Final Energy:  -422.96582231343803

   => Energetics <=

    Nuclear Repulsion Energy =            449.4688934489114445
    One-Electron Energy =               -1466.2112846720074231
    Two-Electron Energy =                 593.7765689096586357
    DFT Exchange-Correlation Energy =       0.0000000000000000
    Empirical Dispersion Energy =           0.0000000000000000
    PCM Polarization Energy =               0.0000000000000000
    EFP Energy =                            0.0000000000000000
    Total Energy =                       -422.9658223134373429
    Molecular point group: c1
  Basis Set: 6-31G*
  Basis Set:

  -Total Gradient:
     Atom            X                  Y                   Z
    ------   -----------------  -----------------  -----------------
       1        0.000047474294     0.000140214320    -0.001000435035
       2       -0.000045178080    -0.000208567886     0.000964317514
       3       -0.000004656078     0.000007496241    -0.000030287178
       4        0.000040495079     0.000121592190     0.000926930034
       5       -0.000011408697     0.000007741283     0.000006389340
       6       -0.000008157464    -0.000010124438    -0.000004657598
       7       -0.000014293945     0.000001059923     0.000006662523
       8       -0.000036325381    -0.000086403119    -0.000886684287
       9        0.000011637880     0.000018799315     0.000004655833
      10        0.000019567306     0.000005824350    -0.000002312734
      11        0.000005269298    -0.000001157518     0.000010043179
      12       -0.000000214276    -0.000000496908     0.000001754164
      13        0.000001748133    -0.000003148347     0.000006234748
      14       -0.000012331185     0.000008359182     0.000003220721
      15        0.000005396001     0.000000699035    -0.000017451093
      16       -0.000001128163     0.000002378647     0.000008464623
      17        0.000000769212    -0.000002391135     0.000007399834
      18        0.000001357431    -0.000001905153    -0.000000927832
      19       -0.000000487911    -0.000004510754    -0.000001453242
      20        0.000000658439     0.000004521108    -0.000001476620
      21        0.000002054794    -0.000002238821    -0.000001907024
      22       -0.000000149565     0.000000251298     0.000002624375
      23       -0.000002097112     0.000002007187    -0.000001104243

  **** Optimization is complete! (in 21 steps) ****
    Final optimized geometry and variables:
    Molecular point group: c1

    Geometry (in Angstrom), charge = 0, multiplicity = 1:

    O           -3.646359528495    -0.664890167743    -0.062760067320
    C           -2.725871123667     0.069726690056     0.059113086146
    C           -2.894093170587     1.561794106665     0.236900431706
    O           -1.487992194121    -0.426641997144     0.056965640380
    H           -3.950483697532     1.781901237269     0.227899862786
    H           -2.466930394616     1.888494624460     1.178580823094
    H           -2.406625320836     2.113622516668    -0.558691550234
    C           -0.328004350946     0.381634027394    -0.009619009498
    C            0.873156806425    -0.546720024589     0.000641193125
    H           -0.342344983307     0.973827547680    -0.918322729931
    H           -0.291381911853     1.058462127415     0.836708714489
    C            2.197553192895     0.214920114104    -0.073907097038
    H            0.785499889576    -1.232193978118    -0.836611440545
    H            0.835495746678    -1.148082945146     0.903944984846
    C            3.415980056180    -0.710311516698    -0.067687471845
    H            2.217762996837     0.825282506813    -0.975435048135
    H            2.269818828543     0.905739536609     0.764749357281
    C            4.739827563644     0.048916335393    -0.143039956312
    H            3.346414709056    -1.400572066454    -0.905115850653
    H            3.399004369249    -1.319705525768     0.832866569256
    H            4.801430501205     0.641477943045    -1.051429878369
    H            5.583697193671    -0.633538232619    -0.136020891735
    H            4.853751487257     0.724206473224     0.700248443648

  Mulliken Charges: (a.u.)
   Center  Symbol    Alpha    Beta     Spin     Total
       1     O     4.26664  4.26664  0.00000 -0.53328
       2     C     2.61348  2.61348  0.00000  0.77305
       3     C     3.30932  3.30932  0.00000 -0.61864
       4     O     4.30593  4.30593  0.00000 -0.61186
       5     H     0.38759  0.38759  0.00000  0.22481
       6     H     0.40230  0.40230  0.00000  0.19540
       7     H     0.40381  0.40381  0.00000  0.19239
       8     C     2.99471  2.99471  0.00000  0.01059
       9     C     3.16186  3.16186  0.00000 -0.32372
      10     H     0.41935  0.41935  0.00000  0.16130
      11     H     0.42032  0.42032  0.00000  0.15936
      12     C     3.16109  3.16109  0.00000 -0.32219
      13     H     0.40862  0.40862  0.00000  0.18277
      14     H     0.40979  0.40979  0.00000  0.18042
      15     C     3.15184  3.15184  0.00000 -0.30368
      16     H     0.42209  0.42209  0.00000  0.15582
      17     H     0.42240  0.42240  0.00000  0.15521
      18     C     3.24009  3.24009  0.00000 -0.48017
      19     H     0.41972  0.41972  0.00000  0.16057
      20     H     0.41998  0.41998  0.00000  0.16004
      21     H     0.42107  0.42107  0.00000  0.15786
      22     H     0.41680  0.41680  0.00000  0.16640
      23     H     0.42121  0.42121  0.00000  0.15757

   Total alpha = 36.00000, Total beta = 36.00000, Total charge =  0.00000
