  ==> Input File <==

--------------------------------------------------------------------------
set {
	reference rhf
	basis cc-pvtz
}

set_num_threads( 4 )
memory 2 gb

molecule MOL {
0 1

H	 -2.215496	 -1.120587	 -0.337497
O	 -2.346257	 -0.289210	 0.080372
C	 -1.183935	 0.486039	 -0.009831
C	 0.062853	 -0.375310	 0.027457
H	 -1.178881	 1.094526	 -0.908634
H	 -1.184406	 1.155156	 0.838676
O	 1.172093	 0.457955	 -0.054438
H	 0.052476	 -1.081302	 -0.804627
H	 0.076323	 -0.955658	 0.947560
C	 2.395478	 -0.199028	 -0.000366
H	 2.505946	 -0.901710	 -0.823354
H	 3.174616	 0.545641	 -0.071768
H	 2.513730	 -0.742241	 0.934223

	symmetry c1
}
set optking {
	frozen_dihedral = ("
		1 2 3 5
	")
}

ee = optimize('scf')
oeprop('DIPOLE', 'QUADRUPOLE', 'MULLIKEN_CHARGES')
f=open( 'psi4out.xyz', 'w' )
f.write( "13  " )
f.write( str(ee) + "\n" )
f.write( MOL.save_string_xyz() )
f.close()
--------------------------------------------------------------------------

    Molecular point group: c1
  Charge       = 0
  Multiplicity = 1
  Basis Set: CC-PVTZ
  Basis Set:
  @DF-RHF Final Energy:  -268.06031813797574
    Total Energy =                       -268.0603181379757984
    Molecular point group: c1
  Basis Set: CC-PVTZ
  Basis Set:
  Basis Set: CC-PVTZ
  Basis Set:
  @DF-RHF Final Energy:  -268.06038469492125
    Total Energy =                       -268.0603846949212539
  Basis Set: CC-PVTZ
  Basis Set:
  Basis Set: CC-PVTZ
  Basis Set:
  @DF-RHF Final Energy:  -268.06039709705499
    Total Energy =                       -268.0603970970547607
  Basis Set: CC-PVTZ
  Basis Set:
  Charge       = 0
  Multiplicity = 1
  Basis Set: CC-PVTZ
  Basis Set:

    Orbital Energies (a.u.)
    -----------------------

    Doubly Occupied:

       1A    -20.560134     2A    -20.551633     3A    -11.276197
       4A    -11.270827     5A    -11.267066     6A     -1.396209
       7A     -1.368275     8A     -1.022135     9A     -0.916018
      10A     -0.850468    11A     -0.702838    12A     -0.683115
      13A     -0.671033    14A     -0.631646    15A     -0.603787
      16A     -0.580912    17A     -0.546271    18A     -0.498709
      19A     -0.475615    20A     -0.443287    21A     -0.428770

  @DF-RHF Final Energy:  -268.06039731436988

   => Energetics <=

    Nuclear Repulsion Energy =            190.6561428114941634
    One-Electron Energy =                -743.9431905910971636
    Two-Electron Energy =                 285.2266504652329786
    DFT Exchange-Correlation Energy =       0.0000000000000000
    Empirical Dispersion Energy =           0.0000000000000000
    PCM Polarization Energy =               0.0000000000000000
    EFP Energy =                            0.0000000000000000
    Total Energy =                       -268.0603973143699932
    Molecular point group: c1
  Basis Set: CC-PVTZ
  Basis Set:

  -Total Gradient:
     Atom            X                  Y                   Z
    ------   -----------------  -----------------  -----------------
       1        0.000857049417    -0.001071806349     0.002330191250
       2       -0.001391205774     0.001774898596    -0.002559926946
       3        0.001566607148    -0.002462228541    -0.000953258030
       4       -0.000054404658    -0.000008270594     0.000031961219
       5       -0.001035141037     0.001728275770     0.001187038505
       6        0.000008281462     0.000005633427     0.000001434964
       7        0.000035046837    -0.000005960819    -0.000015942676
       8        0.000010471942     0.000015731265     0.000000640869
       9       -0.000015097894     0.000002041556    -0.000012191149
      10       -0.000002934693     0.000037604620    -0.000014410357
      11        0.000005671988    -0.000005319487     0.000002045052
      12        0.000021239818    -0.000009546197     0.000001237781
      13       -0.000005584560    -0.000001053248     0.000001179518

  **** Optimization is complete! (in 4 steps) ****
    Final optimized geometry and variables:
    Molecular point group: c1

    Geometry (in Angstrom), charge = 0, multiplicity = 1:

    H           -2.242945361846    -1.110364295436    -0.355737334786
    O           -2.357200164508    -0.279558523965     0.068279003483
    C           -1.185947342626     0.484946852035    -0.014361851773
    C            0.062994569269    -0.370880288635     0.028664253777
    H           -1.185832638941     1.097262555940    -0.910303764719
    H           -1.185028396125     1.157358070702     0.832632219591
    O            1.169352917470     0.462386621527    -0.056811648543
    H            0.055991816202    -1.080131614873    -0.802219891272
    H            0.079994921220    -0.947742318650     0.952082772686
    C            2.394401841590    -0.193058729033    -0.007070499582
    H            2.503172141753    -0.894704151986    -0.831009141044
    H            3.171308383573     0.553416168885    -0.080603276653
    H            2.516410708658    -0.736162814430     0.927054148459

  Mulliken Charges: (a.u.)
   Center  Symbol    Alpha    Beta     Spin     Total
       1     H     0.39425  0.39425  0.00000  0.21150
       2     O     4.20256  4.20256  0.00000 -0.40511
       3     C     2.95749  2.95749  0.00000  0.08501
       4     C     2.97414  2.97414  0.00000  0.05171
       5     H     0.46951  0.46951  0.00000  0.06097
       6     H     0.45911  0.45911  0.00000  0.08177
       7     O     4.17256  4.17256  0.00000 -0.34513
       8     H     0.48289  0.48289  0.00000  0.03422
       9     H     0.46896  0.46896  0.00000  0.06207
      10     C     3.03290  3.03290  0.00000 -0.06580
      11     H     0.47084  0.47084  0.00000  0.05832
      12     H     0.44495  0.44495  0.00000  0.11010
      13     H     0.46982  0.46982  0.00000  0.06036

   Total alpha = 21.00000, Total beta = 21.00000, Total charge = -0.00000
