                              Psi4 1.0.54 Driver

  ==> Input File <==

--------------------------------------------------------------------------
set {
	reference rhf
	basis cc-pvtz
}

set_num_threads( 4 )
memory 2 gb

molecule MOL {
0 1

H	 -4.046984	 -2.360541	 0.627825
C	 -3.341132	 -1.556515	 0.668111
C	 -2.132620	 -1.735027	 0.193794
H	 -3.644890	 -0.621531	 1.096287
O	 -1.189946	 -0.765863	 0.237511
H	 -1.820259	 -2.665053	 -0.245079
C	 0.026572	 -0.995256	 -0.379403
C	 1.057223	 0.049888	 -0.004615
H	 -0.054361	 -1.010670	 -1.459674
H	 0.397526	 -1.952058	 -0.044198
F	 2.203233	 -0.234060	 -0.590375
F	 0.698147	 1.254887	 -0.392621
F	 1.266440	 0.094219	 1.288722

	symmetry c1
}
set optking {
	frozen_dihedral = ("
		3 5 7 9
	")
}

ee,wfn = optimize('scf', return_wfn=True)
oeprop( wfn, 'DIPOLE', 'QUADRUPOLE', 'MULLIKEN_CHARGES')
f=open( 'psi4out.xyz', 'w' )
f.write( "13  " )
f.write( str(ee) + "\n" )
f.write( MOL.save_string_xyz() )
f.close()
--------------------------------------------------------------------------

    Molecular point group: c1
  Charge       = 0
  Multiplicity = 1
  Basis Set: CC-PVTZ
  Basis Set:
  @DF-RHF Final Energy:  -527.74024875528266
    Total Energy =                       -527.7402487552827779
    Molecular point group: c1
  Basis Set: CC-PVTZ
  Basis Set:
  Basis Set: CC-PVTZ
  Basis Set:
  @DF-RHF Final Energy:  -527.74152715494643
    Total Energy =                       -527.7415271549465388
  Basis Set: CC-PVTZ
  Basis Set:
  Basis Set: CC-PVTZ
  Basis Set:
  @DF-RHF Final Energy:  -527.74175356105184
    Total Energy =                       -527.7417535610514960
  Basis Set: CC-PVTZ
  Basis Set:
  Basis Set: CC-PVTZ
  Basis Set:
  @DF-RHF Final Energy:  -527.74177619811394
    Total Energy =                       -527.7417761981138256
  Basis Set: CC-PVTZ
  Basis Set:
  @DF-RHF Final Energy:  -527.74180305622599
    Total Energy =                       -527.7418030562259901
  @DF-RHF Final Energy:  -527.61933834157117
    Total Energy =                       -527.6193383415718472
  @DF-RHF Final Energy:  -527.72737677136388
    Total Energy =                       -527.7273767713642201
  @DF-RHF Final Energy:  -527.74177581670892
    Total Energy =                       -527.7417758167090369
  @DF-RHF Final Energy:  -527.74178373704683
    Total Energy =                       -527.7417837370469442
  Basis Set: CC-PVTZ
  Basis Set:
  @DF-RHF Final Energy:  -527.74187237374133
    Total Energy =                       -527.7418723737411028
  Basis Set: CC-PVTZ
  Basis Set:
  Basis Set: CC-PVTZ
  Basis Set:
  @DF-RHF Final Energy:  -527.74188129171989
    Total Energy =                       -527.7418812917198920
  Basis Set: CC-PVTZ
  Basis Set:
  Basis Set: CC-PVTZ
  Basis Set:
  @DF-RHF Final Energy:  -527.74188713001945
    Total Energy =                       -527.7418871300194496
  Basis Set: CC-PVTZ
  Basis Set:
  Charge       = 0
  Multiplicity = 1
  Basis Set: CC-PVTZ
  Basis Set:

    Orbital Energies (a.u.)
    -----------------------

    Doubly Occupied:

       1A    -26.339609     2A    -26.336244     3A    -26.336121
       4A    -20.602605     5A    -11.498319     6A    -11.319169
       7A    -11.300687     8A    -11.219816     9A     -1.748418
      10A     -1.644402    11A     -1.642969    12A     -1.445371
      13A     -1.090957    14A     -1.020151    15A     -0.929490
      16A     -0.844694    17A     -0.838119    18A     -0.811957
      19A     -0.802802    20A     -0.729159    21A     -0.720508
      22A     -0.705408    23A     -0.685889    24A     -0.664763
      25A     -0.658989    26A     -0.648045    27A     -0.646452
      28A     -0.587082    29A     -0.562546    30A     -0.531646
      31A     -0.512107    32A     -0.363158

  @DF-RHF Final Energy:  -527.74188750912435

   => Energetics <=

    Nuclear Repulsion Energy =            407.7787691800124321
    One-Electron Energy =               -1539.4660160266562343
    Two-Electron Energy =                 603.9453593375199034
    DFT Exchange-Correlation Energy =       0.0000000000000000
    Empirical Dispersion Energy =           0.0000000000000000
    PCM Polarization Energy =               0.0000000000000000
    EFP Energy =                            0.0000000000000000
    Total Energy =                       -527.7418875091238988
    Molecular point group: c1
  Basis Set: CC-PVTZ
  Basis Set:

  -Total Gradient:
     Atom            X                  Y                   Z
    ------   -----------------  -----------------  -----------------
       1        0.000003283576     0.000026357508     0.000031200935
       2        0.000028467257    -0.000005374759    -0.000006441446
       3       -0.000051133599    -0.000010301891    -0.000129569164
       4       -0.000006847974    -0.000032808993     0.000009731761
       5        0.000008002297    -0.000040790781     0.000046448792
       6       -0.000005300789     0.000037873092     0.000035459023
       7        0.000046315798     0.000015850689     0.000050833889
       8       -0.000107259126     0.000043051307    -0.000071333390
       9        0.000005923391     0.000013844009     0.000031684151
      10       -0.000010519497     0.000017692652    -0.000026665738
      11        0.000060173048    -0.000017216339    -0.000001159173
      12        0.000019953283    -0.000027308555     0.000035948757
      13        0.000008942323    -0.000020867944    -0.000006138403

  **** Optimization is complete! (in 13 steps) ****
    Final optimized geometry and variables:
    Molecular point group: c1

    Geometry (in Angstrom), charge = 0, multiplicity = 1:

    H           -3.838092808602    -1.627549415573     1.638338552253
    C           -3.180170651091    -0.875369407943     1.253423835282
    C           -1.943507584379    -1.188545559056     0.952684865062
    H           -3.548566533108     0.125157510603     1.139131403092
    O           -1.048190524052    -0.274564998131     0.519527050392
    H           -1.562038412851    -2.188808061051     1.064161495351
    C            0.002846122897    -0.754011589269    -0.243591959853
    C            0.995311706539     0.366631756760    -0.443708161372
    H           -0.327012366647    -1.084376160427    -1.222046381130
    H            0.522849486478    -1.567854273890     0.249508204098
    F            2.001498735816    -0.072972455334    -1.174103136474
    F            0.465091147939     1.390445358686    -1.068447139545
    F            1.486022026528     0.798507517181     0.693628641049

  Mulliken Charges: (a.u.)
   Center  Symbol    Alpha    Beta     Spin     Total
       1     H     0.42494  0.42494  0.00000  0.15011
       2     C     3.18666  3.18666  0.00000 -0.37333
       3     C     2.97044  2.97044  0.00000  0.05913
       4     H     0.42280  0.42280  0.00000  0.15441
       5     O     4.14033  4.14033  0.00000 -0.28067
       6     H     0.43662  0.43662  0.00000  0.12676
       7     C     3.00127  3.00127  0.00000 -0.00254
       8     C     2.67283  2.67283  0.00000  0.65434
       9     H     0.45773  0.45773  0.00000  0.08453
      10     H     0.45970  0.45970  0.00000  0.08059
      11     F     4.61251  4.61251  0.00000 -0.22502
      12     F     4.60689  4.60689  0.00000 -0.21379
      13     F     4.60727  4.60727  0.00000 -0.21453

   Total alpha = 32.00000, Total beta = 32.00000, Total charge =  0.00000

*** Psi4 exiting successfully. Buy a developer a beer!
