                              Psi4 1.0.54 Driver

  ==> Input File <==

--------------------------------------------------------------------------
set {
	reference rhf
	basis cc-pvtz
}

set_num_threads( 4 )
memory 2 gb

molecule MOL {
0 1

H	 -3.401682	 -1.036167	 0.000000
O	 -3.113760	 -0.140926	 0.000000
C	 -1.775087	 -0.058754	 0.000000
C	 -1.002384	 -0.601020	 -1.019467
C	 -1.173850	 0.593413	 1.063661
H	 -1.476121	 -1.105508	 -1.841351
C	 0.366764	 -0.488392	 -0.970049
H	 -1.788066	 1.004442	 1.839427
C	 0.198367	 0.697605	 1.098170
H	 0.974069	 -0.902458	 -1.750330
C	 0.984274	 0.162190	 0.089146
H	 0.665875	 1.203354	 1.922896
C	 2.452626	 0.286190	 0.147697
O	 3.203878	 -0.138211	 -0.665728
H	 2.832852	 0.817925	 1.026610

	symmetry c1
}
set optking {
	frozen_dihedral = ("
		5 3 2 1
	")
}

ee,wfn = optimize('scf', return_wfn=True)
oeprop( wfn, 'DIPOLE', 'QUADRUPOLE', 'MULLIKEN_CHARGES')
f=open( 'psi4out.xyz', 'w' )
f.write( "15  " )
f.write( str(ee) + "\n" )
f.write( MOL.save_string_xyz() )
f.close()
--------------------------------------------------------------------------

    Molecular point group: c1
  Charge       = 0
  Multiplicity = 1
  Basis Set: CC-PVTZ
  Basis Set:
  @DF-RHF Final Energy:  -418.43768849765064
    Total Energy =                       -418.4376884976511519
    Molecular point group: c1
  Basis Set: CC-PVTZ
  Basis Set:
  Basis Set: CC-PVTZ
  Basis Set:
  @DF-RHF Final Energy:  -418.43807441721117
    Total Energy =                       -418.4380744172111690
  Basis Set: CC-PVTZ
  Basis Set:
  Basis Set: CC-PVTZ
  Basis Set:
  @DF-RHF Final Energy:  -418.43807407016436
    Total Energy =                       -418.4380740701644754
  Basis Set: CC-PVTZ
  Basis Set:
  Basis Set: CC-PVTZ
  Basis Set:
  @DF-RHF Final Energy:  -418.43782107860113
    Total Energy =                       -418.4378210786010186
  Basis Set: CC-PVTZ
  Basis Set:
  Basis Set: CC-PVTZ
  Basis Set:
  @DF-RHF Final Energy:  -418.43812415776887
    Total Energy =                       -418.4381241577688115
  Basis Set: CC-PVTZ
  Basis Set:
  Charge       = 0
  Multiplicity = 1
  Basis Set: CC-PVTZ
  Basis Set:

    Orbital Energies (a.u.)
    -----------------------

    Doubly Occupied:

       1A    -20.591282     2A    -20.549721     3A    -11.325674
       4A    -11.314743     5A    -11.257986     6A    -11.252659
       7A    -11.242018     8A    -11.241572     9A    -11.239604
      10A     -1.421357    11A     -1.405868    12A     -1.175654
      13A     -1.045096    14A     -1.041297    15A     -0.890373
      16A     -0.864544    17A     -0.798920    18A     -0.757532
      19A     -0.714271    20A     -0.672447    21A     -0.652461
      22A     -0.634921    23A     -0.622667    24A     -0.610070
      25A     -0.566102    26A     -0.558682    27A     -0.546062
      28A     -0.504347    29A     -0.488935    30A     -0.424572
      31A     -0.360574    32A     -0.342514

  @DF-RHF Final Energy:  -418.43812483161776

   => Energetics <=

    Nuclear Repulsion Energy =            401.8397795855096319
    One-Electron Energy =               -1366.3267570909133610
    Two-Electron Energy =                 546.0488526737858592
    DFT Exchange-Correlation Energy =       0.0000000000000000
    Empirical Dispersion Energy =           0.0000000000000000
    PCM Polarization Energy =               0.0000000000000000
    EFP Energy =                            0.0000000000000000
    Total Energy =                       -418.4381248316178699
    Molecular point group: c1
  Basis Set: CC-PVTZ
  Basis Set:

  -Total Gradient:
     Atom            X                  Y                   Z
    ------   -----------------  -----------------  -----------------
       1       -0.000120426267    -0.000057927814     0.002934403690
       2        0.000087485035    -0.000868779342    -0.003142114559
       3       -0.000002812024     0.002736287305    -0.001001750054
       4       -0.000166741708    -0.000013342173     0.000087255829
       5        0.000158083712    -0.001805125620     0.001111602429
       6        0.000004945604     0.000006566454    -0.000006962547
       7        0.000146052359     0.000068864310     0.000085443115
       8       -0.000002755740    -0.000003023310    -0.000015048649
       9       -0.000110257535    -0.000022948064     0.000094956625
      10       -0.000009851294    -0.000001236763    -0.000002840586
      11        0.000003870190    -0.000064065668    -0.000137004173
      12        0.000015432725     0.000007470760    -0.000011596516
      13        0.000004002554     0.000055826796     0.000004190926
      14        0.000002130795    -0.000028894161    -0.000011946112
      15       -0.000009158408    -0.000009672709     0.000011410580

  **** Optimization is complete! (in 6 steps) ****
    Final optimized geometry and variables:
    Molecular point group: c1

    Geometry (in Angstrom), charge = 0, multiplicity = 1:

    H           -3.426480718755    -0.997551040086    -0.037977984834
    O           -3.126527877609    -0.105619186326    -0.014869120179
    C           -1.770833575453    -0.050212951031     0.030857515885
    C           -1.003981682879    -0.586350277965    -0.995242528214
    C           -1.168159724146     0.565976263717     1.108777177034
    H           -1.491745971652    -1.051106745279    -1.830450522389
    C            0.366506880319    -0.502491070399    -0.936577977491
    H           -1.779924871681     0.971002417923     1.889869474131
    C            0.209382750702     0.655215163760     1.152192739049
    H            0.972970753116    -0.910628797909    -1.720548002326
    C            0.985999851218     0.122300531098     0.139076891443
    H            0.681716675186     1.137888706624     1.987828137968
    C            2.459254517252     0.222000589464     0.209197234563
    O            3.206614195204    -0.207241829444    -0.603776346556
    H            2.841691062399     0.738199645869     1.096250245221

  Mulliken Charges: (a.u.)
   Center  Symbol    Alpha    Beta     Spin     Total
       1     H     0.38415  0.38415  0.00000  0.23170
       2     O     4.18285  4.18285  0.00000 -0.36570
       3     C     2.86188  2.86188  0.00000  0.27624
       4     C     3.11830  3.11830  0.00000 -0.23660
       5     C     3.10703  3.10703  0.00000 -0.21406
       6     H     0.41739  0.41739  0.00000  0.16522
       7     C     3.07008  3.07008  0.00000 -0.14015
       8     H     0.41357  0.41357  0.00000  0.17287
       9     C     3.07410  3.07410  0.00000 -0.14820
      10     H     0.40695  0.40695  0.00000  0.18610
      11     C     2.99729  2.99729  0.00000  0.00541
      12     H     0.42085  0.42085  0.00000  0.15830
      13     C     2.91023  2.91023  0.00000  0.17954
      14     O     4.17593  4.17593  0.00000 -0.35187
      15     H     0.45940  0.45940  0.00000  0.08120

   Total alpha = 32.00000, Total beta = 32.00000, Total charge =  0.00000

*** Psi4 exiting successfully. Buy a developer a beer!
