  ==> Input File <==

--------------------------------------------------------------------------
set {
	reference rhf
	basis cc-pvtz
}

set_num_threads( 4 )
memory 2 gb

molecule MOL {
0 1

H	 2.415411	 2.948868	 0.772056
O	 1.477024	 2.912301	 0.811029
C	 1.016221	 1.712952	 0.405213
C	 1.862846	 0.695449	 -0.007819
C	 -0.349249	 1.514224	 0.409579
H	 2.926295	 0.851971	 -0.010590
C	 1.343079	 -0.516599	 -0.414927
H	 -1.005747	 2.298097	 0.728010
C	 -0.861704	 0.296439	 0.000000
H	 2.007752	 -1.296504	 -0.732386
C	 -0.021700	 -0.723469	 -0.413528
C	 -2.330689	 0.069587	 0.000000
H	 -0.428792	 -1.664900	 -0.729554
O	 -2.848621	 -0.993976	 0.000000
H	 -2.934306	 0.982410	 0.000000

	symmetry c1
}
set optking {
	frozen_dihedral = ("
		11 9 12 14
	")
}

ee = optimize('scf')
oeprop('DIPOLE', 'QUADRUPOLE', 'MULLIKEN_CHARGES')
f=open( 'psi4out.xyz', 'w' )
f.write( "15  " )
f.write( str(ee) + "\n" )
f.write( MOL.save_string_xyz() )
f.close()
--------------------------------------------------------------------------

    Molecular point group: c1
  Charge       = 0
  Multiplicity = 1
  Basis Set: CC-PVTZ
  Basis Set:
  @DF-RHF Final Energy:  -418.43757328350983
    Total Energy =                       -418.4375732835096642
    Molecular point group: c1
  Basis Set: CC-PVTZ
  Basis Set:
  Basis Set: CC-PVTZ
  Basis Set:
  @DF-RHF Final Energy:  -418.43698682751602
    Total Energy =                       -418.4369868275164208
  Basis Set: CC-PVTZ
  Basis Set:
  Basis Set: CC-PVTZ
  Basis Set:
  @DF-RHF Final Energy:  -418.43770647361845
    Total Energy =                       -418.4377064736186185
  Basis Set: CC-PVTZ
  Basis Set:
  Basis Set: CC-PVTZ
  Basis Set:
  @DF-RHF Final Energy:  -418.43798437838029
    Total Energy =                       -418.4379843783807473
  Basis Set: CC-PVTZ
  Basis Set:
  Basis Set: CC-PVTZ
  Basis Set:
  @DF-RHF Final Energy:  -418.43798988201985
    Total Energy =                       -418.4379898820200196
  Basis Set: CC-PVTZ
  Basis Set:
  Charge       = 0
  Multiplicity = 1
  Basis Set: CC-PVTZ
  Basis Set:

    Orbital Energies (a.u.)
    -----------------------

    Doubly Occupied:

       1A    -20.598489     2A    -20.555717     3A    -11.328305
       4A    -11.313406     5A    -11.251638     6A    -11.248939
       7A    -11.245739     8A    -11.244261     9A    -11.236368
      10A     -1.429880    11A     -1.411266    12A     -1.173969
      13A     -1.054032    14A     -1.028367    15A     -0.904226
      16A     -0.849521    17A     -0.817932    18A     -0.741945
      19A     -0.705069    20A     -0.679096    21A     -0.665808
      22A     -0.633734    23A     -0.614344    24A     -0.610881
      25A     -0.583557    26A     -0.554384    27A     -0.541075
      28A     -0.519277    29A     -0.492446    30A     -0.427027
      31A     -0.360442    32A     -0.329385

  @DF-RHF Final Energy:  -418.43799158243752

   => Energetics <=

    Nuclear Repulsion Energy =            403.2280320246208589
    One-Electron Energy =               -1369.0310013850687483
    Two-Electron Energy =                 547.3649777780104841
    DFT Exchange-Correlation Energy =       0.0000000000000000
    Empirical Dispersion Energy =           0.0000000000000000
    PCM Polarization Energy =               0.0000000000000000
    EFP Energy =                            0.0000000000000000
    Total Energy =                       -418.4379915824373484
    Molecular point group: c1
  Basis Set: CC-PVTZ
  Basis Set:

  -Total Gradient:
     Atom            X                  Y                   Z
    ------   -----------------  -----------------  -----------------
       1        0.000002420810     0.000003740487     0.000003817812
       2        0.000001054863    -0.000035176025     0.000002534784
       3       -0.000044394989     0.000059495109    -0.000032060567
       4        0.000001581406    -0.000040447967    -0.000026722418
       5       -0.000010319635     0.000030068090     0.000045668823
       6       -0.000001911623    -0.000011131537    -0.000005672349
       7        0.000034563278     0.000027246307     0.000064276064
       8        0.000016118615    -0.000007920615    -0.000013453947
       9        0.000164782493    -0.001621016187     0.005507617200
      10        0.000001488367    -0.000003309679    -0.000007692841
      11       -0.000138512967     0.001099686156    -0.002675841407
      12       -0.000049359420     0.000559856584    -0.006356391812
      13       -0.000007179166    -0.000016611940    -0.000021102076
      14       -0.000011405589    -0.000043080765     0.003522073199
      15        0.000041073551    -0.000001398020    -0.000007050466

  **** Optimization is complete! (in 6 steps) ****
    Final optimized geometry and variables:
    Molecular point group: c1

    Geometry (in Angstrom), charge = 0, multiplicity = 1:

    H            2.492777981695     2.375317721878     0.679353506625
    O            1.554251759607     2.329654207893     0.710940482859
    C            1.111093594209     1.123975303162     0.302935285139
    C            1.958347272928     0.114659270448    -0.107243268559
    C           -0.258323835242     0.914861832938     0.295308666621
    H            3.021259111750     0.274776206383    -0.112396070796
    C            1.438959397976    -1.103080863020    -0.518707010274
    H           -0.908017101737     1.712630531902     0.600955557716
    C           -0.764398265119    -0.307894010025    -0.094210735938
    H            2.109120066235    -1.875390708824    -0.843758719154
    C            0.081705167643    -1.325015546345    -0.514925621703
    C           -2.239053450970    -0.502266593277    -0.103008007055
    H           -0.331275849387    -2.263463894542    -0.824422992667
    O           -2.775030190249    -1.556456367315    -0.120450410914
    H           -2.825420950752     0.420978017254    -0.061961793156

  Mulliken Charges: (a.u.)
   Center  Symbol    Alpha    Beta     Spin     Total
       1     H     0.38627  0.38627  0.00000  0.22747
       2     O     4.17213  4.17213  0.00000 -0.34425
       3     C     2.84216  2.84216  0.00000  0.31567
       4     C     3.13016  3.13016  0.00000 -0.26032
       5     C     3.12858  3.12858  0.00000 -0.25717
       6     H     0.43143  0.43143  0.00000  0.13714
       7     C     3.06026  3.06026  0.00000 -0.12052
       8     H     0.41872  0.41872  0.00000  0.16257
       9     C     2.95896  2.95896  0.00000  0.08207
      10     H     0.41868  0.41868  0.00000  0.16264
      11     C     3.10475  3.10475  0.00000 -0.20951
      12     C     2.91221  2.91221  0.00000  0.17558
      13     H     0.41049  0.41049  0.00000  0.17902
      14     O     4.16822  4.16822  0.00000 -0.33643
      15     H     0.45698  0.45698  0.00000  0.08604

   Total alpha = 32.00000, Total beta = 32.00000, Total charge = -0.00000
