  ==> Input File <==

--------------------------------------------------------------------------
set {
	reference rhf
	basis 6-31G*
}

set_num_threads( 1 )
memory 2 gb

molecule MOL {
0 1

H	 3.276176	 0.174363	 -0.109463
N	 2.434251	 -0.367735	 -0.081097
C	 1.267428	 0.496480	 0.024474
H	 2.501951	 -0.965776	 0.720575
C	 -0.016086	 -0.325158	 -0.029487
H	 1.288818	 1.183521	 -0.816092
H	 1.267576	 1.109062	 0.929528
C	 -1.282277	 0.529072	 0.046735
H	 -0.012495	 -0.908639	 -0.945788
H	 -0.015903	 -1.041248	 0.791956
C	 -2.561810	 -0.306117	 0.077639
H	 -1.313985	 1.203309	 -0.806721
H	 -1.243208	 1.159913	 0.932438
H	 -2.648116	 -0.922756	 -0.812321
H	 -3.443139	 0.325605	 0.129677
H	 -2.577306	 -0.967362	 0.939460

	symmetry c1
}
set optking {
	frozen_dihedral = ("
		6 3 5 9,
		1 2 3 6
	")
}

ee = energy('scf')
oeprop('DIPOLE', 'QUADRUPOLE', 'MULLIKEN_CHARGES')
f=open( 'psi4out.xyz', 'w' )
f.write( "16  " )
f.write( str(ee) + "\n" )
f.write( MOL.save_string_xyz() )
f.close()
--------------------------------------------------------------------------

    Molecular point group: c1

    Geometry (in Angstrom), charge = 0, multiplicity = 1:

       Center              X                  Y                   Z               Mass
    ------------   -----------------  -----------------  -----------------  -----------------
           H          3.275743929121     0.175257328653    -0.126667098317     1.007825032070
           N          2.433818929121    -0.366840671347    -0.098301098317    14.003074004780
           C          1.266995929121     0.497374328653     0.007269901683    12.000000000000
           H          2.501518929121    -0.964881671347     0.703370901683     1.007825032070
           C         -0.016518070879    -0.324263671347    -0.046691098317    12.000000000000
           H          1.288385929121     1.184415328653    -0.833296098317     1.007825032070
           H          1.267143929121     1.109956328653     0.912323901683     1.007825032070
           C         -1.282709070879     0.529966328653     0.029530901683    12.000000000000
           H         -0.012927070879    -0.907744671347    -0.962992098317     1.007825032070
           H         -0.016335070879    -1.040353671347     0.774751901683     1.007825032070
           C         -2.562242070879    -0.305222671347     0.060434901683    12.000000000000
           H         -1.314417070879     1.204203328653    -0.823925098317     1.007825032070
           H         -1.243640070879     1.160807328653     0.915233901683     1.007825032070
           H         -2.648548070879    -0.921861671347    -0.829525098317     1.007825032070
           H         -3.443571070879     0.326499328653     0.112472901683     1.007825032070
           H         -2.577738070879    -0.966467671347     0.922255901683     1.007825032070

  Charge       = 0
  Multiplicity = 1
  Basis Set: 6-31G*
  Basis Set:

    Orbital Energies (a.u.)
    -----------------------

    Doubly Occupied:

       1A    -15.532641     2A    -11.239921     3A    -11.215061
       4A    -11.209663     5A    -11.207971     6A     -1.176747
       7A     -1.059535     8A     -0.958682     9A     -0.843682
      10A     -0.792018    11A     -0.664237    12A     -0.637394
      13A     -0.604749    14A     -0.576212    15A     -0.564393
      16A     -0.524803    17A     -0.500991    18A     -0.470021
      19A     -0.464819    20A     -0.461461    21A     -0.381244

  @DF-RHF Final Energy:  -212.31697637049578

   => Energetics <=

    Nuclear Repulsion Energy =            186.2649644534814968
    One-Electron Energy =                -654.9914086086281486
    Two-Electron Energy =                 256.4094677846511559
    DFT Exchange-Correlation Energy =       0.0000000000000000
    Empirical Dispersion Energy =           0.0000000000000000
    PCM Polarization Energy =               0.0000000000000000
    EFP Energy =                            0.0000000000000000
    Total Energy =                       -212.3169763704954676

  Mulliken Charges: (a.u.)
   Center  Symbol    Alpha    Beta     Spin     Total
       1     H     0.33248  0.33248  0.00000  0.33505
       2     N     3.92177  3.92177  0.00000 -0.84355
       3     C     3.06040  3.06040  0.00000 -0.12081
       4     H     0.33533  0.33533  0.00000  0.32934
       5     C     3.15038  3.15038  0.00000 -0.30076
       6     H     0.42088  0.42088  0.00000  0.15824
       7     H     0.43477  0.43477  0.00000  0.13047
       8     C     3.15563  3.15563  0.00000 -0.31126
       9     H     0.41322  0.41322  0.00000  0.17356
      10     H     0.42806  0.42806  0.00000  0.14388
      11     C     3.23872  3.23872  0.00000 -0.47743
      12     H     0.42227  0.42227  0.00000  0.15545
      13     H     0.42392  0.42392  0.00000  0.15215
      14     H     0.42056  0.42056  0.00000  0.15889
      15     H     0.41962  0.41962  0.00000  0.16075
      16     H     0.42200  0.42200  0.00000  0.15601

   Total alpha = 21.00000, Total beta = 21.00000, Total charge =  0.00000
