                              Psi4 1.0.54 Driver

  ==> Input File <==

--------------------------------------------------------------------------
set {
	reference rhf
	basis cc-pvtz
}

set_num_threads( 4 )
memory 2 gb

molecule MOL {
0 1

H	 -2.362939	 -1.309000	 -0.383250
C	 -1.359344	 -1.272457	 0.020748
C	 -0.684082	 0.000127	 -0.464918
H	 -0.825835	 -2.151141	 -0.318537
H	 -1.416276	 -1.292399	 1.099455
C	 -1.359089	 1.272668	 0.021259
N	 0.742439	 -0.000109	 0.007333
H	 -0.596914	 0.000345	 -1.538146
H	 -2.362696	 1.309620	 -0.382686
H	 -0.825392	 2.151374	 -0.317674
H	 -1.415983	 1.292181	 1.099973
O	 1.372357	 0.988732	 -0.163082
O	 1.148177	 -0.989071	 0.520773

	symmetry c1
}
set optking {
	frozen_dihedral = ("
		12 7 3 8
	")
}

ee,wfn = optimize('scf', return_wfn=True)
oeprop( wfn, 'DIPOLE', 'QUADRUPOLE', 'MULLIKEN_CHARGES')
f=open( 'psi4out.xyz', 'w' )
f.write( "13  " )
f.write( str(ee) + "\n" )
f.write( MOL.save_string_xyz() )
f.close()
--------------------------------------------------------------------------

    Molecular point group: c1
  Charge       = 0
  Multiplicity = 1
  Basis Set: CC-PVTZ
  Basis Set:
  @DF-RHF Final Energy:  -321.86165447983797
    Total Energy =                       -321.8616544798380801
    Molecular point group: c1
  Basis Set: CC-PVTZ
  Basis Set:
  Basis Set: CC-PVTZ
  Basis Set:
  @DF-RHF Final Energy:  -321.86145422107563
    Total Energy =                       -321.8614542210759168
  Basis Set: CC-PVTZ
  Basis Set:
  Basis Set: CC-PVTZ
  Basis Set:
  @DF-RHF Final Energy:  -321.85850185507900
    Total Energy =                       -321.8585018550788845
  Basis Set: CC-PVTZ
  Basis Set:
  Basis Set: CC-PVTZ
  Basis Set:
  @DF-RHF Final Energy:  -321.86231605927765
    Total Energy =                       -321.8623160592774752
  Basis Set: CC-PVTZ
  Basis Set:
  Basis Set: CC-PVTZ
  Basis Set:
  @DF-RHF Final Energy:  -321.86245332844254
    Total Energy =                       -321.8624533284427116
  Basis Set: CC-PVTZ
  Basis Set:
  Basis Set: CC-PVTZ
  Basis Set:
  @DF-RHF Final Energy:  -321.86254037401534
    Total Energy =                       -321.8625403740151114
  Basis Set: CC-PVTZ
  Basis Set:
  Basis Set: CC-PVTZ
  Basis Set:
  @DF-RHF Final Energy:  -321.86254314998109
    Total Energy =                       -321.8625431499810929
  Basis Set: CC-PVTZ
  Basis Set:
  Charge       = 0
  Multiplicity = 1
  Basis Set: CC-PVTZ
  Basis Set:

    Orbital Energies (a.u.)
    -----------------------

    Doubly Occupied:

       1A    -20.590972     2A    -20.586041     3A    -15.833836
       4A    -11.306681     5A    -11.240595     6A    -11.237289
       7A     -1.634483     8A     -1.418213     9A     -1.140009
      10A     -0.968299    11A     -0.958194    12A     -0.815040
      13A     -0.764070    14A     -0.730141    15A     -0.723457
      16A     -0.641065    17A     -0.594873    18A     -0.586954
      19A     -0.570330    20A     -0.523237    21A     -0.521441
      22A     -0.483745    23A     -0.472451    24A     -0.451855

  @DF-RHF Final Energy:  -321.86254406008095

   => Energetics <=

    Nuclear Repulsion Energy =            257.2727801254518454
    One-Electron Energy =                -948.6841065194115572
    Two-Electron Energy =                 369.5487823338787052
    DFT Exchange-Correlation Energy =       0.0000000000000000
    Empirical Dispersion Energy =           0.0000000000000000
    PCM Polarization Energy =               0.0000000000000000
    EFP Energy =                            0.0000000000000000
    Total Energy =                       -321.8625440600810066
    Molecular point group: c1
  Basis Set: CC-PVTZ
  Basis Set:

  -Total Gradient:
     Atom            X                  Y                   Z
    ------   -----------------  -----------------  -----------------
       1        0.000002035964    -0.000015654342     0.000007578248
       2       -0.000015531478    -0.000014351304    -0.000007739971
       3       -0.000121670428     0.001572317298     0.000364046333
       4       -0.000008332455    -0.000010798657     0.000005054363
       5       -0.000006017386    -0.000004311748     0.000001265562
       6        0.000027398877     0.000002549836     0.000031347689
       7        0.000453036217    -0.000691165758    -0.001531726242
       8        0.000005490667    -0.001246876806     0.000010738255
       9        0.000001303438    -0.000010257186    -0.000008760825
      10        0.000013126242     0.000029195849    -0.000000612695
      11       -0.000003224868     0.000008655501    -0.000000388132
      12       -0.000375251896     0.000366404769     0.001129533783
      13        0.000027637107     0.000014292545    -0.000000336366

  **** Optimization is complete! (in 8 steps) ****
    Final optimized geometry and variables:
    Molecular point group: c1

    Geometry (in Angstrom), charge = 0, multiplicity = 1:

    H           -2.417963809819    -1.218253571551    -0.412028367726
    C           -1.415904081749    -1.250782157084    -0.002727337387
    C           -0.682795441758    -0.000443087508    -0.449530657610
    H           -0.928754238383    -2.147034445879    -0.353460058001
    H           -1.487041261360    -1.299731704979     1.075409614077
    C           -1.347519472886     1.289131454926     0.007234535556
    N            0.752742980420    -0.013662906516     0.023965221718
    H           -0.573803231152    -0.001156175375    -1.525983641971
    H           -2.359286277175     1.310367080567    -0.376168197875
    H           -0.818785542228     2.155960410389    -0.354332942543
    H           -1.394604082615     1.333676956804     1.088703371758
    O            1.380448797374     0.976752426033    -0.153474098463
    O            1.174878779927    -1.001662067947     0.520419961298

  Mulliken Charges: (a.u.)
   Center  Symbol    Alpha    Beta     Spin     Total
       1     H     0.45045  0.45045  0.00000  0.09909
       2     C     3.14236  3.14236  0.00000 -0.28473
       3     C     3.00664  3.00664  0.00000 -0.01328
       4     H     0.43497  0.43497  0.00000  0.13005
       5     H     0.44404  0.44404  0.00000  0.11191
       6     C     3.14424  3.14424  0.00000 -0.28847
       7     N     3.27534  3.27534  0.00000  0.44932
       8     H     0.43028  0.43028  0.00000  0.13945
       9     H     0.45020  0.45020  0.00000  0.09960
      10     H     0.43052  0.43052  0.00000  0.13895
      11     H     0.44659  0.44659  0.00000  0.10682
      12     O     4.17491  4.17491  0.00000 -0.34982
      13     O     4.16945  4.16945  0.00000 -0.33890

   Total alpha = 24.00000, Total beta = 24.00000, Total charge = -0.00000

*** Psi4 exiting successfully. Buy a developer a beer!
