  ==> Input File <==

--------------------------------------------------------------------------
set {
	reference rhf
	basis cc-pvtz
}

set_num_threads( 4 )
memory 2 gb

molecule MOL {
0 1

H	 -1.855418	 -0.948915	 3.715074
C	 -1.100303	 -0.865529	 2.958131
C	 -1.079788	 -1.743493	 1.883612
C	 -0.136527	 0.112716	 3.035904
H	 -1.823914	 -2.513423	 1.806043
C	 -0.114135	 -1.640248	 0.911564
H	 -0.136097	 0.801172	 3.859747
C	 0.846058	 0.231132	 2.062809
H	 -0.089390	 -2.313468	 0.077398
C	 0.857655	 -0.648728	 0.996137
H	 1.581904	 1.003137	 2.152256
O	 1.760432	 -0.625184	 0.000000
C	 2.773565	 0.334879	 0.000000
H	 2.728295	 0.960928	 -0.884150
H	 3.706387	 -0.206610	 0.000000
H	 2.728295	 0.960928	 0.884150

	symmetry c1
}
set optking {
	frozen_dihedral = ("
		10 12 13 14
	")
}

ee = optimize('scf')
oeprop('DIPOLE', 'QUADRUPOLE', 'MULLIKEN_CHARGES')
f=open( 'psi4out.xyz', 'w' )
f.write( "16  " )
f.write( str(ee) + "\n" )
f.write( MOL.save_string_xyz() )
f.close()
--------------------------------------------------------------------------

    Molecular point group: c1
  Charge       = 0
  Multiplicity = 1
  Basis Set: CC-PVTZ
  Basis Set:
  @DF-RHF Final Energy:  -344.69523604822120
    Total Energy =                       -344.6952360482212612
    Molecular point group: c1
  Basis Set: CC-PVTZ
  Basis Set:
  Basis Set: CC-PVTZ
  Basis Set:
  @DF-RHF Final Energy:  -344.69373468745709
    Total Energy =                       -344.6937346874568675
  Basis Set: CC-PVTZ
  Basis Set:
  Basis Set: CC-PVTZ
  Basis Set:
  @DF-RHF Final Energy:  -344.69766256989317
    Total Energy =                       -344.6976625698937369
  Basis Set: CC-PVTZ
  Basis Set:
  Basis Set: CC-PVTZ
  Basis Set:
  @DF-RHF Final Energy:  -344.69795837234756
    Total Energy =                       -344.6979583723473297
  Basis Set: CC-PVTZ
  Basis Set:
  @DF-RHF Final Energy:  -344.69800599014292
    Total Energy =                       -344.6980059901428604
  @DF-RHF Final Energy:  -344.69819056015092
    Total Energy =                       -344.6981905601507492
  @DF-RHF Final Energy:  -344.69775706861157
    Total Energy =                       -344.6977570686113950
  @DF-RHF Final Energy:  -344.69894990745411
    Total Energy =                       -344.6989499074541072
  @DF-RHF Final Energy:  -344.69869647876828
    Total Energy =                       -344.6986964787684542
  @DF-RHF Final Energy:  -344.69875434734513
    Total Energy =                       -344.6987543473451865
  @DF-RHF Final Energy:  -344.69926585243059
    Total Energy =                       -344.6992658524305853
  Basis Set: CC-PVTZ
  Basis Set:
  @DF-RHF Final Energy:  -344.69909853678240
    Total Energy =                       -344.6990985367824578
  Basis Set: CC-PVTZ
  Basis Set:
  Basis Set: CC-PVTZ
  Basis Set:
  @DF-RHF Final Energy:  -344.69928666908737
    Total Energy =                       -344.6992866690876554
  Basis Set: CC-PVTZ
  Basis Set:
  Basis Set: CC-PVTZ
  Basis Set:
  @DF-RHF Final Energy:  -344.69929619079915
    Total Energy =                       -344.6992961907989184
  Basis Set: CC-PVTZ
  Basis Set:
  Charge       = 0
  Multiplicity = 1
  Basis Set: CC-PVTZ
  Basis Set:

    Orbital Energies (a.u.)
    -----------------------

    Doubly Occupied:

       1A    -20.571959     2A    -11.291137     3A    -11.276587
       4A    -11.231604     5A    -11.230202     6A    -11.222971
       7A    -11.219246     8A    -11.219001     9A     -1.410431
      10A     -1.151418    11A     -1.023539    12A     -1.017482
      13A     -0.940833    14A     -0.836267    15A     -0.808844
      16A     -0.722218    17A     -0.667487    18A     -0.666664
      19A     -0.650834    20A     -0.617126    21A     -0.594029
      22A     -0.584602    23A     -0.529518    24A     -0.516638
      25A     -0.510982    26A     -0.484936    27A     -0.452848
      28A     -0.339531    29A     -0.314413

  @DF-RHF Final Energy:  -344.69929711524412

   => Energetics <=

    Nuclear Repulsion Energy =            348.2906558256496510
    One-Electron Energy =               -1157.7732130185572714
    Two-Electron Energy =                 464.7832600776634990
    DFT Exchange-Correlation Energy =       0.0000000000000000
    Empirical Dispersion Energy =           0.0000000000000000
    PCM Polarization Energy =               0.0000000000000000
    EFP Energy =                            0.0000000000000000
    Total Energy =                       -344.6992971152441214
    Molecular point group: c1
  Basis Set: CC-PVTZ
  Basis Set:

  -Total Gradient:
     Atom            X                  Y                   Z
    ------   -----------------  -----------------  -----------------
       1       -0.000001991337    -0.000001157301    -0.000003255879
       2       -0.000003660092     0.000015343889    -0.000004237364
       3        0.000031501258    -0.000030857637     0.000017531158
       4       -0.000019175746     0.000002702002     0.000002810075
       5       -0.000008489976     0.000003886427    -0.000002563954
       6       -0.000011264831     0.000008919624    -0.000026502994
       7        0.000002349380     0.000000772759     0.000000078195
       8        0.000027601923    -0.000022653419    -0.000001929598
       9        0.000005535008     0.000000703069     0.000008205600
      10        0.000360409630    -0.001199378091     0.000154136374
      11        0.000001580030     0.000008126108     0.000001118246
      12       -0.000451930745     0.001586406775    -0.000499163185
      13       -0.000347182352     0.000384406862     0.001545867093
      14        0.000448348193    -0.000732686750    -0.001208168976
      15       -0.000035996282    -0.000013662031    -0.000005210512
      16        0.000002365940    -0.000010872287     0.000021285722

  **** Optimization is complete! (in 15 steps) ****
    Final optimized geometry and variables:
    Molecular point group: c1

    Geometry (in Angstrom), charge = 0, multiplicity = 1:

    H           -2.237185134730    -0.601395569314     2.409814262529
    C           -1.551791558760    -0.421104074686     1.604723839677
    C           -1.464916978077    -1.307500358041     0.545815509704
    C           -0.749113314809     0.701328743872     1.608247595263
    H           -2.084899318399    -2.183711434726     0.527247009318
    C           -0.581670591797    -1.081376356561    -0.488917744093
    H           -0.813218743050     1.404249619156     2.417173504923
    C            0.134555654640     0.944075001598     0.571893873456
    H           -0.505095077864    -1.762579251641    -1.313398433483
    C            0.225015317189     0.044925604262    -0.477017350159
    H            0.733281183736     1.833494758679     0.576944129061
    O            1.033536094578     0.236213607334    -1.540677551348
    C            2.343780524891     0.707325687355    -1.363154303975
    H            2.466380380631     1.643432661965    -1.892106018721
    H            3.025528224859    -0.018956014542    -1.786545757288
    H            2.588745229682     0.846075959378    -0.320064045462

  Mulliken Charges: (a.u.)
   Center  Symbol    Alpha    Beta     Spin     Total
       1     H     0.42412  0.42412  0.00000  0.15175
       2     C     3.09603  3.09603  0.00000 -0.19205
       3     C     3.06087  3.06087  0.00000 -0.12175
       4     C     3.06523  3.06523  0.00000 -0.13046
       5     H     0.42270  0.42270  0.00000  0.15460
       6     C     3.11184  3.11184  0.00000 -0.22367
       7     H     0.42277  0.42277  0.00000  0.15446
       8     C     3.12632  3.12632  0.00000 -0.25263
       9     H     0.41891  0.41891  0.00000  0.16219
      10     C     2.85628  2.85628  0.00000  0.28745
      11     H     0.42322  0.42322  0.00000  0.15356
      12     O     4.16727  4.16727  0.00000 -0.33453
      13     C     3.03772  3.03772  0.00000 -0.07544
      14     H     0.45261  0.45261  0.00000  0.09477
      15     H     0.44975  0.44975  0.00000  0.10051
      16     H     0.46437  0.46437  0.00000  0.07127

   Total alpha = 29.00000, Total beta = 29.00000, Total charge = -0.00000
