                              Psi4 1.0.54 Driver

  ==> Input File <==

--------------------------------------------------------------------------
set {
	reference rhf
	basis cc-pvtz
}

set_num_threads( 4 )
memory 2 gb

molecule MOL {
0 1

H	 -3.436473	 1.252944	 -1.023892
O	 -3.458596	 0.315260	 -0.960865
C	 -3.176635	 -0.080824	 0.355601
C	 -1.763371	 0.265266	 0.799691
H	 -3.321825	 -1.153438	 0.379502
H	 -3.895468	 0.357385	 1.043382
C	 -1.095212	 -0.821671	 1.636622
H	 -1.157878	 0.475478	 -0.080680
H	 -1.805331	 1.192130	 1.366745
C	 0.333305	 -0.472359	 2.045635
H	 -1.097266	 -1.752736	 1.080720
H	 -1.692174	 -0.998199	 2.528239
C	 0.994524	 -1.562093	 2.887250
H	 0.920363	 -0.287166	 1.151232
H	 0.330547	 0.459611	 2.607133
C	 2.399163	 -1.224037	 3.389798
H	 1.032835	 -2.484805	 2.312807
H	 0.362247	 -1.767864	 3.746613
C	 3.455427	 -1.096511	 2.294724
H	 2.710634	 -1.998713	 4.083800
H	 2.362224	 -0.301617	 3.963555
H	 3.510807	 -2.002880	 1.700160
H	 4.435721	 -0.924334	 2.724399
H	 3.246252	 -0.272807	 1.622890

	symmetry c1
}
set optking {
	frozen_dihedral = ("
		7 4 3 2
	")
}

ee,wfn = optimize('scf', return_wfn=True)
oeprop( wfn, 'DIPOLE', 'QUADRUPOLE', 'MULLIKEN_CHARGES')
f=open( 'psi4out.xyz', 'w' )
f.write( "24  " )
f.write( str(ee) + "\n" )
f.write( MOL.save_string_xyz() )
f.close()
--------------------------------------------------------------------------

    Molecular point group: c1
  Charge       = 0
  Multiplicity = 1
  Basis Set: CC-PVTZ
  Basis Set:
  @DF-RHF Final Energy:  -349.37591317425819
    Total Energy =                       -349.3759131742583577
    Molecular point group: c1
  Basis Set: CC-PVTZ
  Basis Set:
  Basis Set: CC-PVTZ
  Basis Set:
  @DF-RHF Final Energy:  -349.37631838650771
    Total Energy =                       -349.3763183865077053
  Basis Set: CC-PVTZ
  Basis Set:
  Basis Set: CC-PVTZ
  Basis Set:
  @DF-RHF Final Energy:  -349.37649740111482
    Total Energy =                       -349.3764974011151025
  Basis Set: CC-PVTZ
  Basis Set:
  Basis Set: CC-PVTZ
  Basis Set:
  @DF-RHF Final Energy:  -349.37649897536807
    Total Energy =                       -349.3764989753678947
  Basis Set: CC-PVTZ
  Basis Set:
  Basis Set: CC-PVTZ
  Basis Set:
  @DF-RHF Final Energy:  -349.37650169290504
    Total Energy =                       -349.3765016929051512
  Basis Set: CC-PVTZ
  Basis Set:
  Charge       = 0
  Multiplicity = 1
  Basis Set: CC-PVTZ
  Basis Set:

    Orbital Energies (a.u.)
    -----------------------

    Doubly Occupied:

       1A    -20.545288     2A    -11.264578     3A    -11.215570
       4A    -11.213638     5A    -11.212912     6A    -11.212438
       7A    -11.211663     8A    -11.206220     9A     -1.362581
      10A     -1.092447    11A     -1.050705    12A     -0.985983
      13A     -0.914642    14A     -0.851552    15A     -0.805313
      16A     -0.778509    17A     -0.693340    18A     -0.647681
      19A     -0.627054    20A     -0.612801    21A     -0.600489
      22A     -0.588867    23A     -0.564499    24A     -0.532673
      25A     -0.520671    26A     -0.518494    27A     -0.487996
      28A     -0.480106    29A     -0.465524    30A     -0.463852
      31A     -0.460702    32A     -0.453925    33A     -0.420423

  @DF-RHF Final Energy:  -349.37650170942732

   => Energetics <=

    Nuclear Repulsion Energy =            380.5777296916063506
    One-Electron Energy =               -1227.7821835205329535
    Two-Electron Energy =                 497.8279521194995141
    DFT Exchange-Correlation Energy =       0.0000000000000000
    Empirical Dispersion Energy =           0.0000000000000000
    PCM Polarization Energy =               0.0000000000000000
    EFP Energy =                            0.0000000000000000
    Total Energy =                       -349.3765017094270888
    Molecular point group: c1
  Basis Set: CC-PVTZ
  Basis Set:

  -Total Gradient:
     Atom            X                  Y                   Z
    ------   -----------------  -----------------  -----------------
       1       -0.000001744055    -0.000017448043    -0.000006713734
       2        0.001120313562    -0.003028352947    -0.001254410400
       3       -0.001084900096     0.003669331198     0.000687128837
       4       -0.001167373181     0.000649871865     0.003323369267
       5        0.000004494469     0.000012298703     0.000009828443
       6        0.000011723790     0.000000104307    -0.000024433480
       7        0.001132733321    -0.001289873164    -0.002741922931
       8        0.000012322234     0.000003805086    -0.000014853915
       9       -0.000024162392    -0.000015010460    -0.000000924616
      10        0.000012173964     0.000020976003     0.000011003230
      11       -0.000007966021    -0.000008344088    -0.000007416505
      12        0.000006977182     0.000000447240     0.000008088349
      13       -0.000014750141    -0.000006821817     0.000023562103
      14        0.000022274739     0.000012725754    -0.000016663935
      15       -0.000001874909     0.000011704113     0.000007131996
      16        0.000005451460    -0.000018020350    -0.000000919903
      17       -0.000001747250    -0.000010017599     0.000004693656
      18       -0.000003527646     0.000000669477     0.000013206511
      19       -0.000009170230     0.000012668519    -0.000008258973
      20       -0.000005645352    -0.000013797709     0.000004377043
      21       -0.000005399674    -0.000001433705     0.000010399688
      22        0.000006081701    -0.000006559293    -0.000003039627
      23        0.000002112380     0.000006284303    -0.000002252544
      24       -0.000008397849     0.000014792608    -0.000020978561

  **** Optimization is complete! (in 6 steps) ****
    Final optimized geometry and variables:
    Molecular point group: c1

    Geometry (in Angstrom), charge = 0, multiplicity = 1:

    H           -3.152332791534     1.858659886482    -2.477137021280
    O           -3.154910566164     0.919489962773    -2.436551772720
    C           -2.846304436614     0.490544666710    -1.136471267120
    C           -1.416846042697     0.834199241635    -0.706153823032
    H           -2.970814129237    -0.583935069363    -1.159275248774
    H           -3.568116137057     0.879049992493    -0.423028932652
    C           -0.741940401003    -0.281202061112     0.088592410449
    H           -0.840407828604     1.015939626843    -1.607501900843
    H           -1.404566998869     1.758357358668    -0.134635662343
    C            0.666553248899     0.076305022752     0.554627359994
    H           -0.702775684921    -1.174618994154    -0.528585141536
    H           -1.351030751922    -0.535422996827     0.953716506850
    C            1.345908443013    -1.055516158057     1.323189050432
    H            1.262976297090     0.349288388909    -0.310297199624
    H            0.621752661143     0.960558371864     1.186517495965
    C            2.729027160538    -0.714381759603     1.880494454786
    H            1.425891623068    -1.928798234787     0.679770745066
    H            0.704378615314    -1.347415966776     2.150286270753
    C            3.799759431594    -0.463712396897     0.821289094347
    H            3.053804512624    -1.532699828317     2.515810490334
    H            2.650259389940     0.156352741450     2.526264509665
    H            3.896336816858    -1.315967465351     0.156185254677
    H            4.765764254188    -0.296044415804     1.283750057774
    H            3.575179894341     0.405114166728     0.214459035594

  Mulliken Charges: (a.u.)
   Center  Symbol    Alpha    Beta     Spin     Total
       1     H     0.39501  0.39501  0.00000  0.20997
       2     O     4.20084  4.20084  0.00000 -0.40167
       3     C     2.96694  2.96694  0.00000  0.06613
       4     C     3.10160  3.10160  0.00000 -0.20321
       5     H     0.45937  0.45937  0.00000  0.08125
       6     H     0.46784  0.46784  0.00000  0.06432
       7     C     3.09690  3.09690  0.00000 -0.19379
       8     H     0.45077  0.45077  0.00000  0.09847
       9     H     0.45650  0.45650  0.00000  0.08700
      10     C     3.09311  3.09311  0.00000 -0.18622
      11     H     0.45109  0.45109  0.00000  0.09782
      12     H     0.45371  0.45371  0.00000  0.09258
      13     C     3.09488  3.09488  0.00000 -0.18976
      14     H     0.45158  0.45158  0.00000  0.09685
      15     H     0.45485  0.45485  0.00000  0.09031
      16     C     3.09047  3.09047  0.00000 -0.18093
      17     H     0.45365  0.45365  0.00000  0.09271
      18     H     0.45000  0.45000  0.00000  0.09999
      19     C     3.15239  3.15239  0.00000 -0.30479
      20     H     0.44844  0.44844  0.00000  0.10312
      21     H     0.45508  0.45508  0.00000  0.08985
      22     H     0.45465  0.45465  0.00000  0.09070
      23     H     0.44652  0.44652  0.00000  0.10696
      24     H     0.45382  0.45382  0.00000  0.09237

   Total alpha = 33.00000, Total beta = 33.00000, Total charge = -0.00000

*** Psi4 exiting successfully. Buy a developer a beer!
