  ==> Input File <==

--------------------------------------------------------------------------
set {
	reference rhf
	basis 6-31G*
}

set_num_threads( 4 )
memory 2 gb

molecule MOL {
0 1

H	 -4.236494	 0.538104	 0.039757
O	 -3.517110	 -0.026191	 -0.205115
C	 -2.306886	 0.532354	 0.237577
C	 -1.177863	 -0.397191	 -0.171080
H	 -2.156308	 1.517575	 -0.201710
H	 -2.315015	 0.655684	 1.319734
C	 0.198102	 0.111031	 0.262842
H	 -1.208843	 -0.518759	 -1.250427
H	 -1.368741	 -1.376554	 0.258909
C	 1.331804	 -0.827780	 -0.158768
H	 0.361943	 1.100838	 -0.156218
H	 0.217265	 0.229072	 1.345532
C	 2.723619	 -0.410569	 0.329459
H	 1.342964	 -0.912588	 -1.244120
H	 1.116806	 -1.824343	 0.220779
C	 2.718472	 0.609758	 1.469302
H	 3.270916	 0.009106	 -0.511033
H	 3.276311	 -1.295392	 0.638949
H	 2.161532	 1.500982	 1.192575
H	 2.272026	 0.207965	 2.372864
H	 3.730190	 0.916940	 1.715917

	symmetry c1
}
set optking {
	frozen_dihedral = ("
		16 13 10 14
	")
}

ee = optimize('scf')
oeprop('DIPOLE', 'QUADRUPOLE', 'MULLIKEN_CHARGES')
f=open( 'psi4out.xyz', 'w' )
f.write( "21  " )
f.write( str(ee) + "\n" )
f.write( MOL.save_string_xyz() )
f.close()
--------------------------------------------------------------------------

    Molecular point group: c1
  Charge       = 0
  Multiplicity = 1
  Basis Set: 6-31G*
  Basis Set:
  @DF-RHF Final Energy:  -310.20428725840139
    Total Energy =                       -310.2042872584015640
    Molecular point group: c1
  Basis Set: 6-31G*
  Basis Set:
  Basis Set: 6-31G*
  Basis Set:
  @DF-RHF Final Energy:  -310.20481206836035
    Total Energy =                       -310.2048120683603543
  Basis Set: 6-31G*
  Basis Set:
  Basis Set: 6-31G*
  Basis Set:
  @DF-RHF Final Energy:  -310.20612794224348
    Total Energy =                       -310.2061279422433699
  Basis Set: 6-31G*
  Basis Set:
  Basis Set: 6-31G*
  Basis Set:
  @DF-RHF Final Energy:  -310.20619830750178
    Total Energy =                       -310.2061983075018361
  Basis Set: 6-31G*
  Basis Set:
  Basis Set: 6-31G*
  Basis Set:
  @DF-RHF Final Energy:  -310.20619920916533
    Total Energy =                       -310.2061992091652769
  Basis Set: 6-31G*
  Basis Set:
  Basis Set: 6-31G*
  Basis Set:
  @DF-RHF Final Energy:  -310.20620786796911
    Total Energy =                       -310.2062078679690558
  Basis Set: 6-31G*
  Basis Set:
  Basis Set: 6-31G*
  Basis Set:
  @DF-RHF Final Energy:  -310.20620949078312
    Total Energy =                       -310.2062094907832943
  Basis Set: 6-31G*
  Basis Set:
  Charge       = 0
  Multiplicity = 1
  Basis Set: 6-31G*
  Basis Set:

    Orbital Energies (a.u.)
    -----------------------

    Doubly Occupied:

       1A    -20.551731     2A    -11.266911     3A    -11.215486
       4A    -11.215388     5A    -11.213915     6A    -11.210399
       7A    -11.208378     8A     -1.358532     9A     -1.084199
      10A     -1.031091    11A     -0.953772    12A     -0.878723
      13A     -0.809247    14A     -0.771947    15A     -0.691676
      16A     -0.663291    17A     -0.629366    18A     -0.597468
      19A     -0.582526    20A     -0.575011    21A     -0.532559
      22A     -0.527145    23A     -0.505912    24A     -0.485977
      25A     -0.484979    26A     -0.457400    27A     -0.448756
      28A     -0.443390    29A     -0.433798

  @DF-RHF Final Energy:  -310.20620939434428

   => Energetics <=

    Nuclear Repulsion Energy =            313.2665520656312879
    One-Electron Energy =               -1041.2875786869506101
    Two-Electron Energy =                 417.8148172269750376
    DFT Exchange-Correlation Energy =       0.0000000000000000
    Empirical Dispersion Energy =           0.0000000000000000
    PCM Polarization Energy =               0.0000000000000000
    EFP Energy =                            0.0000000000000000
    Total Energy =                       -310.2062093943443415
    Molecular point group: c1
  Basis Set: 6-31G*
  Basis Set:

  -Total Gradient:
     Atom            X                  Y                   Z
    ------   -----------------  -----------------  -----------------
       1       -0.000003382941    -0.000002217830     0.000001142065
       2       -0.000004755227     0.000000979605     0.000006918561
       3        0.000002289398    -0.000006459903    -0.000003210723
       4        0.000001089321     0.000021520883    -0.000021133441
       5       -0.000000098589    -0.000006495933    -0.000002232299
       6       -0.000001191033     0.000005484608     0.000004571140
       7       -0.000012331533    -0.000037840887     0.000053465597
       8       -0.000012296314     0.000007250986    -0.000006908480
       9        0.000012316739     0.000002797173    -0.000006480901
      10        0.001749595271    -0.004822605719    -0.000801154172
      11        0.000030638594     0.000010459470     0.000002422656
      12       -0.000026979691    -0.000008026794    -0.000021841676
      13       -0.000111195005    -0.003206256968     0.003765770253
      14       -0.001490570384     0.005064212472    -0.000308810847
      15        0.000015272456    -0.000006024194     0.000003425717
      16       -0.000148943257     0.002979104219    -0.002654377964
      17       -0.000003796670    -0.000005883084    -0.000005147054
      18        0.000006071566    -0.000000849060     0.000006588848
      19       -0.000007460715     0.000008211567    -0.000016540246
      20        0.000005233454     0.000004497479    -0.000005892257
      21        0.000000494562    -0.000001858088     0.000009425223

  **** Optimization is complete! (in 8 steps) ****
    Final optimized geometry and variables:
    Molecular point group: c1

    Geometry (in Angstrom), charge = 0, multiplicity = 1:

    H           -4.186931022660     0.562776235013    -0.310689601609
    O           -3.455944264193     0.009675409041    -0.546604742060
    C           -2.266277918120     0.557216405626    -0.039007767981
    C           -1.117913581792    -0.354091584889    -0.434899424432
    H           -2.103700939324     1.557206508396    -0.438886768832
    H           -2.316777923753     0.644017491642     1.045511480638
    C            0.237945643203     0.145559805393     0.067456750320
    H           -1.109083397740    -0.441502540319    -1.517904987778
    H           -1.319697090525    -1.347549519968    -0.043618394050
    C            1.382051533500    -0.792199338428    -0.338664951096
    H            0.422970287496     1.141465854972    -0.330783105259
    H            0.203086759184     0.248485857263     1.148884085648
    C            2.809399946801    -0.350163708076     0.073221541714
    H            1.347752268106    -0.868595591632    -1.421992738699
    H            1.172823467689    -1.781875683264     0.057609543352
    C            2.917038568345     0.667283862211     1.212394114619
    H            3.301841642346     0.081883925639    -0.794333742368
    H            3.390148412032    -1.231020425805     0.330410564947
    H            2.432021295860     1.604696832714     0.964484840722
    H            2.475115176688     0.297447768713     2.133142476093
    H            3.961011657937     0.883965874494     1.417536228226

  Mulliken Charges: (a.u.)
   Center  Symbol    Alpha    Beta     Spin     Total
       1     H     0.28119  0.28119  0.00000  0.43761
       2     O     4.37187  4.37187  0.00000 -0.74374
       3     C     2.98946  2.98946  0.00000  0.02108
       4     C     3.15907  3.15907  0.00000 -0.31815
       5     H     0.43300  0.43300  0.00000  0.13399
       6     H     0.43289  0.43289  0.00000  0.13423
       7     C     3.16346  3.16346  0.00000 -0.32692
       8     H     0.41502  0.41502  0.00000  0.16995
       9     H     0.41496  0.41496  0.00000  0.17008
      10     C     3.15389  3.15389  0.00000 -0.30778
      11     H     0.42358  0.42358  0.00000  0.15285
      12     H     0.42135  0.42135  0.00000  0.15730
      13     C     3.15443  3.15443  0.00000 -0.30886
      14     H     0.42021  0.42021  0.00000  0.15957
      15     H     0.42061  0.42061  0.00000  0.15878
      16     C     3.24215  3.24215  0.00000 -0.48430
      17     H     0.42184  0.42184  0.00000  0.15631
      18     H     0.41973  0.41973  0.00000  0.16054
      19     H     0.42014  0.42014  0.00000  0.15973
      20     H     0.42193  0.42193  0.00000  0.15614
      21     H     0.41921  0.41921  0.00000  0.16157

   Total alpha = 29.00000, Total beta = 29.00000, Total charge = -0.00000
