                              Psi4 1.0.54 Driver

  ==> Input File <==

--------------------------------------------------------------------------
set {
	reference rhf
	basis cc-pvtz
}

set_num_threads( 4 )
memory 2 gb

molecule MOL {
0 1

O	 -2.440701	 -0.934798	 -0.415053
C	 -1.922978	 0.063265	 -0.045005
C	 -2.632749	 1.372204	 0.158357
O	 -0.637375	 0.157174	 0.243149
H	 -2.187724	 2.129143	 -0.474664
H	 -3.677681	 1.257276	 -0.079438
H	 -2.516788	 1.693160	 1.185542
C	 0.162530	 -1.009518	 0.097799
C	 1.587210	 -0.664190	 0.477086
H	 0.096803	 -1.356267	 -0.924704
H	 -0.233803	 -1.785900	 0.736810
C	 2.256770	 0.342732	 -0.454344
H	 2.154716	 -1.590834	 0.479041
H	 1.598751	 -0.289614	 1.496104
C	 2.811076	 -0.304315	 -1.719133
H	 1.536502	 1.109547	 -0.726942
H	 3.057005	 0.846115	 0.075818
H	 3.276536	 0.432352	 -2.363381
H	 2.026361	 -0.792218	 -2.287961
H	 3.558678	 -1.053188	 -1.479763

	symmetry c1
}
set optking {
	frozen_dihedral = ("
		16 12 9 8
	")
}

ee,wfn = optimize('scf', return_wfn=True)
oeprop( wfn, 'DIPOLE', 'QUADRUPOLE', 'MULLIKEN_CHARGES')
f=open( 'psi4out.xyz', 'w' )
f.write( "20  " )
f.write( str(ee) + "\n" )
f.write( MOL.save_string_xyz() )
f.close()
--------------------------------------------------------------------------

    Molecular point group: c1
  Charge       = 0
  Multiplicity = 1
  Basis Set: CC-PVTZ
  Basis Set:
  @DF-RHF Final Energy:  -384.08507019492328
    Total Energy =                       -384.0850701949232189
    Molecular point group: c1
  Basis Set: CC-PVTZ
  Basis Set:
  Basis Set: CC-PVTZ
  Basis Set:
  @DF-RHF Final Energy:  -384.08523631673586
    Total Energy =                       -384.0852363167356316
  Basis Set: CC-PVTZ
  Basis Set:
  Basis Set: CC-PVTZ
  Basis Set:
  @DF-RHF Final Energy:  -384.08499755766218
    Total Energy =                       -384.0849975576625184
  Basis Set: CC-PVTZ
  Basis Set:
  Basis Set: CC-PVTZ
  Basis Set:
  @DF-RHF Final Energy:  -384.08526554443250
    Total Energy =                       -384.0852655444323318
  Basis Set: CC-PVTZ
  Basis Set:
  Basis Set: CC-PVTZ
  Basis Set:
  @DF-RHF Final Energy:  -384.08526662798488
    Total Energy =                       -384.0852666279844243
  Basis Set: CC-PVTZ
  Basis Set:
  Charge       = 0
  Multiplicity = 1
  Basis Set: CC-PVTZ
  Basis Set:

    Orbital Energies (a.u.)
    -----------------------

    Doubly Occupied:

       1A    -20.594554     2A    -20.532841     3A    -11.366885
       4A    -11.280106     5A    -11.231822     6A    -11.223480
       7A    -11.218821     8A    -11.211480     9A     -1.471268
      10A     -1.365433    11A     -1.086500    12A     -1.028295
      13A     -0.980188    14A     -0.887692    15A     -0.810341
      16A     -0.772599    17A     -0.693458    18A     -0.690724
      19A     -0.668845    20A     -0.623540    21A     -0.615590
      22A     -0.580997    23A     -0.576202    24A     -0.563395
      25A     -0.538838    26A     -0.528666    27A     -0.521628
      28A     -0.482792    29A     -0.476471    30A     -0.469641
      31A     -0.451220    32A     -0.442229

  @DF-RHF Final Energy:  -384.08526664740953

   => Energetics <=

    Nuclear Repulsion Energy =            389.1842511872730483
    One-Electron Energy =               -1294.5659538705147042
    Two-Electron Energy =                 521.2964360358323574
    DFT Exchange-Correlation Energy =       0.0000000000000000
    Empirical Dispersion Energy =           0.0000000000000000
    PCM Polarization Energy =               0.0000000000000000
    EFP Energy =                            0.0000000000000000
    Total Energy =                       -384.0852666474092985
    Molecular point group: c1
  Basis Set: CC-PVTZ
  Basis Set:

  -Total Gradient:
     Atom            X                  Y                   Z
    ------   -----------------  -----------------  -----------------
       1       -0.000017021185    -0.000018290828     0.000002706096
       2       -0.000002859917     0.000016646972     0.000008820583
       3        0.000006784206    -0.000001032446    -0.000010598270
       4        0.000002527361    -0.000017598201     0.000028418990
       5        0.000002364540     0.000006210370     0.000000428209
       6       -0.000004259487    -0.000002947916    -0.000002002744
       7        0.000000318937     0.000000672107     0.000006886284
       8       -0.000588264430     0.001392083275     0.000906171160
       9        0.000707708317    -0.002221842686    -0.001858442749
      10        0.000004091298    -0.000013723325     0.000015476583
      11       -0.000011363281    -0.000003370358     0.000018673219
      12        0.000563437526     0.002199870415     0.002770522438
      13        0.000001729676     0.000009980785    -0.000005278450
      14        0.000009731153     0.000012263603     0.000008301860
      15       -0.000001951318    -0.000008818125     0.000013719522
      16       -0.000670961111    -0.001341971456    -0.001908195225
      17        0.000001398938    -0.000011392193     0.000004074896
      18        0.000000134498     0.000008222892     0.000003223870
      19       -0.000003219959    -0.000002212036    -0.000000871320
      20       -0.000000325763    -0.000002750850    -0.000002034955

  **** Optimization is complete! (in 6 steps) ****
    Final optimized geometry and variables:
    Molecular point group: c1

    Geometry (in Angstrom), charge = 0, multiplicity = 1:

    O           -2.327175390017    -0.812299425207    -0.216134117379
    C           -1.814660495687     0.179637810622     0.176850534729
    C           -2.530149609273     1.481088155203     0.404903281084
    O           -0.530162881330     0.272531692062     0.470296902232
    H           -2.086913074613     2.252267130893    -0.211949820011
    H           -3.574145713593     1.366732921155     0.162696887885
    H           -2.417271160772     1.781708914881     1.438496405200
    C            0.274542266039    -0.888080012036     0.304767897820
    C            1.698598600673    -0.534034489078     0.685787854573
    H            0.196638531318    -1.226304765516    -0.718920602178
    H           -0.111183191398    -1.673034533916     0.939809346109
    C            2.379123396659     0.470418734620    -0.250385819100
    H            2.273480006641    -1.454565081023     0.721413122574
    H            1.680945370832    -0.139909527583     1.696120223136
    C            2.952105918838    -0.167678524759    -1.514502832068
    H            1.664705811117     1.234499212550    -0.534213557258
    H            3.177992426763     0.970136257429     0.285755588769
    H            3.403575740588     0.580269945796    -2.155965449043
    H            2.185657311996    -0.671985958112    -2.092826061499
    H            3.715575007807    -0.899090538496    -1.271157771793

  Mulliken Charges: (a.u.)
   Center  Symbol    Alpha    Beta     Spin     Total
       1     O     4.19719  4.19719  0.00000 -0.39438
       2     C     2.80943  2.80943  0.00000  0.38115
       3     C     3.13812  3.13812  0.00000 -0.27623
       4     O     4.15323  4.15323  0.00000 -0.30645
       5     H     0.44634  0.44634  0.00000  0.10733
       6     H     0.43785  0.43785  0.00000  0.12431
       7     H     0.44560  0.44560  0.00000  0.10879
       8     C     2.99278  2.99278  0.00000  0.01444
       9     C     3.09001  3.09001  0.00000 -0.18002
      10     H     0.45083  0.45083  0.00000  0.09833
      11     H     0.44388  0.44388  0.00000  0.11225
      12     C     3.09320  3.09320  0.00000 -0.18641
      13     H     0.45188  0.45188  0.00000  0.09623
      14     H     0.44670  0.44670  0.00000  0.10660
      15     C     3.14974  3.14974  0.00000 -0.29948
      16     H     0.44903  0.44903  0.00000  0.10195
      17     H     0.44742  0.44742  0.00000  0.10516
      18     H     0.44701  0.44701  0.00000  0.10598
      19     H     0.45451  0.45451  0.00000  0.09097
      20     H     0.45526  0.45526  0.00000  0.08948

   Total alpha = 32.00000, Total beta = 32.00000, Total charge = -0.00000

*** Psi4 exiting successfully. Buy a developer a beer!
