                              Psi4 1.0.54 Driver

  ==> Input File <==

--------------------------------------------------------------------------
set {
	reference rhf
	basis cc-pvtz
}

set_num_threads( 4 )
memory 2 gb

molecule MOL {
0 1

H	 3.250131	 -1.095388	 0.973405
O	 2.824271	 -1.154299	 0.131461
C	 2.076458	 -0.067370	 -0.038225
C	 0.626018	 -0.337582	 0.258241
O	 2.538288	 0.965419	 -0.381593
C	 -0.267326	 0.883135	 0.076490
H	 0.325620	 -1.161483	 -0.378003
H	 0.574537	 -0.713685	 1.275261
C	 -1.726822	 0.642622	 0.463839
H	 -0.210803	 1.217591	 -0.953497
H	 0.129920	 1.693110	 0.675679
C	 -2.480891	 -0.340606	 -0.429852
H	 -2.243098	 1.597649	 0.438609
H	 -1.776542	 0.301208	 1.495542
C	 -3.955933	 -0.460128	 -0.060472
H	 -2.393755	 -0.020485	 -1.464726
H	 -2.024244	 -1.323637	 -0.374360
H	 -4.467673	 -1.160944	 -0.709827
H	 -4.458917	 0.497287	 -0.144505
H	 -4.076458	 -0.806900	 0.960497

	symmetry c1
}
set optking {
	frozen_dihedral = ("
		1 2 3 5
	")
}

ee,wfn = optimize('scf', return_wfn=True)
oeprop( wfn, 'DIPOLE', 'QUADRUPOLE', 'MULLIKEN_CHARGES')
f=open( 'psi4out.xyz', 'w' )
f.write( "20  " )
f.write( str(ee) + "\n" )
f.write( MOL.save_string_xyz() )
f.close()
--------------------------------------------------------------------------

    Molecular point group: c1
  Charge       = 0
  Multiplicity = 1
  Basis Set: CC-PVTZ
  Basis Set:
  @DF-RHF Final Energy:  -384.07477351429037
    Total Energy =                       -384.0747735142903707
    Molecular point group: c1
  Basis Set: CC-PVTZ
  Basis Set:
  Basis Set: CC-PVTZ
  Basis Set:
  @DF-RHF Final Energy:  -384.07423182114286
    Total Energy =                       -384.0742318211426891
  Basis Set: CC-PVTZ
  Basis Set:
  Basis Set: CC-PVTZ
  Basis Set:
  @DF-RHF Final Energy:  -384.07541903022553
    Total Energy =                       -384.0754190302253051
  Basis Set: CC-PVTZ
  Basis Set:
  Basis Set: CC-PVTZ
  Basis Set:
  @DF-RHF Final Energy:  -384.07641886592234
    Total Energy =                       -384.0764188659219371
  Basis Set: CC-PVTZ
  Basis Set:
  Basis Set: CC-PVTZ
  Basis Set:
  @DF-RHF Final Energy:  -384.07642798983619
    Total Energy =                       -384.0764279898365317
  Basis Set: CC-PVTZ
  Basis Set:
  Charge       = 0
  Multiplicity = 1
  Basis Set: CC-PVTZ
  Basis Set:

    Orbital Energies (a.u.)
    -----------------------

    Doubly Occupied:

       1A    -20.586154     2A    -20.550153     3A    -11.373982
       4A    -11.239969     5A    -11.222078     6A    -11.219906
       7A    -11.219133     8A    -11.211338     9A     -1.463463
      10A     -1.369865    11A     -1.098075    12A     -1.041606
      13A     -0.960333    14A     -0.867055    15A     -0.817420
      16A     -0.782733    17A     -0.712468    18A     -0.681330
      19A     -0.661181    20A     -0.640311    21A     -0.614672
      22A     -0.588586    23A     -0.563810    24A     -0.555625
      25A     -0.527754    26A     -0.515878    27A     -0.501918
      28A     -0.494179    29A     -0.471491    30A     -0.467208
      31A     -0.459658    32A     -0.445891

  @DF-RHF Final Energy:  -384.07642756212738

   => Energetics <=

    Nuclear Repulsion Energy =            375.8557219886915846
    One-Electron Energy =               -1268.0138590550914159
    Two-Electron Energy =                 508.0817095042722258
    DFT Exchange-Correlation Energy =       0.0000000000000000
    Empirical Dispersion Energy =           0.0000000000000000
    PCM Polarization Energy =               0.0000000000000000
    EFP Energy =                            0.0000000000000000
    Total Energy =                       -384.0764275621276056
    Molecular point group: c1
  Basis Set: CC-PVTZ
  Basis Set:

  -Total Gradient:
     Atom            X                  Y                   Z
    ------   -----------------  -----------------  -----------------
       1       -0.004004894103    -0.002555626576     0.002696950961
       2        0.004481367347     0.002823394129    -0.005393188001
       3        0.000545572663     0.000793947056     0.007205916417
       4        0.000034452782    -0.000015526578     0.000008452322
       5       -0.001062056914    -0.001046901485    -0.004538804037
       6        0.000028255222     0.000008796101     0.000061744637
       7       -0.000038524995    -0.000048440249    -0.000021612911
       8       -0.000012614748     0.000002367338    -0.000009697368
       9       -0.000021421960     0.000052740520    -0.000018776982
      10       -0.000006100807     0.000014138481     0.000013569922
      11        0.000003478764    -0.000013776579     0.000010132793
      12        0.000021718601     0.000012357914    -0.000022394214
      13       -0.000012862710    -0.000001510792    -0.000022079236
      14       -0.000010757873     0.000027686313     0.000006706633
      15        0.000004374273    -0.000023750776     0.000021086258
      16       -0.000010993834     0.000007101619     0.000010045570
      17        0.000058201745    -0.000030090856    -0.000014100357
      18        0.000002699875    -0.000006623436     0.000004161808
      19        0.000008237453    -0.000000210272    -0.000006284538
      20       -0.000008130771    -0.000000071873     0.000008170323

  **** Optimization is complete! (in 6 steps) ****
    Final optimized geometry and variables:
    Molecular point group: c1

    Geometry (in Angstrom), charge = 0, multiplicity = 1:

    H            3.340021697292    -1.234227272751     0.840822364513
    O            2.830526229839    -1.212326324697     0.047567884352
    C            2.079310097999    -0.082355122573    -0.038203237221
    C            0.624658180099    -0.329803469803     0.259095996478
    O            2.540282304926     0.940100347929    -0.386540269438
    C           -0.258514383545     0.900161656117     0.094775581783
    H            0.317479378713    -1.145428352647    -0.385236767377
    H            0.566583531148    -0.722040816027     1.271291325902
    C           -1.720992096653     0.667662537116     0.476336494593
    H           -0.196947219360     1.247998817554    -0.930458298264
    H            0.144552626312     1.699113449521     0.705417114789
    C           -2.480284019598    -0.300141891735    -0.429773145569
    H           -2.229854865777     1.626848171566     0.460384855850
    H           -1.776132200920     0.315569030351     1.504331641553
    C           -3.954043645287    -0.423454248787    -0.056270756333
    H           -2.396635310446     0.036105392483    -1.459738843808
    H           -2.024730235313    -1.284538189206    -0.391908188903
    H           -4.468582500260    -1.115687249010    -0.712531281969
    H           -4.456801161505     0.535199302209    -0.126362006479
    H           -4.071188001259    -0.783065526877     0.960701399856

  Mulliken Charges: (a.u.)
   Center  Symbol    Alpha    Beta     Spin     Total
       1     H     0.38690  0.38690  0.00000  0.22621
       2     O     4.17684  4.17684  0.00000 -0.35368
       3     C     2.79861  2.79861  0.00000  0.40279
       4     C     3.11560  3.11560  0.00000 -0.23119
       5     O     4.16339  4.16339  0.00000 -0.32677
       6     C     3.09464  3.09464  0.00000 -0.18927
       7     H     0.43557  0.43557  0.00000  0.12887
       8     H     0.44631  0.44631  0.00000  0.10738
       9     C     3.09912  3.09912  0.00000 -0.19825
      10     H     0.44423  0.44423  0.00000  0.11153
      11     H     0.44028  0.44028  0.00000  0.11944
      12     C     3.08688  3.08688  0.00000 -0.17376
      13     H     0.44532  0.44532  0.00000  0.10936
      14     H     0.45462  0.45462  0.00000  0.09076
      15     C     3.14950  3.14950  0.00000 -0.29899
      16     H     0.45187  0.45187  0.00000  0.09625
      17     H     0.45420  0.45420  0.00000  0.09159
      18     H     0.44745  0.44745  0.00000  0.10510
      19     H     0.45352  0.45352  0.00000  0.09296
      20     H     0.45516  0.45516  0.00000  0.08967

   Total alpha = 32.00000, Total beta = 32.00000, Total charge = -0.00000

*** Psi4 exiting successfully. Buy a developer a beer!
