                              Psi4 1.0.54 Driver

  ==> Input File <==

--------------------------------------------------------------------------
set {
	reference rhf
	basis cc-pvtz
}

set_num_threads( 4 )
memory 2 gb

molecule MOL {
0 1

O	 1.426522	 2.024987	 0.359371
C	 0.483273	 2.237420	 1.042153
C	 -0.809208	 1.462548	 1.015586
O	 0.442896	 3.208469	 1.939845
C	 -0.824290	 0.329213	 -0.000115
H	 -0.981661	 1.091871	 2.020727
H	 -1.605705	 2.173792	 0.822798
C	 -2.146151	 -0.432825	 -0.000068
H	 -0.007071	 -0.351009	 0.211367
H	 -0.631578	 0.732150	 -0.987938
C	 -3.366283	 0.483552	 0.000557
H	 -2.189286	 -1.084450	 -0.869996
H	 -2.188867	 -1.085083	 0.869399
C	 -4.687436	 -0.278003	 0.000108
H	 -3.325150	 1.134819	 -0.867957
H	 -3.325087	 1.133730	 0.869885
H	 -4.773783	 -0.912098	 -0.876078
H	 -5.531922	 0.401392	 0.000363
H	 -4.773901	 -0.912898	 0.875703
C	 1.593566	 4.018292	 2.072018
H	 2.447391	 3.423416	 2.360666
H	 1.364280	 4.737940	 2.841032
H	 1.813530	 4.522804	 1.142880

	symmetry c1
}
set optking {
	frozen_dihedral = ("
		9 5 8 12
	")
}

ee,wfn = optimize('scf', return_wfn=True)
oeprop( wfn, 'DIPOLE', 'QUADRUPOLE', 'MULLIKEN_CHARGES')
f=open( 'psi4out.xyz', 'w' )
f.write( "23  " )
f.write( str(ee) + "\n" )
f.write( MOL.save_string_xyz() )
f.close()
--------------------------------------------------------------------------

    Molecular point group: c1
  Charge       = 0
  Multiplicity = 1
  Basis Set: CC-PVTZ
  Basis Set:
  @DF-RHF Final Energy:  -423.12592682325885
    Total Energy =                       -423.1259268232583963
    Molecular point group: c1
  Basis Set: CC-PVTZ
  Basis Set:
  Basis Set: CC-PVTZ
  Basis Set:
  @DF-RHF Final Energy:  -423.12511115158884
    Total Energy =                       -423.1251111515890670
  Basis Set: CC-PVTZ
  Basis Set:
  Basis Set: CC-PVTZ
  Basis Set:
  @DF-RHF Final Energy:  -423.12784071568558
    Total Energy =                       -423.1278407156858066
  Basis Set: CC-PVTZ
  Basis Set:
  Basis Set: CC-PVTZ
  Basis Set:
  @DF-RHF Final Energy:  -423.12792553807560
    Total Energy =                       -423.1279255380753739
  Basis Set: CC-PVTZ
  Basis Set:
  @DF-RHF Final Energy:  -423.12669899295997
    Total Energy =                       -423.1266989929599731
  Basis Set: CC-PVTZ
  Basis Set:
  @DF-RHF Final Energy:  -423.12802260231740
    Total Energy =                       -423.1280226023178557
  Basis Set: CC-PVTZ
  Basis Set:
  Basis Set: CC-PVTZ
  Basis Set:
  @DF-RHF Final Energy:  -423.12803887237845
    Total Energy =                       -423.1280388723781698
  Basis Set: CC-PVTZ
  Basis Set:
  Basis Set: CC-PVTZ
  Basis Set:
  @DF-RHF Final Energy:  -423.12804117321076
    Total Energy =                       -423.1280411732102493
  Basis Set: CC-PVTZ
  Basis Set:
  Charge       = 0
  Multiplicity = 1
  Basis Set: CC-PVTZ
  Basis Set:

    Orbital Energies (a.u.)
    -----------------------

    Doubly Occupied:

       1A    -20.596031     2A    -20.533931     3A    -11.364262
       4A    -11.278305     5A    -11.232954     6A    -11.217597
       7A    -11.216840     8A    -11.215966     9A    -11.209183
      10A     -1.471966    11A     -1.365534    12A     -1.094670
      13A     -1.042796    14A     -0.987952    15A     -0.933547
      16A     -0.852245    17A     -0.792735    18A     -0.763404
      19A     -0.702616    20A     -0.685909    21A     -0.675469
      22A     -0.645296    23A     -0.616225    24A     -0.601948
      25A     -0.577897    26A     -0.559605    27A     -0.554343
      28A     -0.528452    29A     -0.521868    30A     -0.511124
      31A     -0.492794    32A     -0.467600    33A     -0.465710
      34A     -0.460425    35A     -0.453637    36A     -0.440558

  @DF-RHF Final Energy:  -423.12804150716892

   => Energetics <=

    Nuclear Repulsion Energy =            458.8582409868111540
    One-Electron Energy =               -1485.7097799371556448
    Two-Electron Energy =                 603.7234974431758019
    DFT Exchange-Correlation Energy =       0.0000000000000000
    Empirical Dispersion Energy =           0.0000000000000000
    PCM Polarization Energy =               0.0000000000000000
    EFP Energy =                            0.0000000000000000
    Total Energy =                       -423.1280415071687457
    Molecular point group: c1
  Basis Set: CC-PVTZ
  Basis Set:

  -Total Gradient:
     Atom            X                  Y                   Z
    ------   -----------------  -----------------  -----------------
       1        0.000001991789    -0.000003039629    -0.000011948531
       2       -0.000002278414     0.000034559998     0.000039337385
       3        0.000009346678     0.000000124601     0.000004680175
       4       -0.000017817962    -0.000039342554    -0.000023786178
       5        0.000183822679     0.000005820524    -0.005324619145
       6       -0.000007489864     0.000002313420    -0.000003191333
       7       -0.000001614115     0.000003182836    -0.000002642645
       8        0.002097173916    -0.003484090095     0.003332401462
       9       -0.000472267045     0.000519345638     0.003980768434
      10        0.000002063880    -0.000004214307     0.000005719944
      11        0.000003190722     0.000007507318     0.000021115956
      12       -0.001809795620     0.002960914345    -0.001999269723
      13       -0.000001991971     0.000003733711    -0.000003680628
      14       -0.000001515008    -0.000008148632    -0.000007440433
      15        0.000006246606    -0.000004042617    -0.000001768921
      16       -0.000003070201     0.000004710972     0.000002610584
      17       -0.000004040113    -0.000001177323    -0.000002264063
      18        0.000006187740    -0.000000763807     0.000001217091
      19       -0.000000140803     0.000000585829    -0.000000384403
      20        0.000026388601     0.000012593852    -0.000006386122
      21       -0.000004100833    -0.000001090445    -0.000000287041
      22       -0.000007242999    -0.000006993340    -0.000004564667
      23       -0.000003047662    -0.000002490295     0.000004382805

  **** Optimization is complete! (in 9 steps) ****
    Final optimized geometry and variables:
    Molecular point group: c1

    Geometry (in Angstrom), charge = 0, multiplicity = 1:

    O            2.308037459961     0.540217606377    -0.240560596093
    C            1.349076565766     0.763001618743     0.416592903399
    C            0.017620811712     0.066690716419     0.292074383926
    O            1.322886538066     1.679423660364     1.370811928131
    C           -0.005317350890    -1.000223181194    -0.797607406224
    H           -0.211485653381    -0.359352849167     1.264023417163
    H           -0.724063591683     0.837915222827     0.124421462457
    C           -1.297875677925    -1.820990897544    -0.842129484019
    H            0.825641971352    -1.668958021820    -0.610509557543
    H            0.174255981212    -0.532979226484    -1.758517250512
    C           -2.592933305575    -1.007652367477    -0.866542117259
    H           -1.277651910179    -2.419864278565    -1.747838727425
    H           -1.324911038033    -2.511061367074    -0.003178414557
    C           -3.826698353072    -1.879557925490    -1.077565317963
    H           -2.537276033205    -0.266346921656    -1.660042439398
    H           -2.708265418622    -0.455912290253     0.060449757548
    H           -3.774924640864    -2.409978629921    -2.022379034699
    H           -4.732476121073    -1.284254483734    -1.081389297482
    H           -3.921090867832    -2.619615408742    -0.289664193553
    C            2.508717865697     2.413740121543     1.597955705810
    H            3.316528186773     1.755554472265     1.881660300523
    H            2.286239324204     3.097340570255     2.401134146308
    H            2.794526195178     2.960431993491     0.711576583752

  Mulliken Charges: (a.u.)
   Center  Symbol    Alpha    Beta     Spin     Total
       1     O     4.19668  4.19668  0.00000 -0.39336
       2     C     2.80817  2.80817  0.00000  0.38366
       3     C     3.10230  3.10230  0.00000 -0.20460
       4     O     4.14688  4.14688  0.00000 -0.29375
       5     C     3.09180  3.09180  0.00000 -0.18360
       6     H     0.43935  0.43935  0.00000  0.12130
       7     H     0.43733  0.43733  0.00000  0.12534
       8     C     3.09752  3.09752  0.00000 -0.19504
       9     H     0.44063  0.44063  0.00000  0.11875
      10     H     0.44502  0.44502  0.00000  0.10995
      11     C     3.09083  3.09083  0.00000 -0.18165
      12     H     0.44795  0.44795  0.00000  0.10410
      13     H     0.45177  0.45177  0.00000  0.09645
      14     C     3.15012  3.15012  0.00000 -0.30023
      15     H     0.45258  0.45258  0.00000  0.09485
      16     H     0.45241  0.45241  0.00000  0.09519
      17     H     0.45370  0.45370  0.00000  0.09261
      18     H     0.44797  0.44797  0.00000  0.10406
      19     H     0.45497  0.45497  0.00000  0.09006
      20     C     3.03819  3.03819  0.00000 -0.07637
      21     H     0.45424  0.45424  0.00000  0.09152
      22     H     0.44521  0.44521  0.00000  0.10959
      23     H     0.45440  0.45440  0.00000  0.09120

   Total alpha = 36.00000, Total beta = 36.00000, Total charge = -0.00000

*** Psi4 exiting successfully. Buy a developer a beer!
