  ==> Input File <==

--------------------------------------------------------------------------
set {
	reference rhf
	basis 6-31G*
}

set_num_threads( 4 )
memory 2 gb

molecule MOL {
0 1

H	 -2.272418	 0.282195	 0.827002
N	 -1.852125	 0.165761	 -0.074816
C	 -0.563778	 -0.502042	 0.037919
H	 -1.739537	 1.083231	 -0.462536
C	 0.575259	 0.508231	 -0.048326
H	 -0.482092	 -1.204004	 -0.786564
H	 -0.460411	 -1.085169	 0.956626
C	 1.954651	 -0.143624	 0.035137
H	 0.475158	 1.060484	 -0.977307
H	 0.469181	 1.234488	 0.755973
H	 2.103292	 -0.853109	 -0.774172
H	 2.742821	 0.599562	 -0.030094
H	 2.083613	 -0.679371	 0.971560

	symmetry c1
}
set optking {
	frozen_dihedral = ("
		1 2 3 6
	")
}

ee = optimize('scf')
oeprop('DIPOLE', 'QUADRUPOLE', 'MULLIKEN_CHARGES')
f=open( 'psi4out.xyz', 'w' )
f.write( "13  " )
f.write( str(ee) + "\n" )
f.write( MOL.save_string_xyz() )
f.close()
--------------------------------------------------------------------------

    Molecular point group: c1
  Charge       = 0
  Multiplicity = 1
  Basis Set: 6-31G*
  Basis Set:
  @DF-RHF Final Energy:  -173.27757647676711
    Total Energy =                       -173.2775764767670807
    Molecular point group: c1
  Basis Set: 6-31G*
  Basis Set:
  Basis Set: 6-31G*
  Basis Set:
  @DF-RHF Final Energy:  -173.27931555748370
    Total Energy =                       -173.2793155574837272
  Basis Set: 6-31G*
  Basis Set:
  Basis Set: 6-31G*
  Basis Set:
  @DF-RHF Final Energy:  -173.27958075542020
    Total Energy =                       -173.2795807554203122
  Basis Set: 6-31G*
  Basis Set:
  Basis Set: 6-31G*
  Basis Set:
  @DF-RHF Final Energy:  -173.27959825974875
    Total Energy =                       -173.2795982597487239
  Basis Set: 6-31G*
  Basis Set:
  Basis Set: 6-31G*
  Basis Set:
  @DF-RHF Final Energy:  -173.27960004104358
    Total Energy =                       -173.2796000410434658
  Basis Set: 6-31G*
  Basis Set:
  Charge       = 0
  Multiplicity = 1
  Basis Set: 6-31G*
  Basis Set:

    Orbital Energies (a.u.)
    -----------------------

    Doubly Occupied:

       1A    -15.529469     2A    -11.239751     3A    -11.217283
       4A    -11.212285     5A     -1.173910     6A     -1.037374
       7A     -0.899603     8A     -0.807617     9A     -0.671916
      10A     -0.614415    11A     -0.606350    12A     -0.559497
      13A     -0.534960    14A     -0.505240    15A     -0.486316
      16A     -0.470509    17A     -0.372380

  @DF-RHF Final Energy:  -173.27960119144564

   => Energetics <=

    Nuclear Repulsion Energy =            131.5833714010395852
    One-Electron Energy =                -493.8481982820064786
    Two-Electron Energy =                 188.9852256895212292
    DFT Exchange-Correlation Energy =       0.0000000000000000
    Empirical Dispersion Energy =           0.0000000000000000
    PCM Polarization Energy =               0.0000000000000000
    EFP Energy =                            0.0000000000000000
    Total Energy =                       -173.2796011914456642
    Molecular point group: c1
  Basis Set: 6-31G*
  Basis Set:

  -Total Gradient:
     Atom            X                  Y                   Z
    ------   -----------------  -----------------  -----------------
       1       -0.001457282339    -0.003255680673    -0.000149092254
       2        0.001561899285     0.003521352581     0.000648548908
       3        0.001087026884     0.002030275186    -0.002492033295
       4        0.000021074487    -0.000029552786     0.000010501963
       5       -0.000055108552    -0.000006244700     0.000018160453
       6       -0.001190838939    -0.002274504251     0.001965142357
       7       -0.000016189728    -0.000014414840     0.000009521522
       8        0.000022058119     0.000015401328    -0.000015298415
       9        0.000023884488    -0.000003386663     0.000009924391
      10        0.000011593918     0.000019963216    -0.000002789820
      11        0.000000135206    -0.000002313734    -0.000008916729
      12        0.000002907121    -0.000009051978     0.000002253125
      13       -0.000011159952     0.000008157314     0.000004077792

  **** Optimization is complete! (in 6 steps) ****
    Final optimized geometry and variables:
    Molecular point group: c1

    Geometry (in Angstrom), charge = 0, multiplicity = 1:

    H           -2.293214181513     0.261194868271     0.853677524153
    N           -1.895136412228     0.117160048810    -0.050998953597
    C           -0.570885023267    -0.484700700499     0.025795265943
    H           -1.888474655045     0.990208628925    -0.538976832099
    C            0.591710852997     0.505703879875    -0.033875744776
    H           -0.470625966553    -1.224059911333    -0.765062796779
    H           -0.513068627616    -1.047560314841     0.953538722306
    C            1.957712675422    -0.176389798080     0.028352929365
    H            0.518319859105     1.083341809797    -0.953985229290
    H            0.495913258279     1.216087266526     0.784743852416
    H            2.085733895977    -0.873056728648    -0.795111800863
    H            2.762480449552     0.549677595512    -0.025058284235
    H            2.076506060632    -0.733534121183     0.953451573503

  Mulliken Charges: (a.u.)
   Center  Symbol    Alpha    Beta     Spin     Total
       1     H     0.33128  0.33128  0.00000  0.33744
       2     N     3.92947  3.92947  0.00000 -0.85895
       3     C     3.05080  3.05080  0.00000 -0.10160
       4     H     0.33225  0.33225  0.00000  0.33551
       5     C     3.16153  3.16153  0.00000 -0.32307
       6     H     0.42008  0.42008  0.00000  0.15983
       7     H     0.42452  0.42452  0.00000  0.15097
       8     C     3.24352  3.24352  0.00000 -0.48705
       9     H     0.42422  0.42422  0.00000  0.15157
      10     H     0.42424  0.42424  0.00000  0.15153
      11     H     0.41941  0.41941  0.00000  0.16118
      12     H     0.41763  0.41763  0.00000  0.16473
      13     H     0.42104  0.42104  0.00000  0.15791

   Total alpha = 17.00000, Total beta = 17.00000, Total charge = -0.00000
