  ==> Input File <==

--------------------------------------------------------------------------
set {
	reference rhf
	basis 6-31G*
}

set_num_threads( 4 )
memory 2 gb

molecule MOL {
0 1

H	 1.438786	 -0.199450	 -1.277900
O	 1.654024	 -0.625927	 -0.460906
C	 1.135793	 0.118896	 0.612333
C	 0.031547	 1.023609	 0.088541
H	 1.915668	 0.729681	 1.063582
H	 0.754543	 -0.542641	 1.387006
C	 -1.134819	 0.293262	 -0.585751
H	 0.474374	 1.714721	 -0.623187
H	 -0.338529	 1.620940	 0.920081
C	 -1.917817	 -0.639439	 0.339494
H	 -0.758119	 -0.268455	 -1.433105
H	 -1.813832	 1.041889	 -0.986690
H	 -2.777680	 -1.057197	 -0.174994
H	 -1.310268	 -1.471279	 0.680599
H	 -2.283753	 -0.111424	 1.216626

	symmetry c1
}
set optking {
	frozen_dihedral = ("
		1 2 3 4
	")
}

ee = optimize('scf')
oeprop('DIPOLE', 'QUADRUPOLE', 'MULLIKEN_CHARGES')
f=open( 'psi4out.xyz', 'w' )
f.write( "15  " )
f.write( str(ee) + "\n" )
f.write( MOL.save_string_xyz() )
f.close()
--------------------------------------------------------------------------

    Molecular point group: c1
  Charge       = 0
  Multiplicity = 1
  Basis Set: 6-31G*
  Basis Set:
  @DF-RHF Final Energy:  -232.13958823369975
    Total Energy =                       -232.1395882336998966
    Molecular point group: c1
  Basis Set: 6-31G*
  Basis Set:
  Basis Set: 6-31G*
  Basis Set:
  @DF-RHF Final Energy:  -232.14102138903399
    Total Energy =                       -232.1410213890341083
  Basis Set: 6-31G*
  Basis Set:
  Basis Set: 6-31G*
  Basis Set:
  @DF-RHF Final Energy:  -232.14151547092936
    Total Energy =                       -232.1415154709290505
  Basis Set: 6-31G*
  Basis Set:
  Basis Set: 6-31G*
  Basis Set:
  @DF-RHF Final Energy:  -232.14152324475765
    Total Energy =                       -232.1415232447577068
  Basis Set: 6-31G*
  Basis Set:
  Basis Set: 6-31G*
  Basis Set:
  @DF-RHF Final Energy:  -232.14152436977105
    Total Energy =                       -232.1415243697711617
  Basis Set: 6-31G*
  Basis Set:
  Charge       = 0
  Multiplicity = 1
  Basis Set: 6-31G*
  Basis Set:

    Orbital Energies (a.u.)
    -----------------------

    Doubly Occupied:

       1A    -20.550741     2A    -11.266596     3A    -11.224907
       4A    -11.223562     5A    -11.212125     6A     -1.357830
       7A     -1.072889     8A     -0.974990     9A     -0.881418
      10A     -0.793251    11A     -0.665052    12A     -0.651365
      13A     -0.636345    14A     -0.585384    15A     -0.572508
      16A     -0.546518    17A     -0.505960    18A     -0.483593
      19A     -0.479010    20A     -0.457324    21A     -0.428876

  @DF-RHF Final Energy:  -232.14152451658012

   => Energetics <=

    Nuclear Repulsion Energy =            191.6993198945812367
    One-Electron Energy =                -694.5412032333426851
    Two-Electron Energy =                 270.7003588221815562
    DFT Exchange-Correlation Energy =       0.0000000000000000
    Empirical Dispersion Energy =           0.0000000000000000
    PCM Polarization Energy =               0.0000000000000000
    EFP Energy =                            0.0000000000000000
    Total Energy =                       -232.1415245165799206
    Molecular point group: c1
  Basis Set: 6-31G*
  Basis Set:

  -Total Gradient:
     Atom            X                  Y                   Z
    ------   -----------------  -----------------  -----------------
       1       -0.002126551988    -0.001396966242    -0.000179607979
       2        0.003068278533     0.002221103416     0.000043464402
       3       -0.002005955430    -0.002023150664     0.000377014345
       4        0.001094697664     0.001163796877    -0.000302735351
       5       -0.000016498265     0.000019680348     0.000019918467
       6       -0.000022348772     0.000010254145     0.000014780253
       7        0.000009516403     0.000003667216     0.000017291221
       8       -0.000003544718    -0.000004798630     0.000001656265
       9       -0.000007822389     0.000003027822     0.000005734172
      10       -0.000008854742    -0.000008011655    -0.000000473181
      11       -0.000002145195     0.000004938933    -0.000003953115
      12        0.000014169515     0.000002195331     0.000001922520
      13        0.000001108039    -0.000004028732     0.000000180531
      14        0.000016132750     0.000006833651     0.000004819564
      15       -0.000010181405     0.000001458184    -0.000000012113

  **** Optimization is complete! (in 6 steps) ****
    Final optimized geometry and variables:
    Molecular point group: c1

    Geometry (in Angstrom), charge = 0, multiplicity = 1:

    H            1.553588794957    -0.284290444711    -1.259952494250
    O            1.730992392902    -0.664493148167    -0.412199912912
    C            1.140659196211     0.113275660484     0.600279448939
    C            0.020732484680     1.018053177799     0.096360049138
    H            1.903435319874     0.728900853961     1.071177009769
    H            0.774480848744    -0.572907284979     1.353649029128
    C           -1.154189463983     0.293552253722    -0.573317416577
    H            0.446119967683     1.733893609675    -0.606489145230
    H           -0.346329989731     1.602777454224     0.937044604366
    C           -1.921737348484    -0.649462444444     0.353677618045
    H           -0.800383937063    -0.266439612143    -1.435214967977
    H           -1.837460291431     1.043674089267    -0.962719660198
    H           -2.786203875361    -1.065623345004    -0.153757699800
    H           -1.305507052247    -1.479673884558     0.680954968816
    H           -2.277803390405    -0.127099958171     1.237666394745

  Mulliken Charges: (a.u.)
   Center  Symbol    Alpha    Beta     Spin     Total
       1     H     0.28021  0.28021  0.00000  0.43958
       2     O     4.37581  4.37581  0.00000 -0.75162
       3     C     2.98085  2.98085  0.00000  0.03831
       4     C     3.18765  3.18765  0.00000 -0.37529
       5     H     0.42603  0.42603  0.00000  0.14794
       6     H     0.41964  0.41964  0.00000  0.16072
       7     C     3.15197  3.15197  0.00000 -0.30395
       8     H     0.42151  0.42151  0.00000  0.15698
       9     H     0.41753  0.41753  0.00000  0.16495
      10     C     3.24336  3.24336  0.00000 -0.48673
      11     H     0.42314  0.42314  0.00000  0.15371
      12     H     0.41874  0.41874  0.00000  0.16252
      13     H     0.41747  0.41747  0.00000  0.16505
      14     H     0.41369  0.41369  0.00000  0.17261
      15     H     0.42239  0.42239  0.00000  0.15522

   Total alpha = 21.00000, Total beta = 21.00000, Total charge = -0.00000
