                              Psi4 1.0.54 Driver

  ==> Input File <==

--------------------------------------------------------------------------
set {
	reference rhf
	basis cc-pvtz
}

set_num_threads( 4 )
memory 2 gb

molecule MOL {
0 1

O	 -2.071633	 -1.227563	 -0.223463
C	 -1.652164	 -0.152425	 0.058082
C	 -0.327811	 0.006324	 0.778296
C	 -2.402515	 1.108629	 -0.298924
C	 0.843231	 -0.001575	 -0.211665
H	 -0.319484	 0.928173	 1.350354
H	 -0.227804	 -0.823091	 1.466705
C	 0.919658	 1.275022	 -1.043945
H	 0.756893	 -0.857042	 -0.876809
H	 1.765978	 -0.132028	 0.343208
C	 2.090258	 1.276988	 -2.021112
H	 -0.009264	 1.403733	 -1.592635
H	 1.002846	 2.129519	 -0.378773
H	 2.016519	 0.452885	 -2.722860
H	 3.035792	 1.181570	 -1.498400
H	 2.119865	 2.196671	 -2.593570
H	 -3.240910	 0.874416	 -0.936711
H	 -1.747554	 1.818823	 -0.790984
H	 -2.760419	 1.579708	 0.610998

	symmetry c1
}
set optking {
	frozen_dihedral = ("
		9 5 3 2
	")
}

ee,wfn = optimize('scf', return_wfn=True)
oeprop( wfn, 'DIPOLE', 'QUADRUPOLE', 'MULLIKEN_CHARGES')
f=open( 'psi4out.xyz', 'w' )
f.write( "19  " )
f.write( str(ee) + "\n" )
f.write( MOL.save_string_xyz() )
f.close()
--------------------------------------------------------------------------

    Molecular point group: c1
  Charge       = 0
  Multiplicity = 1
  Basis Set: CC-PVTZ
  Basis Set:
  @DF-RHF Final Energy:  -309.17247546183637
    Total Energy =                       -309.1724754618367115
    Molecular point group: c1
  Basis Set: CC-PVTZ
  Basis Set:
  Basis Set: CC-PVTZ
  Basis Set:
  @DF-RHF Final Energy:  -309.17484250362554
    Total Energy =                       -309.1748425036255981
  Basis Set: CC-PVTZ
  Basis Set:
  Basis Set: CC-PVTZ
  Basis Set:
  @DF-RHF Final Energy:  -309.17338447109893
    Total Energy =                       -309.1733844710987569
  Basis Set: CC-PVTZ
  Basis Set:
  Basis Set: CC-PVTZ
  Basis Set:
  @DF-RHF Final Energy:  -309.17561835730305
    Total Energy =                       -309.1756183573028238
  Basis Set: CC-PVTZ
  Basis Set:
  @DF-RHF Final Energy:  -309.17603404715152
    Total Energy =                       -309.1760340471511199
  @DF-RHF Final Energy:  -309.17599654536463
    Total Energy =                       -309.1759965453643417
  @DF-RHF Final Energy:  -309.17672503806978
    Total Energy =                       -309.1767250380696623
  @DF-RHF Final Energy:  -309.17671756978984
    Total Energy =                       -309.1767175697901848
  @DF-RHF Final Energy:  -309.17747047092126
    Total Energy =                       -309.1774704709213779
  @DF-RHF Final Energy:  -309.17806596344553
    Total Energy =                       -309.1780659634447943
  @DF-RHF Final Energy:  -309.17828624608279
    Total Energy =                       -309.1782862460826209
  @DF-RHF Final Energy:  -309.17839488595092
    Total Energy =                       -309.1783948859510929
  @DF-RHF Final Energy:  -309.17844170868523
    Total Energy =                       -309.1784417086851136
  Basis Set: CC-PVTZ
  Basis Set:
  @DF-RHF Final Energy:  -309.17842955534690
    Total Energy =                       -309.1784295553468382
  Basis Set: CC-PVTZ
  Basis Set:
  Basis Set: CC-PVTZ
  Basis Set:
  @DF-RHF Final Energy:  -309.17845377011275
    Total Energy =                       -309.1784537701126965
  Basis Set: CC-PVTZ
  Basis Set:
  Basis Set: CC-PVTZ
  Basis Set:
  @DF-RHF Final Energy:  -309.17845693740151
    Total Energy =                       -309.1784569374012221
  Basis Set: CC-PVTZ
  Basis Set:
  Charge       = 0
  Multiplicity = 1
  Basis Set: CC-PVTZ
  Basis Set:

    Orbital Energies (a.u.)
    -----------------------

    Doubly Occupied:

       1A    -20.539374     2A    -11.321770     3A    -11.230991
       4A    -11.227393     5A    -11.216182     6A    -11.211748
       7A    -11.204723     8A     -1.399884     9A     -1.085183
      10A     -1.029798    11A     -0.983462    12A     -0.885368
      13A     -0.803043    14A     -0.729332    15A     -0.668656
      16A     -0.632232    17A     -0.628058    18A     -0.614900
      19A     -0.579458    20A     -0.572045    21A     -0.561423
      22A     -0.523961    23A     -0.516360    24A     -0.498042
      25A     -0.475391    26A     -0.468206    27A     -0.460233
      28A     -0.402946

  @DF-RHF Final Energy:  -309.17845751058269

   => Energetics <=

    Nuclear Repulsion Energy =            307.3810158433944935
    One-Electron Energy =               -1028.1786198064714881
    Two-Electron Energy =                 411.6191464524941921
    DFT Exchange-Correlation Energy =       0.0000000000000000
    Empirical Dispersion Energy =           0.0000000000000000
    PCM Polarization Energy =               0.0000000000000000
    EFP Energy =                            0.0000000000000000
    Total Energy =                       -309.1784575105828026
    Molecular point group: c1
  Basis Set: CC-PVTZ
  Basis Set:

  -Total Gradient:
     Atom            X                  Y                   Z
    ------   -----------------  -----------------  -----------------
       1        0.000005618776     0.000019036239     0.000002570893
       2       -0.000029408603    -0.000007342774    -0.000005306647
       3       -0.000007279789    -0.000066711032     0.000021808403
       4        0.000024879134    -0.000031424153    -0.000011878300
       5       -0.000004650921     0.000037345575    -0.000029507474
       6       -0.000005578744     0.000013477382    -0.000008954394
       7        0.000003582680     0.000007919017    -0.000007770647
       8        0.000025974451    -0.000015803795     0.000014962114
       9        0.000001168788    -0.000022639016     0.000025603846
      10        0.000015105828    -0.000000525489    -0.000001603437
      11       -0.000001581883     0.000012649731     0.000007745172
      12       -0.000018824693    -0.000000220922    -0.000007879066
      13        0.000008738035     0.000011335327    -0.000009231100
      14       -0.000008961670    -0.000003592250     0.000001400406
      15        0.000001507068    -0.000000498187     0.000003100642
      16        0.000004254413     0.000006713928    -0.000007681258
      17       -0.000019894553    -0.000018091163    -0.000018676645
      18        0.000007805430     0.000067193966    -0.000007022173
      19       -0.000002453749    -0.000008822388     0.000038319666

  **** Optimization is complete! (in 17 steps) ****
    Final optimized geometry and variables:
    Molecular point group: c1

    Geometry (in Angstrom), charge = 0, multiplicity = 1:

    O           -1.418798096462    -0.847230361588    -0.620455875744
    C           -1.375238648114    -0.233585099332     0.395301531637
    C           -0.080185927752     0.000210029540     1.149865938566
    C           -2.624056337533     0.343657239106     1.020898910715
    C            1.189781116127    -0.318167636695     0.368575585850
    H           -0.069517230948     1.024557880355     1.512224806760
    H           -0.140376710822    -0.622136017704     2.040371195772
    C            1.510263364827     0.694873310464    -0.728337556686
    H            1.098029672076    -1.306178525080    -0.065999685084
    H            2.019882488166    -0.356937230132     1.067921183813
    C            2.786092741510     0.352111802743    -1.489814348783
    H            0.681147153937     0.747980931343    -1.424221003004
    H            1.611710214579     1.682531702909    -0.284450623797
    H            2.700637827249    -0.613629063717    -1.975868465283
    H            3.642799526586     0.313248686398    -0.824726801551
    H            2.995391329618     1.090138228287    -2.255530639891
    H           -3.498532383455    -0.033932717323     0.513498184231
    H           -2.598747053080     1.425278449423     0.935805267951
    H           -2.673885135511     0.104222602164     2.076937168442

  Mulliken Charges: (a.u.)
   Center  Symbol    Alpha    Beta     Spin     Total
       1     O     4.17343  4.17343  0.00000 -0.34686
       2     C     2.85945  2.85945  0.00000  0.28110
       3     C     3.12234  3.12234  0.00000 -0.24467
       4     C     3.15096  3.15096  0.00000 -0.30191
       5     C     3.08899  3.08899  0.00000 -0.17798
       6     H     0.44446  0.44446  0.00000  0.11107
       7     H     0.43537  0.43537  0.00000  0.12927
       8     C     3.08444  3.08444  0.00000 -0.16888
       9     H     0.44487  0.44487  0.00000  0.11027
      10     H     0.44743  0.44743  0.00000  0.10513
      11     C     3.15133  3.15133  0.00000 -0.30266
      12     H     0.44531  0.44531  0.00000  0.10939
      13     H     0.45850  0.45850  0.00000  0.08299
      14     H     0.45179  0.45179  0.00000  0.09643
      15     H     0.45692  0.45692  0.00000  0.08616
      16     H     0.44863  0.44863  0.00000  0.10274
      17     H     0.43572  0.43572  0.00000  0.12857
      18     H     0.44928  0.44928  0.00000  0.10144
      19     H     0.45080  0.45080  0.00000  0.09840

   Total alpha = 28.00000, Total beta = 28.00000, Total charge = -0.00000

*** Psi4 exiting successfully. Buy a developer a beer!
