  ==> Input File <==

--------------------------------------------------------------------------
set {
	reference rhf
	basis cc-pvtz
}

set_num_threads( 4 )
memory 2 gb

molecule MOL {
0 1

O	 -1.278239	 1.034789	 -0.784693
C	 -1.204115	 0.062668	 -0.112312
C	 -2.386398	 -0.667698	 0.460323
O	 -0.068058	 -0.518372	 0.226882
H	 -2.382952	 -1.693172	 0.114333
H	 -3.296656	 -0.175702	 0.158400
H	 -2.312537	 -0.685191	 1.540100
C	 1.169086	 0.037484	 -0.230612
C	 1.091915	 0.055554	 -1.744161
C	 2.330407	 -0.786988	 0.294921
H	 1.240093	 1.045399	 0.149063
H	 0.249386	 0.647963	 -2.077245
H	 1.996976	 0.484964	 -2.156695
H	 0.979798	 -0.948718	 -2.135063
H	 3.267461	 -0.374636	 -0.060601
H	 2.347407	 -0.781137	 1.375812
H	 2.255516	 -1.811951	 -0.050227

	symmetry c1
}
set optking {
	frozen_dihedral = ("
		11 8 4 2
	")
}

ee = optimize('scf')
oeprop('DIPOLE', 'QUADRUPOLE', 'MULLIKEN_CHARGES')
f=open( 'psi4out.xyz', 'w' )
f.write( "17  " )
f.write( str(ee) + "\n" )
f.write( MOL.save_string_xyz() )
f.close()
--------------------------------------------------------------------------

    Molecular point group: c1
  Charge       = 0
  Multiplicity = 1
  Basis Set: CC-PVTZ
  Basis Set:
  @DF-RHF Final Energy:  -345.03410285790363
    Total Energy =                       -345.0341028579034628
    Molecular point group: c1
  Basis Set: CC-PVTZ
  Basis Set:
  Basis Set: CC-PVTZ
  Basis Set:
  @DF-RHF Final Energy:  -345.04051347636477
    Total Energy =                       -345.0405134763648789
  Basis Set: CC-PVTZ
  Basis Set:
  Basis Set: CC-PVTZ
  Basis Set:
  @DF-RHF Final Energy:  -345.04124459087279
    Total Energy =                       -345.0412445908724521
  Basis Set: CC-PVTZ
  Basis Set:
  Basis Set: CC-PVTZ
  Basis Set:
  @DF-RHF Final Energy:  -345.03977242972445
    Total Energy =                       -345.0397724297240529
  Basis Set: CC-PVTZ
  Basis Set:
  @DF-RHF Final Energy:  -345.04134419840341
    Total Energy =                       -345.0413441984029532
  @DF-RHF Final Energy:  -345.04135320112124
    Total Energy =                       -345.0413532011209554
  @DF-RHF Final Energy:  -345.04135484550665
    Total Energy =                       -345.0413548455067030
  @DF-RHF Final Energy:  -345.04135670213304
    Total Energy =                       -345.0413567021331573
  @DF-RHF Final Energy:  -345.04135439938614
    Total Energy =                       -345.0413543993859093
  @DF-RHF Final Energy:  -345.04135586366829
    Total Energy =                       -345.0413558636681728
  Basis Set: CC-PVTZ
  Basis Set:
  @DF-RHF Final Energy:  -345.03859489404533
    Total Energy =                       -345.0385948940455592
  Basis Set: CC-PVTZ
  Basis Set:
  Basis Set: CC-PVTZ
  Basis Set:
  @DF-RHF Final Energy:  -345.04134883515258
    Total Energy =                       -345.0413488351528031
  Basis Set: CC-PVTZ
  Basis Set:
  Basis Set: CC-PVTZ
  Basis Set:
  @DF-RHF Final Energy:  -345.04135831182401
    Total Energy =                       -345.0413583118233305
  Basis Set: CC-PVTZ
  Basis Set:
  Charge       = 0
  Multiplicity = 1
  Basis Set: CC-PVTZ
  Basis Set:

    Orbital Energies (a.u.)
    -----------------------

    Doubly Occupied:

       1A    -20.591200     2A    -20.531266     3A    -11.366551
       4A    -11.290787     5A    -11.230259     6A    -11.217235
       7A    -11.212258     8A     -1.467751     9A     -1.364641
      10A     -1.079967    11A     -1.005447    12A     -0.947801
      13A     -0.852819    14A     -0.760922    15A     -0.694450
      16A     -0.677539    17A     -0.661378    18A     -0.616458
      19A     -0.586470    20A     -0.579049    21A     -0.557604
      22A     -0.549908    23A     -0.540509    24A     -0.520744
      25A     -0.503366    26A     -0.483923    27A     -0.451816
      28A     -0.436701

  @DF-RHF Final Energy:  -345.04135838331047

   => Energetics <=

    Nuclear Repulsion Energy =            324.3339997753049602
    One-Electron Energy =               -1113.1930780917718948
    Two-Electron Energy =                 443.8177199331564111
    DFT Exchange-Correlation Energy =       0.0000000000000000
    Empirical Dispersion Energy =           0.0000000000000000
    PCM Polarization Energy =               0.0000000000000000
    EFP Energy =                            0.0000000000000000
    Total Energy =                       -345.0413583833105235
    Molecular point group: c1
  Basis Set: CC-PVTZ
  Basis Set:

  -Total Gradient:
     Atom            X                  Y                   Z
    ------   -----------------  -----------------  -----------------
       1       -0.000003041164     0.000010640499    -0.000001222657
       2       -0.000452508174    -0.002582087110    -0.003598642154
       3        0.000004566557    -0.000001717087    -0.000005013351
       4        0.001241342686     0.003393019836     0.006201559235
       5       -0.000000445081     0.000001586867     0.000001413155
       6        0.000002102253     0.000001697854    -0.000000489979
       7        0.000001077802     0.000000195136     0.000003278514
       8       -0.003300884623     0.000839154716    -0.006531233053
       9        0.000018727950    -0.000010281449     0.000006429879
      10       -0.000005292554     0.000004318400     0.000009053554
      11        0.002491979507    -0.001662760368     0.003919420751
      12       -0.000006056457     0.000002178211    -0.000002426950
      13        0.000002320101     0.000003804781    -0.000005739001
      14        0.000004257879     0.000001138859     0.000001506061
      15       -0.000000938151     0.000003483607     0.000001774536
      16       -0.000000239964    -0.000001487484     0.000000552848
      17        0.000003031431    -0.000002885270    -0.000000221390

  **** Optimization is complete! (in 14 steps) ****
    Final optimized geometry and variables:
    Molecular point group: c1

    Geometry (in Angstrom), charge = 0, multiplicity = 1:

    O           -1.289177437083     1.222374238351    -0.354368150349
    C           -1.165174643996     0.192735225187     0.217029066513
    C           -2.307537969825    -0.622422399805     0.756007443201
    O           -0.003260527231    -0.376173402906     0.479593878988
    H           -2.324874022357    -1.587145667555     0.264877173564
    H           -3.235930510829    -0.102932595254     0.582728904443
    H           -2.166018546503    -0.795558923398     1.814697501340
    C            1.209765052923     0.162890250478    -0.057819510049
    C            1.237119708201     0.120379995302    -1.575149008755
    C            2.316610952750    -0.675513416155     0.556578509004
    H            1.308921969643     1.176385214859     0.307736081660
    H            0.476860376726     0.749836487198    -2.008177815894
    H            2.204779931290     0.462511543198    -1.922822991908
    H            1.095860171587    -0.897362614143    -1.922757083591
    H            3.283668508622    -0.295039114126     0.250978878923
    H            2.262085096435    -0.645604721296     1.637104633296
    H            2.237442178029    -1.708327133056     0.238823949961

  Mulliken Charges: (a.u.)
   Center  Symbol    Alpha    Beta     Spin     Total
       1     O     4.19957  4.19957  0.00000 -0.39913
       2     C     2.80649  2.80649  0.00000  0.38702
       3     C     3.13806  3.13806  0.00000 -0.27612
       4     O     4.16162  4.16162  0.00000 -0.32324
       5     H     0.44702  0.44702  0.00000  0.10596
       6     H     0.43841  0.43841  0.00000  0.12317
       7     H     0.44516  0.44516  0.00000  0.10968
       8     C     2.92785  2.92785  0.00000  0.14431
       9     C     3.16209  3.16209  0.00000 -0.32419
      10     C     3.13910  3.13910  0.00000 -0.27820
      11     H     0.44705  0.44705  0.00000  0.10590
      12     H     0.43047  0.43047  0.00000  0.13906
      13     H     0.44914  0.44914  0.00000  0.10171
      14     H     0.45405  0.45405  0.00000  0.09190
      15     H     0.45475  0.45475  0.00000  0.09050
      16     H     0.44639  0.44639  0.00000  0.10723
      17     H     0.45279  0.45279  0.00000  0.09443

   Total alpha = 28.00000, Total beta = 28.00000, Total charge = -0.00000
