                              Psi4 1.0.54 Driver

  ==> Input File <==

--------------------------------------------------------------------------
set {
	reference rhf
	basis cc-pvtz
}

set_num_threads( 4 )
memory 2 gb

molecule MOL {
0 1

H	 -2.149496	 -2.244167	 0.000000
O	 -2.454378	 -1.354528	 0.000000
C	 -1.430628	 -0.482077	 0.000000
C	 -1.457284	 0.534996	 -0.943145
C	 -0.381014	 -0.568734	 0.889956
H	 -2.281962	 0.585131	 -1.626097
C	 -0.435994	 1.456217	 -0.989284
H	 -0.347742	 -1.350403	 1.624690
C	 0.641430	 0.368630	 0.830067
H	 -0.464220	 2.239413	 -1.721502
C	 0.625555	 1.384866	 -0.103986
C	 1.735729	 0.270423	 1.765039
H	 1.421680	 2.100426	 -0.137632
N	 2.589898	 0.190673	 2.497650

	symmetry c1
}
set optking {
	frozen_dihedral = ("
		5 3 2 1
	")
}

ee,wfn = optimize('scf', return_wfn=True)
oeprop( wfn, 'DIPOLE', 'QUADRUPOLE', 'MULLIKEN_CHARGES')
f=open( 'psi4out.xyz', 'w' )
f.write( "14  " )
f.write( str(ee) + "\n" )
f.write( MOL.save_string_xyz() )
f.close()
--------------------------------------------------------------------------

    Molecular point group: c1
  Charge       = 0
  Multiplicity = 1
  Basis Set: CC-PVTZ
  Basis Set:
  @DF-RHF Final Energy:  -397.43002843501591
    Total Energy =                       -397.4300284350158563
    Molecular point group: c1
  Basis Set: CC-PVTZ
  Basis Set:
  Basis Set: CC-PVTZ
  Basis Set:
  @DF-RHF Final Energy:  -397.43030998062073
    Total Energy =                       -397.4303099806209048
  Basis Set: CC-PVTZ
  Basis Set:
  Basis Set: CC-PVTZ
  Basis Set:
  @DF-RHF Final Energy:  -397.43044670634254
    Total Energy =                       -397.4304467063423090
  Basis Set: CC-PVTZ
  Basis Set:
  Basis Set: CC-PVTZ
  Basis Set:
  @DF-RHF Final Energy:  -397.43045188770861
    Total Energy =                       -397.4304518877085002
  Basis Set: CC-PVTZ
  Basis Set:
  Charge       = 0
  Multiplicity = 1
  Basis Set: CC-PVTZ
  Basis Set:

    Orbital Energies (a.u.)
    -----------------------

    Doubly Occupied:

       1A    -20.598899     2A    -15.565483     3A    -11.320004
       4A    -11.292283     5A    -11.269026     6A    -11.261867
       7A    -11.260390     8A    -11.258963     9A    -11.253792
      10A     -1.429042    11A     -1.238531    12A     -1.187377
      13A     -1.066843    14A     -1.042777    15A     -0.897056
      16A     -0.869097    17A     -0.783269    18A     -0.724074
      19A     -0.702753    20A     -0.675622    21A     -0.635009
      22A     -0.625903    23A     -0.575235    24A     -0.563868
      25A     -0.554834    26A     -0.547979    27A     -0.516979
      28A     -0.482023    29A     -0.479187    30A     -0.367452
      31A     -0.349613

  @DF-RHF Final Energy:  -397.43045315108742

   => Energetics <=

    Nuclear Repulsion Energy =            380.1941159960668415
    One-Electron Energy =               -1292.4586781222631089
    Two-Electron Energy =                 514.8341089751088475
    DFT Exchange-Correlation Energy =       0.0000000000000000
    Empirical Dispersion Energy =           0.0000000000000000
    PCM Polarization Energy =               0.0000000000000000
    EFP Energy =                            0.0000000000000000
    Total Energy =                       -397.4304531510874767
    Molecular point group: c1
  Basis Set: CC-PVTZ
  Basis Set:

  -Total Gradient:
     Atom            X                  Y                   Z
    ------   -----------------  -----------------  -----------------
       1       -0.000023503560    -0.000008447002    -0.002504748231
       2       -0.000582264538     0.000553778874     0.003743722290
       3        0.001659352362    -0.001646716495    -0.002355308898
       4       -0.000020313210     0.000016134363    -0.000020052341
       5       -0.001070707503     0.001085301812     0.001150587629
       6       -0.000004774880    -0.000001568091     0.000011376750
       7       -0.000064946310    -0.000038674798    -0.000048976906
       8       -0.000010193581    -0.000000522393     0.000004640214
       9        0.000124276385     0.000076225569    -0.000082371545
      10        0.000018315974    -0.000000780925     0.000013094062
      11       -0.000002313391    -0.000059479115     0.000120888284
      12        0.000014051625     0.000018974299    -0.000028632884
      13       -0.000003211594     0.000014704604    -0.000009086888
      14       -0.000033767786    -0.000008930700     0.000004868462

  **** Optimization is complete! (in 5 steps) ****
    Final optimized geometry and variables:
    Molecular point group: c1

    Geometry (in Angstrom), charge = 0, multiplicity = 1:

    H           -2.031192928847    -2.399775749506    -0.372173167716
    O           -2.330883856727    -1.508654222067    -0.409218685461
    C           -1.290011027578    -0.640911210097    -0.447227111998
    C           -1.323188981875     0.384374601955    -1.375299883001
    C           -0.250958364046    -0.722083657463     0.456823222434
    H           -2.146849217346     0.436423386333    -2.059431885497
    C           -0.308938376068     1.319307796164    -1.407048124189
    H           -0.235712329459    -1.499187820987     1.195821733740
    C            0.770206728958     0.214059257431     0.404616449949
    H           -0.340310176139     2.111592263473    -2.129149084983
    C            0.748966025220     1.240295330449    -0.522840404263
    C            1.861775768186     0.118103266452     1.342506754166
    H            1.541917501354     1.960191508665    -0.547028825972
    N            2.715500131957     0.039922656620     2.075945577383

  Mulliken Charges: (a.u.)
   Center  Symbol    Alpha    Beta     Spin     Total
       1     H     0.38313  0.38313  0.00000  0.23374
       2     O     4.17985  4.17985  0.00000 -0.35971
       3     C     2.85709  2.85709  0.00000  0.28581
       4     C     3.10489  3.10489  0.00000 -0.20978
       5     C     3.13491  3.13491  0.00000 -0.26981
       6     H     0.41166  0.41166  0.00000  0.17668
       7     C     3.05502  3.05502  0.00000 -0.11005
       8     H     0.41403  0.41403  0.00000  0.17194
       9     C     2.92959  2.92959  0.00000  0.14082
      10     H     0.41642  0.41642  0.00000  0.16716
      11     C     3.09916  3.09916  0.00000 -0.19832
      12     C     3.02536  3.02536  0.00000 -0.05072
      13     H     0.41401  0.41401  0.00000  0.17199
      14     N     3.57489  3.57489  0.00000 -0.14978

   Total alpha = 31.00000, Total beta = 31.00000, Total charge =  0.00000

*** Psi4 exiting successfully. Buy a developer a beer!
