  ==> Input File <==

--------------------------------------------------------------------------
set {
	reference rhf
	basis 6-31G*
}

set_num_threads( 4 )
memory 2 gb

molecule MOL {
0 1

H	 -3.269016	 -0.876744	 0.468090
C	 -2.809304	 0.000122	 0.025886
N	 -1.391456	 0.000019	 0.300661
H	 -3.037557	 -0.000063	 -1.044252
H	 -3.269223	 0.876956	 0.468000
C	 -0.851131	 1.341262	 0.405082
C	 -0.643826	 -0.781822	 -0.664525
H	 -0.959450	 1.892565	 -0.533981
H	 -1.401606	 1.880773	 1.168933
C	 0.620349	 1.293061	 0.785863
H	 -1.043141	 -1.790703	 -0.680758
H	 -0.738421	 -0.371060	 -1.674394
C	 0.827653	 -0.830023	 -0.283743
H	 1.019663	 2.301941	 0.802097
H	 0.714943	 0.882298	 1.795732
N	 1.367978	 0.511220	 -0.179323
H	 1.378128	 -1.369534	 -1.047594
H	 0.935972	 -1.381326	 0.655319
C	 2.785826	 0.511117	 0.095451
H	 3.158432	 1.529392	 0.102771
H	 3.310986	 -0.030887	 -0.683179
H	 3.035165	 0.051451	 1.056614

	symmetry c1
}
set optking {
	frozen_dihedral = ("
		6 3 2 4
	")
}

ee = optimize('scf')
oeprop('DIPOLE', 'QUADRUPOLE', 'MULLIKEN_CHARGES')
f=open( 'psi4out.xyz', 'w' )
f.write( "22  " )
f.write( str(ee) + "\n" )
f.write( MOL.save_string_xyz() )
f.close()
--------------------------------------------------------------------------

    Molecular point group: c1
  Charge       = 0
  Multiplicity = 1
  Basis Set: 6-31G*
  Basis Set:
  @DF-RHF Final Energy:  -344.22770916541441
    Total Energy =                       -344.2277091654142396
    Molecular point group: c1
  Basis Set: 6-31G*
  Basis Set:
  Basis Set: 6-31G*
  Basis Set:
  @DF-RHF Final Energy:  -344.22809805573462
    Total Energy =                       -344.2280980557341081
  Basis Set: 6-31G*
  Basis Set:
  Basis Set: 6-31G*
  Basis Set:
  @DF-RHF Final Energy:  -344.22816443182290
    Total Energy =                       -344.2281644318229610
  Basis Set: 6-31G*
  Basis Set:
  Charge       = 0
  Multiplicity = 1
  Basis Set: 6-31G*
  Basis Set:

    Orbital Energies (a.u.)
    -----------------------

    Doubly Occupied:

       1A    -15.541739     2A    -15.539314     3A    -11.238714
       4A    -11.238622     5A    -11.237928     6A    -11.237862
       7A    -11.235899     8A    -11.235727     9A     -1.253993
      10A     -1.202540    11A     -1.024821    12A     -0.991231
      13A     -0.911692    14A     -0.867167    15A     -0.835216
      16A     -0.753559    17A     -0.664895    18A     -0.636184
      19A     -0.630334    20A     -0.626155    21A     -0.619520
      22A     -0.579643    23A     -0.550552    24A     -0.547235
      25A     -0.542875    26A     -0.517785    27A     -0.496843
      28A     -0.489765    29A     -0.465849    30A     -0.455643
      31A     -0.348934    32A     -0.339734

  @DF-RHF Final Energy:  -344.22816709314401

   => Energetics <=

    Nuclear Repulsion Energy =            421.1013269688911009
    One-Electron Energy =               -1300.9430503651406070
    Two-Electron Energy =                 535.6135563031054971
    DFT Exchange-Correlation Energy =       0.0000000000000000
    Empirical Dispersion Energy =           0.0000000000000000
    PCM Polarization Energy =               0.0000000000000000
    EFP Energy =                            0.0000000000000000
    Total Energy =                       -344.2281670931440658
    Molecular point group: c1
  Basis Set: 6-31G*
  Basis Set:

  -Total Gradient:
     Atom            X                  Y                   Z
    ------   -----------------  -----------------  -----------------
       1        0.000019854268    -0.000025061945     0.000007929667
       2       -0.000594942969     0.006100971201     0.001465340071
       3        0.000831364576    -0.001272207514    -0.004931356929
       4        0.000160390525    -0.004738732070    -0.000075526181
       5        0.000063606248    -0.000008688596     0.000029000863
       6       -0.000550253844    -0.000025519534     0.003547079026
       7        0.000039761804     0.000000396416    -0.000084520152
       8        0.000015632481    -0.000047057794     0.000047915931
       9       -0.000010755407    -0.000033154174    -0.000008818966
      10        0.000029301318     0.000018025437    -0.000043973569
      11        0.000001692382     0.000024722506     0.000020884260
      12       -0.000012447338    -0.000004296079     0.000027655929
      13        0.000011505314    -0.000005021753     0.000016187886
      14        0.000066430491     0.000025717324     0.000011639912
      15       -0.000037246737     0.000007197335    -0.000024690646
      16       -0.000029274586     0.000002303760     0.000008242480
      17        0.000045821868    -0.000004421361    -0.000005747748
      18        0.000000492021     0.000003907499    -0.000005754566
      19       -0.000023840256    -0.000013402969     0.000002910072
      20       -0.000016973500    -0.000001193264    -0.000002357977
      21       -0.000006316056    -0.000004599092    -0.000003527868
      22       -0.000003802605     0.000000114665     0.000001488505

  **** Optimization is complete! (in 4 steps) ****
    Final optimized geometry and variables:
    Molecular point group: c1

    Geometry (in Angstrom), charge = 0, multiplicity = 1:

    H           -3.221000389011    -1.185887639883     0.384917543883
    C           -2.806096555762    -0.268765246047    -0.024100103620
    N           -1.379275965237    -0.229945312839     0.211076004950
    H           -3.062181053730    -0.254225065134    -1.086155278312
    H           -3.293855798448     0.563811056914     0.466592551843
    C           -0.832778562180     1.105687803391     0.335656876764
    C           -0.632243969834    -1.037007049099    -0.728321230442
    H           -0.926105182388     1.676396533496    -0.593607716666
    H           -1.381842637603     1.636530163000     1.105675226888
    C            0.635532509400     1.037069823274     0.726390223821
    H           -1.041752685420    -2.042409370464    -0.726658571345
    H           -0.717056099433    -0.647677419254    -1.747634503022
    C            0.835782125304    -1.090937231690    -0.335730797340
    H            1.048080999821     2.040550006479     0.749667373340
    H            0.717081686211     0.620811048383     1.735210355997
    N            1.381371478149     0.248719592063    -0.235349127792
    H            1.390055483687    -1.637723299585    -1.091689422590
    H            0.934710907196    -1.636287591146     0.607843427223
    C            2.798358591084     0.242687071448     0.043655857628
    H            3.176258503158     1.259028867620     0.048001228243
    H            3.323025663918    -0.305142642021    -0.731209863920
    H            3.042680442640    -0.214502674233     1.007332231214

  Mulliken Charges: (a.u.)
   Center  Symbol    Alpha    Beta     Spin     Total
       1     H     0.41668  0.41668  0.00000  0.16665
       2     C     3.13839  3.13839  0.00000 -0.27677
       3     N     3.79183  3.79183  0.00000 -0.58365
       4     H     0.43127  0.43127  0.00000  0.13747
       5     H     0.41836  0.41836  0.00000  0.16328
       6     C     3.05314  3.05314  0.00000 -0.10628
       7     C     3.05403  3.05403  0.00000 -0.10805
       8     H     0.42934  0.42934  0.00000  0.14132
       9     H     0.41830  0.41830  0.00000  0.16340
      10     C     3.05708  3.05708  0.00000 -0.11415
      11     H     0.41810  0.41810  0.00000  0.16380
      12     H     0.42863  0.42863  0.00000  0.14274
      13     C     3.05650  3.05650  0.00000 -0.11300
      14     H     0.41816  0.41816  0.00000  0.16367
      15     H     0.42883  0.42883  0.00000  0.14234
      16     N     3.78717  3.78717  0.00000 -0.57434
      17     H     0.41810  0.41810  0.00000  0.16379
      18     H     0.42881  0.42881  0.00000  0.14238
      19     C     3.14017  3.14017  0.00000 -0.28035
      20     H     0.41679  0.41679  0.00000  0.16643
      21     H     0.41680  0.41680  0.00000  0.16640
      22     H     0.43353  0.43353  0.00000  0.13294

   Total alpha = 32.00000, Total beta = 32.00000, Total charge =  0.00000
