  ==> Input File <==

--------------------------------------------------------------------------
set {
	reference rhf
	basis 6-31G*
}

set_num_threads( 4 )
memory 2 gb

molecule MOL {
0 1

H	 2.652209	 0.763231	 0.000000
O	 2.263154	 -0.100023	 0.000000
C	 0.912879	 -0.015685	 0.000000
C	 0.215713	 -0.918288	 -0.792369
C	 0.226922	 0.924455	 0.751455
H	 0.766752	 -1.639167	 -1.367258
C	 -1.164408	 -0.871602	 -0.825462
H	 0.768438	 1.624292	 1.365872
C	 -1.159233	 0.960033	 0.708744
H	 -1.699717	 -1.572776	 -1.440674
C	 -1.863456	 0.066217	 -0.076635
H	 -1.684140	 1.693034	 1.295151
H	 -2.937188	 0.096453	 -0.107478

	symmetry c1
}
set optking {
	frozen_dihedral = ("
		4 3 2 1
	")
}

ee = optimize('scf')
oeprop('DIPOLE', 'QUADRUPOLE', 'MULLIKEN_CHARGES')
f=open( 'psi4out.xyz', 'w' )
f.write( "13  " )
f.write( str(ee) + "\n" )
f.write( MOL.save_string_xyz() )
f.close()
--------------------------------------------------------------------------

    Molecular point group: c1
  Charge       = 0
  Multiplicity = 1
  Basis Set: 6-31G*
  Basis Set:
  @DF-RHF Final Energy:  -305.55555241451850
    Total Energy =                       -305.5555524145187860
    Molecular point group: c1
  Basis Set: 6-31G*
  Basis Set:
  Basis Set: 6-31G*
  Basis Set:
  @DF-RHF Final Energy:  -305.55566787548867
    Total Energy =                       -305.5556678754886661
  Basis Set: 6-31G*
  Basis Set:
  Basis Set: 6-31G*
  Basis Set:
  @DF-RHF Final Energy:  -305.55568540565741
    Total Energy =                       -305.5556854056573002
  Basis Set: 6-31G*
  Basis Set:
  Charge       = 0
  Multiplicity = 1
  Basis Set: 6-31G*
  Basis Set:

    Orbital Energies (a.u.)
    -----------------------

    Doubly Occupied:

       1A    -20.584327     2A    -11.294115     3A    -11.236259
       4A    -11.234567     5A    -11.228000     6A    -11.224323
       7A    -11.223332     8A     -1.401373     9A     -1.147476
      10A     -1.018382    11A     -1.003853    12A     -0.841704
      13A     -0.822383    14A     -0.734433    15A     -0.682362
      16A     -0.647860    17A     -0.617858    18A     -0.592996
      19A     -0.588454    20A     -0.539832    21A     -0.513683
      22A     -0.491066    23A     -0.474522    24A     -0.337508
      25A     -0.315146

  @DF-RHF Final Energy:  -305.55568713365994

   => Energetics <=

    Nuclear Repulsion Energy =            272.9320533210540134
    One-Electron Energy =                -955.3838504724760696
    Two-Electron Energy =                 376.8961100177625099
    DFT Exchange-Correlation Energy =       0.0000000000000000
    Empirical Dispersion Energy =           0.0000000000000000
    PCM Polarization Energy =               0.0000000000000000
    EFP Energy =                            0.0000000000000000
    Total Energy =                       -305.5556871336595464
    Molecular point group: c1
  Basis Set: 6-31G*
  Basis Set:

  -Total Gradient:
     Atom            X                  Y                   Z
    ------   -----------------  -----------------  -----------------
       1       -0.000046517495    -0.000001663659    -0.002571754514
       2        0.000163838315     0.000491086609     0.002489217506
       3       -0.000318023787    -0.001573487717     0.001535813255
       4       -0.000044456847     0.001179814410    -0.001449845972
       5        0.000177396127    -0.000139135205    -0.000006761449
       6        0.000031987918    -0.000014657999    -0.000020223930
       7        0.000211306918    -0.000151926733    -0.000045128811
       8       -0.000007947100     0.000006859186     0.000001006021
       9       -0.000247148803    -0.000051719712    -0.000084768679
      10        0.000014396573     0.000021597898     0.000012938324
      11        0.000062074972     0.000242119301     0.000139916153
      12        0.000015716632     0.000006708460    -0.000005165495
      13       -0.000012623424    -0.000015594838     0.000004757591

  **** Optimization is complete! (in 4 steps) ****
    Final optimized geometry and variables:
    Molecular point group: c1

    Geometry (in Angstrom), charge = 0, multiplicity = 1:

    H            2.650216926596     0.756917785552     0.046078533736
    O            2.268089171231    -0.109499951907     0.044274190342
    C            0.909452628115    -0.028749227095     0.026560839837
    C            0.213002762677    -0.928162367002    -0.765418843038
    C            0.226403554131     0.913058260217     0.779175059675
    H            0.763672757627    -1.644803423464    -1.345983358626
    C           -1.169851722185    -0.889381413687    -0.789112668546
    H            0.774035145544     1.602156639058     1.398839362149
    C           -1.158547003119     0.952469956662     0.736877471504
    H           -1.707410648462    -1.591267035416    -1.401484829285
    C           -1.863790279678     0.051875166946    -0.042832387638
    H           -1.683801861753     1.686488654366     1.321658501484
    H           -2.937889462418     0.081652013660    -0.069866579485

  Mulliken Charges: (a.u.)
   Center  Symbol    Alpha    Beta     Spin     Total
       1     H     0.27220  0.27220  0.00000  0.45560
       2     O     4.38304  4.38304  0.00000 -0.76608
       3     C     2.80360  2.80360  0.00000  0.39280
       4     C     3.12059  3.12059  0.00000 -0.24118
       5     C     3.13513  3.13513  0.00000 -0.27025
       6     H     0.39189  0.39189  0.00000  0.21622
       7     C     3.09345  3.09345  0.00000 -0.18690
       8     H     0.40095  0.40095  0.00000  0.19810
       9     C     3.09291  3.09291  0.00000 -0.18582
      10     H     0.39798  0.39798  0.00000  0.20404
      11     C     3.10991  3.10991  0.00000 -0.21981
      12     H     0.39825  0.39825  0.00000  0.20350
      13     H     0.40012  0.40012  0.00000  0.19977

   Total alpha = 25.00000, Total beta = 25.00000, Total charge =  0.00000
