  ==> Input File <==

--------------------------------------------------------------------------
set {
	reference rhf
	basis 6-31G*
}

set_num_threads( 1 )
memory 2 gb

molecule MOL {
0 1

O	 1.752836	 1.009553	 2.461957
C	 1.856165	 0.084669	 1.722380
C	 1.245376	 -0.013843	 0.345420
O	 2.541882	 -1.011413	 2.022424
C	 0.455112	 1.231400	 -0.050772
H	 2.054372	 -0.219829	 -0.347607
H	 0.613178	 -0.898103	 0.334967
C	 -0.998893	 1.219485	 0.433193
H	 0.482531	 1.345121	 -1.130325
H	 0.957290	 2.103070	 0.354729
C	 -1.883438	 0.145884	 -0.207175
H	 -1.431207	 2.195402	 0.224832
H	 -1.019646	 1.105716	 1.516076
C	 -3.347647	 0.245583	 0.225435
H	 -1.822183	 0.231698	 -1.291012
H	 -1.510341	 -0.844814	 0.042401
C	 -4.239992	 -0.825570	 -0.404234
H	 -3.732888	 1.230466	 -0.033079
H	 -3.408585	 0.170602	 1.310038
C	 -5.701275	 -0.716658	 0.029921
H	 -4.179496	 -0.752714	 -1.488058
H	 -3.859041	 -1.810759	 -0.143352
H	 -6.308102	 -1.488908	 -0.432678
H	 -6.122175	 0.245478	 -0.248167
H	 -5.799072	 -0.820114	 1.106957
C	 3.167270	 -1.050625	 3.292163
H	 3.884550	 -0.248177	 3.387508
H	 3.665623	 -2.005987	 3.346346
H	 2.433000	 -0.966092	 4.080350

	symmetry c1
}
set optking {
	frozen_dihedral = ("
		21 17 14 11,
		17 14 11 15,
		15 11 8 5,
		11 8 5 9,
		2 4 26 27,
		1 2 4 26,
		6 3 2 1
	")
}

ee = energy('scf')
oeprop('DIPOLE', 'QUADRUPOLE', 'MULLIKEN_CHARGES')
f=open( 'psi4out.xyz', 'w' )
f.write( "29  " )
f.write( str(ee) + "\n" )
f.write( MOL.save_string_xyz() )
f.close()
--------------------------------------------------------------------------

    Molecular point group: c1

    Geometry (in Angstrom), charge = 0, multiplicity = 1:

       Center              X                  Y                   Z               Mass
    ------------   -----------------  -----------------  -----------------  -----------------
           O          2.195336050045     0.994533575850     1.532118110432    15.994914619560
           C          2.298665050045     0.069649575850     0.792541110432    12.000000000000
           C          1.687876050045    -0.028862424150    -0.584418889568    12.000000000000
           O          2.984382050045    -1.026432424150     1.092585110432    15.994914619560
           C          0.897612050045     1.216380575850    -0.980610889568    12.000000000000
           H          2.496872050045    -0.234848424150    -1.277445889568     1.007825032070
           H          1.055678050045    -0.913122424150    -0.594871889568     1.007825032070
           C         -0.556392949955     1.204465575850    -0.496645889568    12.000000000000
           H          0.925031050045     1.330101575850    -2.060163889568     1.007825032070
           H          1.399790050045     2.088050575850    -0.575109889568     1.007825032070
           C         -1.440937949955     0.130864575850    -1.137013889568    12.000000000000
           H         -0.988706949955     2.180382575850    -0.705006889568     1.007825032070
           H         -0.577145949955     1.090696575850     0.586237110432     1.007825032070
           C         -2.905146949955     0.230563575850    -0.704403889568    12.000000000000
           H         -1.379682949955     0.216678575850    -2.220850889568     1.007825032070
           H         -1.067840949955    -0.859833424150    -0.887437889568     1.007825032070
           C         -3.797491949955    -0.840589424150    -1.334072889568    12.000000000000
           H         -3.290387949955     1.215446575850    -0.962917889568     1.007825032070
           H         -2.966084949955     0.155582575850     0.380199110432     1.007825032070
           C         -5.258774949955    -0.731677424150    -0.899917889568    12.000000000000
           H         -3.736995949955    -0.767733424150    -2.417896889568     1.007825032070
           H         -3.416540949955    -1.825778424150    -1.073190889568     1.007825032070
           H         -5.865601949955    -1.503927424150    -1.362516889568     1.007825032070
           H         -5.679674949955     0.230458575850    -1.178005889568     1.007825032070
           H         -5.356571949955    -0.835133424150     0.177118110432     1.007825032070
           C          3.609770050045    -1.065644424150     2.362324110432    12.000000000000
           H          4.327050050045    -0.263196424150     2.457669110432     1.007825032070
           H          4.108123050045    -2.021006424150     2.416507110432     1.007825032070
           H          2.875500050045    -0.981111424150     3.150511110432     1.007825032070

  Charge       = 0
  Multiplicity = 1
  Basis Set: 6-31G*
  Basis Set:

    Orbital Energies (a.u.)
    -----------------------

    Doubly Occupied:

       1A    -20.604097     2A    -20.546135     3A    -11.372434
       4A    -11.281149     5A    -11.233813     6A    -11.217774
       7A    -11.214508     8A    -11.213919     9A    -11.212591
      10A    -11.212395    11A    -11.207836    12A     -1.469829
      13A     -1.363501    14A     -1.096462    15A     -1.065701
      16A     -1.017510    17A     -0.976847    18A     -0.926618
      19A     -0.861230    20A     -0.799971    21A     -0.789492
      22A     -0.762409    23A     -0.699397    24A     -0.682272
      25A     -0.671476    26A     -0.651952    27A     -0.621110
      28A     -0.613956    29A     -0.588948    30A     -0.579999
      31A     -0.564041    32A     -0.548569    33A     -0.536488
      34A     -0.526452    35A     -0.518604    36A     -0.502145
      37A     -0.500524    38A     -0.475759    39A     -0.468912
      40A     -0.460450    41A     -0.457169    42A     -0.455856
      43A     -0.437407    44A     -0.436052

  @DF-RHF Final Energy:  -501.04199971703031

   => Energetics <=

    Nuclear Repulsion Energy =            621.5738150695048034
    One-Electron Energy =               -1914.3442187016269145
    Two-Electron Energy =                 791.7284039150900981
    DFT Exchange-Correlation Energy =       0.0000000000000000
    Empirical Dispersion Energy =           0.0000000000000000
    PCM Polarization Energy =               0.0000000000000000
    EFP Energy =                            0.0000000000000000
    Total Energy =                       -501.0419997170318993

  Mulliken Charges: (a.u.)
   Center  Symbol    Alpha    Beta     Spin     Total
       1     O     4.28593  4.28593  0.00000 -0.57186
       2     C     2.60778  2.60778  0.00000  0.78445
       3     C     3.21077  3.21077  0.00000 -0.42154
       4     O     4.30653  4.30653  0.00000 -0.61306
       5     C     3.16008  3.16008  0.00000 -0.32016
       6     H     0.39759  0.39759  0.00000  0.20483
       7     H     0.39821  0.39821  0.00000  0.20358
       8     C     3.15789  3.15789  0.00000 -0.31579
       9     H     0.41945  0.41945  0.00000  0.16111
      10     H     0.40172  0.40172  0.00000  0.19656
      11     C     3.15481  3.15481  0.00000 -0.30962
      12     H     0.41978  0.41978  0.00000  0.16043
      13     H     0.41375  0.41375  0.00000  0.17251
      14     C     3.15001  3.15001  0.00000 -0.30001
      15     H     0.42442  0.42442  0.00000  0.15117
      16     H     0.42539  0.42539  0.00000  0.14921
      17     C     3.15135  3.15135  0.00000 -0.30270
      18     H     0.42333  0.42333  0.00000  0.15335
      19     H     0.42312  0.42312  0.00000  0.15376
      20     C     3.23930  3.23930  0.00000 -0.47859
      21     H     0.42332  0.42332  0.00000  0.15336
      22     H     0.42369  0.42369  0.00000  0.15262
      23     H     0.41959  0.41959  0.00000  0.16081
      24     H     0.42163  0.42163  0.00000  0.15674
      25     H     0.42161  0.42161  0.00000  0.15678
      26     C     3.09231  3.09231  0.00000 -0.18463
      27     H     0.40899  0.40899  0.00000  0.18202
      28     H     0.40844  0.40844  0.00000  0.18312
      29     H     0.40923  0.40923  0.00000  0.18155

   Total alpha = 44.00000, Total beta = 44.00000, Total charge =  0.00000
