  ==> Input File <==

--------------------------------------------------------------------------
set {
	reference rhf
	basis 6-31G*
}

set_num_threads( 4 )
memory 2 gb

molecule MOL {
0 1

H	 2.652209	 0.763231	 0.000000
O	 2.263154	 -0.100023	 0.000000
C	 0.912879	 -0.015685	 0.000000
C	 0.248297	 -0.396607	 -1.158365
C	 0.196020	 0.429711	 1.098554
H	 0.822977	 -0.738990	 -1.998797
C	 -1.130463	 -0.328133	 -1.206745
H	 0.712270	 0.725027	 1.996772
C	 -1.188378	 0.493409	 1.036114
H	 -1.640473	 -0.624263	 -2.106124
C	 -1.860305	 0.116672	 -0.112033
H	 -1.737400	 0.840330	 1.893384
H	 -2.932768	 0.167215	 -0.157122

	symmetry c1
}
set optking {
	frozen_dihedral = ("
		4 3 2 1
	")
}

ee = optimize('scf')
oeprop('DIPOLE', 'QUADRUPOLE', 'MULLIKEN_CHARGES')
f=open( 'psi4out.xyz', 'w' )
f.write( "13  " )
f.write( str(ee) + "\n" )
f.write( MOL.save_string_xyz() )
f.close()
--------------------------------------------------------------------------

    Molecular point group: c1
  Charge       = 0
  Multiplicity = 1
  Basis Set: 6-31G*
  Basis Set:
  @DF-RHF Final Energy:  -305.55325134303172
    Total Energy =                       -305.5532513430317181
    Molecular point group: c1
  Basis Set: 6-31G*
  Basis Set:
  Basis Set: 6-31G*
  Basis Set:
  @DF-RHF Final Energy:  -305.55375784462501
    Total Energy =                       -305.5537578446250109
  Basis Set: 6-31G*
  Basis Set:
  Basis Set: 6-31G*
  Basis Set:
  @DF-RHF Final Energy:  -305.55380635203721
    Total Energy =                       -305.5538063520371566
  Basis Set: 6-31G*
  Basis Set:
  Basis Set: 6-31G*
  Basis Set:
  @DF-RHF Final Energy:  -305.55381113383606
    Total Energy =                       -305.5538111338360068
  Basis Set: 6-31G*
  Basis Set:
  Charge       = 0
  Multiplicity = 1
  Basis Set: 6-31G*
  Basis Set:

    Orbital Energies (a.u.)
    -----------------------

    Doubly Occupied:

       1A    -20.577545     2A    -11.289421     3A    -11.235090
       4A    -11.234307     5A    -11.227557     6A    -11.227305
       7A    -11.225587     8A     -1.392686     9A     -1.147558
      10A     -1.018013    11A     -1.003534    12A     -0.836150
      13A     -0.823052    14A     -0.732246    15A     -0.680191
      16A     -0.645504    17A     -0.626678    18A     -0.591457
      19A     -0.588554    20A     -0.523597    21A     -0.513613
      22A     -0.491916    23A     -0.467500    24A     -0.336697
      25A     -0.322719

  @DF-RHF Final Energy:  -305.55381202882620

   => Energetics <=

    Nuclear Repulsion Energy =            272.6718146334172843
    One-Electron Energy =                -954.9343012629390159
    Two-Electron Energy =                 376.7086746006955309
    DFT Exchange-Correlation Energy =       0.0000000000000000
    Empirical Dispersion Energy =           0.0000000000000000
    PCM Polarization Energy =               0.0000000000000000
    EFP Energy =                            0.0000000000000000
    Total Energy =                       -305.5538120288262007
    Molecular point group: c1
  Basis Set: 6-31G*
  Basis Set:

  -Total Gradient:
     Atom            X                  Y                   Z
    ------   -----------------  -----------------  -----------------
       1        0.000059037428    -0.000001193152    -0.001362476832
       2        0.000132554526     0.000465099465     0.001481820608
       3       -0.000332277225    -0.001360277763     0.000386992601
       4        0.000082609066     0.000897558492    -0.000450410176
       5        0.000142982222     0.000008001690    -0.000040539384
       6       -0.000017626548    -0.000000430634     0.000024371998
       7        0.000051559769     0.000028476223    -0.000028705829
       8        0.000020029197    -0.000010241882     0.000008738516
       9       -0.000106937956    -0.000010974956    -0.000074725864
      10       -0.000032850076    -0.000000283142     0.000010840736
      11       -0.000003720561     0.000001926295     0.000088829665
      12        0.000010230151    -0.000009253123    -0.000011743160
      13       -0.000005589999    -0.000008407514    -0.000032992881

  **** Optimization is complete! (in 5 steps) ****
    Final optimized geometry and variables:
    Molecular point group: c1

    Geometry (in Angstrom), charge = 0, multiplicity = 1:

    H            2.657667453610     0.730422834067     0.076100420427
    O            2.271958422352    -0.135215744463     0.076142399411
    C            0.906012172293    -0.043587986218     0.033915331341
    C            0.241161352240    -0.426702734123    -1.118541622442
    C            0.195221484515     0.399611983221     1.137338845603
    H            0.812969245629    -0.771513756322    -1.960212518055
    C           -1.142361277942    -0.368309203926    -1.163213593341
    H            0.726389088618     0.679527609341     2.029514331748
    C           -1.187649217975     0.463711433798     1.082008552391
    H           -1.657848354548    -0.669586592364    -2.057701012661
    C           -1.861524670118     0.079655498359    -0.066436920229
    H           -1.737732201553     0.808003613568     1.939572771428
    H           -2.934850369019     0.126295514645    -0.105400944369

  Mulliken Charges: (a.u.)
   Center  Symbol    Alpha    Beta     Spin     Total
       1     H     0.27152  0.27152  0.00000  0.45696
       2     O     4.38765  4.38765  0.00000 -0.77529
       3     C     2.81689  2.81689  0.00000  0.36622
       4     C     3.11725  3.11725  0.00000 -0.23450
       5     C     3.12284  3.12284  0.00000 -0.24568
       6     H     0.39291  0.39291  0.00000  0.21418
       7     C     3.09650  3.09650  0.00000 -0.19301
       8     H     0.39650  0.39650  0.00000  0.20701
       9     C     3.09623  3.09623  0.00000 -0.19245
      10     H     0.39800  0.39800  0.00000  0.20401
      11     C     3.10600  3.10600  0.00000 -0.21200
      12     H     0.39813  0.39813  0.00000  0.20374
      13     H     0.39959  0.39959  0.00000  0.20082

   Total alpha = 25.00000, Total beta = 25.00000, Total charge = -0.00000
