                              Psi4 1.0.54 Driver

  ==> Input File <==

--------------------------------------------------------------------------
set {
	reference rhf
	basis cc-pvtz
}

set_num_threads( 4 )
memory 2 gb

molecule MOL {
0 1

H	 -1.752232	 -2.214755	 -0.011938
C	 -1.343852	 -1.221619	 -0.018179
N	 -0.058800	 -1.097635	 -0.261688
C	 -2.148159	 -0.124236	 0.219734
C	 0.449026	 0.119242	 -0.273393
H	 -3.196988	 -0.237571	 0.417076
N	 -1.655094	 1.094230	 0.209506
C	 -0.370318	 1.215445	 -0.035100
C	 1.924033	 0.265863	 -0.538106
H	 0.033214	 2.210441	 -0.046812
C	 2.298392	 1.665223	 -1.029122
H	 2.454990	 0.053513	 0.382088
H	 2.233812	 -0.474469	 -1.266226
H	 3.369204	 1.741872	 -1.175480
H	 1.998862	 2.414645	 -0.308270
H	 1.813391	 1.890610	 -1.972266

	symmetry c1
}
set optking {
	frozen_dihedral = ("
		12 9 5 3
	")
}

ee,wfn = optimize('scf', return_wfn=True)
oeprop( wfn, 'DIPOLE', 'QUADRUPOLE', 'MULLIKEN_CHARGES')
f=open( 'psi4out.xyz', 'w' )
f.write( "16  " )
f.write( str(ee) + "\n" )
f.write( MOL.save_string_xyz() )
f.close()
--------------------------------------------------------------------------

    Molecular point group: c1
  Charge       = 0
  Multiplicity = 1
  Basis Set: CC-PVTZ
  Basis Set:
  @DF-RHF Final Energy:  -340.86824694899656
    Total Energy =                       -340.8682469489968980
    Molecular point group: c1
  Basis Set: CC-PVTZ
  Basis Set:
  Basis Set: CC-PVTZ
  Basis Set:
  @DF-RHF Final Energy:  -340.86936626585270
    Total Energy =                       -340.8693662658525341
  Basis Set: CC-PVTZ
  Basis Set:
  Basis Set: CC-PVTZ
  Basis Set:
  @DF-RHF Final Energy:  -340.87002282487276
    Total Energy =                       -340.8700228248732742
  Basis Set: CC-PVTZ
  Basis Set:
  Basis Set: CC-PVTZ
  Basis Set:
  @DF-RHF Final Energy:  -340.87008061985210
    Total Energy =                       -340.8700806198525015
  Basis Set: CC-PVTZ
  Basis Set:
  Basis Set: CC-PVTZ
  Basis Set:
  @DF-RHF Final Energy:  -340.87009683049791
    Total Energy =                       -340.8700968304979142
  Basis Set: CC-PVTZ
  Basis Set:
  Basis Set: CC-PVTZ
  Basis Set:
  @DF-RHF Final Energy:  -340.87009848275272
    Total Energy =                       -340.8700984827530647
  Basis Set: CC-PVTZ
  Basis Set:
  Charge       = 0
  Multiplicity = 1
  Basis Set: CC-PVTZ
  Basis Set:

    Orbital Energies (a.u.)
    -----------------------

    Doubly Occupied:

       1A    -15.579828     2A    -15.574772     3A    -11.279170
       4A    -11.271749     5A    -11.267178     6A    -11.267037
       7A    -11.232028     8A    -11.221620     9A     -1.315209
      10A     -1.222938    11A     -1.086815    12A     -1.016381
      13A     -0.909733    14A     -0.893816    15A     -0.831592
      16A     -0.716730    17A     -0.711916    18A     -0.653853
      19A     -0.629022    20A     -0.610737    21A     -0.573278
      22A     -0.565802    23A     -0.521109    24A     -0.512840
      25A     -0.507410    26A     -0.485057    27A     -0.431690
      28A     -0.397046    29A     -0.346414

  @DF-RHF Final Energy:  -340.87009860473040

   => Energetics <=

    Nuclear Repulsion Energy =            349.9552244811711716
    One-Electron Energy =               -1154.3851046089525880
    Two-Electron Energy =                 463.5597815230509013
    DFT Exchange-Correlation Energy =       0.0000000000000000
    Empirical Dispersion Energy =           0.0000000000000000
    PCM Polarization Energy =               0.0000000000000000
    EFP Energy =                            0.0000000000000000
    Total Energy =                       -340.8700986047305150
    Molecular point group: c1
  Basis Set: CC-PVTZ
  Basis Set:

  -Total Gradient:
     Atom            X                  Y                   Z
    ------   -----------------  -----------------  -----------------
       1        0.000003679787    -0.000002622477     0.000013569222
       2       -0.000027253004     0.000006540273    -0.000036681827
       3       -0.000051436813     0.000039163582    -0.000282997171
       4        0.000002906515    -0.000023785448     0.000003885197
       5        0.000106127581     0.000001428717     0.000460655368
       6       -0.000000020658    -0.000001330217     0.000000706612
       7        0.000018483039     0.000014078957     0.000001245004
       8       -0.000013893258     0.000012472058    -0.000001829405
       9        0.000014730726    -0.000355521879    -0.000242011835
      10       -0.000001276049     0.000005235068    -0.000011811210
      11       -0.000001302394     0.000016929754    -0.000004881942
      12       -0.000045047394     0.000295992186     0.000099999680
      13       -0.000003354937    -0.000004431359     0.000002212872
      14       -0.000012998962    -0.000002531375     0.000003425790
      15        0.000005686675    -0.000004792664    -0.000011648663
      16        0.000004969148     0.000003174825     0.000006162308

  **** Optimization is complete! (in 7 steps) ****
    Final optimized geometry and variables:
    Molecular point group: c1

    Geometry (in Angstrom), charge = 0, multiplicity = 1:

    H           -1.450426428514    -2.621413163660     0.143206379944
    C           -1.141055310922    -1.593850017613     0.181527611452
    N            0.112229188163    -1.329345128442    -0.108681548176
    C           -2.033851541289    -0.596970261616     0.520187749076
    C            0.505481047650    -0.070632203140    -0.066466858984
    H           -3.056512230674    -0.822352488581     0.754926962156
    N           -1.658544267815     0.661515106758     0.562659271852
    C           -0.404050983471     0.924242607554     0.272128125790
    C            1.959550637420     0.194491773441    -0.377708615031
    H           -0.109907585488     1.954017104206     0.306621727921
    C            2.299266066656     1.601059893940    -0.861087441670
    H            2.537161036513    -0.027828372214     0.514939487190
    H            2.260500237621    -0.534290529020    -1.118554655821
    H            3.346822690598     1.652374995183    -1.130301215984
    H            2.125920776881     2.349362241087    -0.097379001980
    H            1.717845532685     1.871797251319    -1.735030822298

  Mulliken Charges: (a.u.)
   Center  Symbol    Alpha    Beta     Spin     Total
       1     H     0.41383  0.41383  0.00000  0.17235
       2     C     3.04227  3.04227  0.00000 -0.08455
       3     N     3.59311  3.59311  0.00000 -0.18622
       4     C     3.04826  3.04826  0.00000 -0.09652
       5     C     2.95535  2.95535  0.00000  0.08930
       6     H     0.41405  0.41405  0.00000  0.17190
       7     N     3.58850  3.58850  0.00000 -0.17701
       8     C     3.07406  3.07406  0.00000 -0.14812
       9     C     3.06486  3.06486  0.00000 -0.12972
      10     H     0.41279  0.41279  0.00000  0.17443
      11     C     3.16030  3.16030  0.00000 -0.32060
      12     H     0.44600  0.44600  0.00000  0.10799
      13     H     0.44230  0.44230  0.00000  0.11541
      14     H     0.44346  0.44346  0.00000  0.11309
      15     H     0.45379  0.45379  0.00000  0.09243
      16     H     0.44708  0.44708  0.00000  0.10585

   Total alpha = 29.00000, Total beta = 29.00000, Total charge = -0.00000

*** Psi4 exiting successfully. Buy a developer a beer!
