                              Psi4 1.0.54 Driver

  ==> Input File <==

--------------------------------------------------------------------------
set {
	reference rhf
	basis cc-pvtz
}

set_num_threads( 4 )
memory 2 gb

molecule MOL {
0 1

H	 -0.939693	 0.000281	 1.681345
O	 -0.046262	 -0.000157	 1.387678
C	 -0.000837	 0.000006	 -0.025491
C	 0.266156	 1.417390	 -0.528369
C	 1.089289	 -0.957878	 -0.502177
C	 -1.374187	 -0.480847	 -0.473686
H	 0.270749	 1.455741	 -1.611559
H	 1.230967	 1.773891	 -0.180349
H	 -0.495238	 2.094864	 -0.162621
H	 1.123968	 -1.006519	 -1.584406
H	 2.065447	 -0.634048	 -0.153864
H	 0.907849	 -1.953823	 -0.117941
H	 -1.437896	 -0.514886	 -1.554921
H	 -2.143494	 0.184764	 -0.103092
H	 -1.569305	 -1.472249	 -0.084756

	symmetry c1
}
set optking {
	frozen_dihedral = ("
		4 3 2 1
	")
}

ee,wfn = optimize('scf', return_wfn=True)
oeprop( wfn, 'DIPOLE', 'QUADRUPOLE', 'MULLIKEN_CHARGES')
f=open( 'psi4out.xyz', 'w' )
f.write( "15  " )
f.write( str(ee) + "\n" )
f.write( MOL.save_string_xyz() )
f.close()
--------------------------------------------------------------------------

    Molecular point group: c1
  Charge       = 0
  Multiplicity = 1
  Basis Set: CC-PVTZ
  Basis Set:
  @DF-RHF Final Energy:  -232.24323783050164
    Total Energy =                       -232.2432378305016982
    Molecular point group: c1
  Basis Set: CC-PVTZ
  Basis Set:
  Basis Set: CC-PVTZ
  Basis Set:
  @DF-RHF Final Energy:  -232.23280107109937
    Total Energy =                       -232.2328010710995159
  Basis Set: CC-PVTZ
  Basis Set:
  Basis Set: CC-PVTZ
  Basis Set:
  @DF-RHF Final Energy:  -232.24501532679210
    Total Energy =                       -232.2450153267919859
  Basis Set: CC-PVTZ
  Basis Set:
  Basis Set: CC-PVTZ
  Basis Set:
  @DF-RHF Final Energy:  -232.24527202704311
    Total Energy =                       -232.2452720270430859
  Basis Set: CC-PVTZ
  Basis Set:
  Basis Set: CC-PVTZ
  Basis Set:
  @DF-RHF Final Energy:  -232.24526668489750
    Total Energy =                       -232.2452666848975014
  Basis Set: CC-PVTZ
  Basis Set:
  Basis Set: CC-PVTZ
  Basis Set:
  @DF-RHF Final Energy:  -232.24529112092961
    Total Energy =                       -232.2452911209296644
  Basis Set: CC-PVTZ
  Basis Set:
  Charge       = 0
  Multiplicity = 1
  Basis Set: CC-PVTZ
  Basis Set:

    Orbital Energies (a.u.)
    -----------------------

    Doubly Occupied:

       1A    -20.540819     2A    -11.281023     3A    -11.215383
       4A    -11.204234     5A    -11.203233     6A     -1.363358
       7A     -1.065641     8A     -0.945928     9A     -0.936898
      10A     -0.778571    11A     -0.672151    12A     -0.624468
      13A     -0.622760    14A     -0.576373    15A     -0.557369
      16A     -0.534295    17A     -0.517031    18A     -0.511396
      19A     -0.503409    20A     -0.458564    21A     -0.426979

  @DF-RHF Final Energy:  -232.24529144212275

   => Energetics <=

    Nuclear Repulsion Energy =            200.6021521076607712
    One-Electron Energy =                -712.6151196339037597
    Two-Electron Energy =                 279.7676760841203532
    DFT Exchange-Correlation Energy =       0.0000000000000000
    Empirical Dispersion Energy =           0.0000000000000000
    PCM Polarization Energy =               0.0000000000000000
    EFP Energy =                            0.0000000000000000
    Total Energy =                       -232.2452914421226069
    Molecular point group: c1
  Basis Set: CC-PVTZ
  Basis Set:

  -Total Gradient:
     Atom            X                  Y                   Z
    ------   -----------------  -----------------  -----------------
       1       -0.000212577957    -0.001648087182    -0.000394912185
       2        0.000609174009     0.001918193533     0.000443092514
       3       -0.001352219054     0.000005944905     0.000151555410
       4        0.000966057477    -0.000290857019    -0.000166783188
       5       -0.000022504987    -0.000002595104    -0.000003265303
       6        0.000004448578    -0.000000250541    -0.000043497546
       7       -0.000001728024     0.000017635585     0.000006643183
       8       -0.000018401460    -0.000016984927    -0.000010691309
       9        0.000011733449     0.000006015438     0.000001105144
      10        0.000002005691    -0.000004140707     0.000026464622
      11       -0.000016331703    -0.000003706193    -0.000007748316
      12        0.000006037867     0.000014886261    -0.000003039597
      13       -0.000008271290     0.000001015136    -0.000000769698
      14        0.000020016686    -0.000005201781     0.000000923333
      15        0.000012560717     0.000008132596     0.000000922940

  **** Optimization is complete! (in 7 steps) ****
    Final optimized geometry and variables:
    Molecular point group: c1

    Geometry (in Angstrom), charge = 0, multiplicity = 1:

    H           -0.767394798376    -0.307740485194     1.749167235349
    O            0.081853507303    -0.329572231099     1.349683148414
    C           -0.002044845188     0.008806161229    -0.023653315686
    C            0.407488623885     1.470754249202    -0.187448440885
    C            0.982080641507    -0.902954086249    -0.747644783951
    C           -1.422150959245    -0.219736680422    -0.532356255635
    H            0.404069078329     1.767328121632    -1.230468823136
    H            1.402588343693     1.622934765699     0.210743555149
    H           -0.272553456919     2.120004652129     0.352733689437
    H            1.021235849536    -0.672912999012    -1.806207658492
    H            1.974824094261    -0.780496932447    -0.333054641037
    H            0.693713260519    -1.939943705641    -0.628521330586
    H           -1.499364582570     0.010998384727    -1.587671231049
    H           -2.127791547027     0.414470143841    -0.003799392870
    H           -1.716108533697    -1.253277184177    -0.389066865388

  Mulliken Charges: (a.u.)
   Center  Symbol    Alpha    Beta     Spin     Total
       1     H     0.39291  0.39291  0.00000  0.21419
       2     O     4.21424  4.21424  0.00000 -0.42849
       3     C     2.87943  2.87943  0.00000  0.24113
       4     C     3.14233  3.14233  0.00000 -0.28465
       5     C     3.14035  3.14035  0.00000 -0.28071
       6     C     3.16019  3.16019  0.00000 -0.32038
       7     H     0.45871  0.45871  0.00000  0.08259
       8     H     0.44822  0.44822  0.00000  0.10356
       9     H     0.45474  0.45474  0.00000  0.09053
      10     H     0.45948  0.45948  0.00000  0.08105
      11     H     0.44737  0.44737  0.00000  0.10526
      12     H     0.45193  0.45193  0.00000  0.09614
      13     H     0.45128  0.45128  0.00000  0.09745
      14     H     0.45290  0.45290  0.00000  0.09420
      15     H     0.44593  0.44593  0.00000  0.10814

   Total alpha = 21.00000, Total beta = 21.00000, Total charge =  0.00000

*** Psi4 exiting successfully. Buy a developer a beer!
