                              Psi4 1.0.54 Driver

  ==> Input File <==

--------------------------------------------------------------------------
set {
	reference rhf
	basis cc-pvtz
}

set_num_threads( 4 )
memory 2 gb

molecule MOL {
0 1

H	 2.175577	 -1.296983	 -0.314993
N	 2.433987	 -0.362316	 -0.080024
C	 1.263552	 0.494993	 0.021953
H	 3.051480	 -0.038793	 -0.795127
C	 -0.016533	 -0.325589	 -0.026925
H	 1.280915	 1.180773	 -0.818522
H	 1.263064	 1.106893	 0.925038
C	 -1.280353	 0.525521	 0.047747
H	 -0.016686	 -0.912532	 -0.939714
H	 -0.014099	 -1.037598	 0.796369
C	 -2.560681	 -0.301323	 -0.007747
H	 -1.279957	 1.241025	 -0.770189
H	 -1.270445	 1.110526	 0.963468
H	 -2.617064	 -0.872870	 -0.928010
H	 -3.439525	 0.331102	 0.043462
H	 -2.609427	 -1.002736	 0.818585

	symmetry c1
}
set optking {
	frozen_dihedral = ("
		1 2 3 6
	")
}

ee,wfn = optimize('scf', return_wfn=True)
oeprop( wfn, 'DIPOLE', 'QUADRUPOLE', 'MULLIKEN_CHARGES')
f=open( 'psi4out.xyz', 'w' )
f.write( "16  " )
f.write( str(ee) + "\n" )
f.write( MOL.save_string_xyz() )
f.close()
--------------------------------------------------------------------------

    Molecular point group: c1
  Charge       = 0
  Multiplicity = 1
  Basis Set: CC-PVTZ
  Basis Set:
  @DF-RHF Final Energy:  -212.39549694027872
    Total Energy =                       -212.3954969402788038
    Molecular point group: c1
  Basis Set: CC-PVTZ
  Basis Set:
  Basis Set: CC-PVTZ
  Basis Set:
  @DF-RHF Final Energy:  -212.39666909574342
    Total Energy =                       -212.3966690957435048
  Basis Set: CC-PVTZ
  Basis Set:
  Basis Set: CC-PVTZ
  Basis Set:
  @DF-RHF Final Energy:  -212.39685363194889
    Total Energy =                       -212.3968536319489431
  Basis Set: CC-PVTZ
  Basis Set:
  Basis Set: CC-PVTZ
  Basis Set:
  @DF-RHF Final Energy:  -212.39685942008543
    Total Energy =                       -212.3968594200854341
  Basis Set: CC-PVTZ
  Basis Set:
  Charge       = 0
  Multiplicity = 1
  Basis Set: CC-PVTZ
  Basis Set:

    Orbital Energies (a.u.)
    -----------------------

    Doubly Occupied:

       1A    -15.522629     2A    -11.237556     3A    -11.215717
       4A    -11.213708     5A    -11.208298     6A     -1.175002
       7A     -1.063290     8A     -0.961167     9A     -0.846897
      10A     -0.797924    11A     -0.661568    12A     -0.643382
      13A     -0.598316    14A     -0.582423    15A     -0.570694
      16A     -0.520350    17A     -0.511624    18A     -0.472831
      19A     -0.470991    20A     -0.464024    21A     -0.376851

  @DF-RHF Final Energy:  -212.39686030400156

   => Energetics <=

    Nuclear Repulsion Energy =            186.6141850074636750
    One-Electron Energy =                -655.7916102096181703
    Two-Electron Energy =                 256.7805648981528748
    DFT Exchange-Correlation Energy =       0.0000000000000000
    Empirical Dispersion Energy =           0.0000000000000000
    PCM Polarization Energy =               0.0000000000000000
    EFP Energy =                            0.0000000000000000
    Total Energy =                       -212.3968603040016205
    Molecular point group: c1
  Basis Set: CC-PVTZ
  Basis Set:

  -Total Gradient:
     Atom            X                  Y                   Z
    ------   -----------------  -----------------  -----------------
       1       -0.000168947091    -0.000378914847     0.001790972613
       2        0.000512248716     0.000704441856    -0.001999066280
       3       -0.001255353660    -0.001508524854    -0.000675190338
       4       -0.000021615347     0.000007340284    -0.000014264269
       5        0.000157086821     0.000027427647    -0.000010948130
       6        0.000865850805     0.001116185385     0.000890485071
       7       -0.000031350464     0.000006704283     0.000015372877
       8       -0.000006062119    -0.000000836888    -0.000002530353
       9        0.000015532111     0.000009252199     0.000005314943
      10       -0.000010037090     0.000013349659    -0.000026315785
      11       -0.000045169412     0.000027189318     0.000031849161
      12        0.000011085602    -0.000017927673    -0.000000054665
      13       -0.000011144465    -0.000002062306    -0.000011053425
      14        0.000013322460     0.000012580202     0.000004308521
      15       -0.000025788811    -0.000011566840     0.000005878482
      16        0.000000341940    -0.000004637426    -0.000004758425

  **** Optimization is complete! (in 5 steps) ****
    Final optimized geometry and variables:
    Molecular point group: c1

    Geometry (in Angstrom), charge = 0, multiplicity = 1:

    H            2.225355104060    -1.291636359503    -0.365483390535
    N            2.452431048052    -0.346920509223    -0.145949441376
    C            1.263970048467     0.496313795581    -0.074548808573
    H            3.111439053721    -0.020221350161    -0.816258041207
    C           -0.019082743385    -0.320428492006    -0.036805683129
    H            1.226682665466     1.192778625222    -0.908804699017
    H            1.317359501673     1.105249366991     0.823470049660
    C           -1.271845638145     0.531286900367     0.142114139117
    H           -0.101101890661    -0.897690833543    -0.955255969386
    H            0.048570188472    -1.038811866289     0.776806204607
    C           -2.554255770936    -0.293309610876     0.180091834126
    H           -1.333480820629     1.254619381668    -0.666333742853
    H           -1.186713481672     1.105974486262     1.059780131640
    H           -2.686794551863    -0.853653300421    -0.739436863168
    H           -3.424347107361     0.339947490255     0.309327663722
    H           -2.537830519534    -1.004111564292     0.999488848077

  Mulliken Charges: (a.u.)
   Center  Symbol    Alpha    Beta     Spin     Total
       1     H     0.42889  0.42889  0.00000  0.14222
       2     N     3.69632  3.69632  0.00000 -0.39264
       3     C     3.01514  3.01514  0.00000 -0.03028
       4     H     0.42768  0.42768  0.00000  0.14463
       5     C     3.08811  3.08811  0.00000 -0.17622
       6     H     0.46563  0.46563  0.00000  0.06875
       7     H     0.46386  0.46386  0.00000  0.07229
       8     C     3.08879  3.08879  0.00000 -0.17757
       9     H     0.45818  0.45818  0.00000  0.08364
      10     H     0.45179  0.45179  0.00000  0.09642
      11     C     3.14916  3.14916  0.00000 -0.29832
      12     H     0.45514  0.45514  0.00000  0.08972
      13     H     0.45319  0.45319  0.00000  0.09362
      14     H     0.45534  0.45534  0.00000  0.08932
      15     H     0.44826  0.44826  0.00000  0.10348
      16     H     0.45453  0.45453  0.00000  0.09094

   Total alpha = 21.00000, Total beta = 21.00000, Total charge =  0.00000

*** Psi4 exiting successfully. Buy a developer a beer!
