  ==> Input File <==

--------------------------------------------------------------------------
set {
	reference rhf
	basis 6-31G*
}

set_num_threads( 4 )
memory 2 gb

molecule MOL {
0 1

H	 2.652209	 0.763231	 0.000000
O	 2.263154	 -0.100023	 0.000000
C	 0.912879	 -0.015685	 0.000000
C	 0.198902	 -1.187434	 0.214057
C	 0.242865	 1.179704	 -0.203005
H	 0.737744	 -2.103588	 0.369363
C	 -1.181921	 -1.151990	 0.222997
H	 0.797416	 2.088243	 -0.368988
C	 -1.144196	 1.200775	 -0.191466
H	 -1.730283	 -2.062135	 0.389196
C	 -1.865082	 0.040186	 0.020703
H	 -1.656662	 2.132962	 -0.349883
H	 -2.939468	 0.059946	 0.029035

	symmetry c1
}
set optking {
	frozen_dihedral = ("
		4 3 2 1
	")
}

ee = optimize('scf')
oeprop('DIPOLE', 'QUADRUPOLE', 'MULLIKEN_CHARGES')
f=open( 'psi4out.xyz', 'w' )
f.write( "13  " )
f.write( str(ee) + "\n" )
f.write( MOL.save_string_xyz() )
f.close()
--------------------------------------------------------------------------

    Molecular point group: c1
  Charge       = 0
  Multiplicity = 1
  Basis Set: 6-31G*
  Basis Set:
  @DF-RHF Final Energy:  -305.55747230484889
    Total Energy =                       -305.5574723048487726
    Molecular point group: c1
  Basis Set: 6-31G*
  Basis Set:
  Basis Set: 6-31G*
  Basis Set:
  @DF-RHF Final Energy:  -305.55747532646302
    Total Energy =                       -305.5574753264630772
  Basis Set: 6-31G*
  Basis Set:
  Charge       = 0
  Multiplicity = 1
  Basis Set: 6-31G*
  Basis Set:

    Orbital Energies (a.u.)
    -----------------------

    Doubly Occupied:

       1A    -20.590357     2A    -11.297964     3A    -11.236856
       4A    -11.234783     5A    -11.228037     6A    -11.221927
       7A    -11.221767     8A     -1.408869     9A     -1.147268
      10A     -1.018632    11A     -1.004011    12A     -0.846410
      13A     -0.822078    14A     -0.735888    15A     -0.683780
      16A     -0.649894    17A     -0.609141    18A     -0.589868
      19A     -0.588201    20A     -0.560588    21A     -0.514026
      22A     -0.489656    23A     -0.478883    24A     -0.338126
      25A     -0.309568

  @DF-RHF Final Energy:  -305.55747615904494

   => Energetics <=

    Nuclear Repulsion Energy =            273.1419244980681356
    One-Electron Energy =                -955.7456424595791304
    Two-Electron Energy =                 377.0462418024659428
    DFT Exchange-Correlation Energy =       0.0000000000000000
    Empirical Dispersion Energy =           0.0000000000000000
    PCM Polarization Energy =               0.0000000000000000
    EFP Energy =                            0.0000000000000000
    Total Energy =                       -305.5574761590449953
    Molecular point group: c1
  Basis Set: 6-31G*
  Basis Set:

  -Total Gradient:
     Atom            X                  Y                   Z
    ------   -----------------  -----------------  -----------------
       1        0.000001721289    -0.000002805951     0.001012467433
       2       -0.000027343259     0.000062272792    -0.000925059771
       3        0.000047439755    -0.000109627294    -0.000844438897
       4       -0.000078976849     0.000085551759     0.000711518123
       5        0.000057339059    -0.000028409119     0.000060210832
       6        0.000005807921     0.000007612371     0.000010014303
       7        0.000067011267    -0.000040803313     0.000026275665
       8       -0.000004045038    -0.000002687053    -0.000012013666
       9       -0.000063269226    -0.000045000638    -0.000019311295
      10       -0.000006583974    -0.000003963699    -0.000003220323
      11       -0.000001654780     0.000074456121    -0.000026778407
      12        0.000004342357     0.000006815779     0.000006127319
      13       -0.000001788530    -0.000003411754     0.000004208686

  **** Optimization is complete! (in 3 steps) ****
    Final optimized geometry and variables:
    Molecular point group: c1

    Geometry (in Angstrom), charge = 0, multiplicity = 1:

    H            2.651534186002     0.763096488522    -0.011567915104
    O            2.263527019493    -0.100593234462    -0.010901896994
    C            0.912690968722    -0.016715093619    -0.008164090467
    C            0.198737088269    -1.187964389254     0.207045780703
    C            0.242858605622     1.179033870432    -0.210128438956
    H            0.737459154812    -2.103573314700     0.365689980063
    C           -1.182370192293    -1.153252726924     0.212066299613
    H            0.797728814934     2.086720174378    -0.379306816316
    C           -1.144091576652     1.200381786964    -0.198310377333
    H           -1.730833240724    -2.063443209701     0.378025648983
    C           -1.865155339084     0.039143977679     0.010729020629
    H           -1.656483023757     2.132811882492    -0.355647266579
    H           -2.939614759114     0.058995242317     0.018202475277

  Mulliken Charges: (a.u.)
   Center  Symbol    Alpha    Beta     Spin     Total
       1     H     0.27186  0.27186  0.00000  0.45628
       2     O     4.37874  4.37874  0.00000 -0.75747
       3     C     2.79453  2.79453  0.00000  0.41093
       4     C     3.12336  3.12336  0.00000 -0.24673
       5     C     3.14389  3.14389  0.00000 -0.28778
       6     H     0.39170  0.39170  0.00000  0.21660
       7     C     3.09108  3.09108  0.00000 -0.18217
       8     H     0.40443  0.40443  0.00000  0.19115
       9     C     3.09040  3.09040  0.00000 -0.18080
      10     H     0.39802  0.39802  0.00000  0.20395
      11     C     3.11306  3.11306  0.00000 -0.22612
      12     H     0.39837  0.39837  0.00000  0.20326
      13     H     0.40055  0.40055  0.00000  0.19890

   Total alpha = 25.00000, Total beta = 25.00000, Total charge = -0.00000
