  ==> Input File <==

--------------------------------------------------------------------------
set {
	reference rhf
	basis cc-pvtz
}

set_num_threads( 4 )
memory 2 gb

molecule MOL {
0 1

H	 1.887908	 1.415554	 -0.278314
C	 1.887106	 0.344056	 -0.113846
N	 0.526300	 -0.128137	 0.000000
H	 2.420447	 0.153121	 0.808722
H	 2.444217	 -0.116651	 -0.932349
C	 -0.247113	 0.037112	 -1.209233
H	 0.520658	 -1.085064	 0.279137
H	 -0.996493	 -0.743733	 -1.271440
H	 0.397975	 -0.057351	 -2.073512
H	 -0.763794	 0.997171	 -1.271673

	symmetry c1
}
set optking {
	frozen_dihedral = ("
		2 3 6 8
	")
}

ee = optimize('scf')
oeprop('DIPOLE', 'QUADRUPOLE', 'MULLIKEN_CHARGES')
f=open( 'psi4out.xyz', 'w' )
f.write( "10  " )
f.write( str(ee) + "\n" )
f.write( MOL.save_string_xyz() )
f.close()
--------------------------------------------------------------------------

    Molecular point group: c1
  Charge       = 0
  Multiplicity = 1
  Basis Set: CC-PVTZ
  Basis Set:
  @DF-RHF Final Energy:  -134.29037568678592
    Total Energy =                       -134.2903756867859215
    Molecular point group: c1
  Basis Set: CC-PVTZ
  Basis Set:
  Basis Set: CC-PVTZ
  Basis Set:
  @DF-RHF Final Energy:  -134.29097725065901
    Total Energy =                       -134.2909772506590116
  Basis Set: CC-PVTZ
  Basis Set:
  Basis Set: CC-PVTZ
  Basis Set:
  @DF-RHF Final Energy:  -134.29105504023772
    Total Energy =                       -134.2910550402376941
  Basis Set: CC-PVTZ
  Basis Set:
  Basis Set: CC-PVTZ
  Basis Set:
  @DF-RHF Final Energy:  -134.29105632131578
    Total Energy =                       -134.2910563213158639
  Basis Set: CC-PVTZ
  Basis Set:
  Charge       = 0
  Multiplicity = 1
  Basis Set: CC-PVTZ
  Basis Set:

    Orbital Energies (a.u.)
    -----------------------

    Doubly Occupied:

       1A    -15.532126     2A    -11.234382     3A    -11.234358
       4A     -1.199703     5A     -0.948405     6A     -0.854517
       7A     -0.661874     8A     -0.613620     9A     -0.591027
      10A     -0.543614    11A     -0.508906    12A     -0.504592
      13A     -0.364294

  @DF-RHF Final Energy:  -134.29105642180190

   => Energetics <=

    Nuclear Repulsion Energy =             84.6412685090709687
    One-Electron Energy =                -348.2818151279557242
    Two-Electron Energy =                 129.3494901970829289
    DFT Exchange-Correlation Energy =       0.0000000000000000
    Empirical Dispersion Energy =           0.0000000000000000
    PCM Polarization Energy =               0.0000000000000000
    EFP Energy =                            0.0000000000000000
    Total Energy =                       -134.2910564218018123
    Molecular point group: c1
  Basis Set: CC-PVTZ
  Basis Set:

  -Total Gradient:
     Atom            X                  Y                   Z
    ------   -----------------  -----------------  -----------------
       1        0.000006475270     0.000004017805    -0.000000773238
       2        0.000812925456    -0.002600757919    -0.000828054974
       3       -0.000509522590     0.003085707069     0.000671787605
       4        0.000011593360     0.000002788756     0.000002532443
       5       -0.000003147950     0.000000474118    -0.000006706166
       6       -0.002744233398     0.001705563212     0.001971650392
       7       -0.000021859255    -0.000001862671     0.000026573081
       8        0.002432120853    -0.002192856887    -0.001820585777
       9        0.000005672282    -0.000005833307    -0.000010875531
      10        0.000009975972     0.000002759823    -0.000005547835

  **** Optimization is complete! (in 5 steps) ****
    Final optimized geometry and variables:
    Molecular point group: c1

    Geometry (in Angstrom), charge = 0, multiplicity = 1:

    H            1.163757961471     1.341104523200     0.172432474296
    C            1.156313166946     0.271634235181     0.351160108090
    N           -0.206468525519    -0.198080644746     0.458349038253
    H            1.680271712093     0.092697234131     1.281600149260
    H            1.717405611948    -0.201971226235    -0.456461511589
    C           -0.980880989805    -0.044411642091    -0.757700700041
    H           -0.203216228455    -1.154916953662     0.734379144633
    H           -1.731169508297    -0.822424839910    -0.820322787791
    H           -0.369741789401    -0.126500541169    -1.657512397891
    H           -1.477402625235     0.918713174138    -0.781967972233

  Mulliken Charges: (a.u.)
   Center  Symbol    Alpha    Beta     Spin     Total
       1     H     0.45687  0.45687  0.00000  0.08626
       2     C     3.08268  3.08268  0.00000 -0.16536
       3     N     3.62806  3.62806  0.00000 -0.25612
       4     H     0.45282  0.45282  0.00000  0.09436
       5     H     0.47372  0.47372  0.00000  0.05256
       6     C     3.07668  3.07668  0.00000 -0.15337
       7     H     0.44128  0.44128  0.00000  0.11744
       8     H     0.45656  0.45656  0.00000  0.08687
       9     H     0.47595  0.47595  0.00000  0.04810
      10     H     0.45537  0.45537  0.00000  0.08925

   Total alpha = 13.00000, Total beta = 13.00000, Total charge = -0.00000
