  ==> Input File <==

--------------------------------------------------------------------------
set {
	reference rhf
	basis 6-31G*
}

set_num_threads( 1 )
memory 2 gb

molecule MOL {
0 1

H	 -2.698709	 -0.000305	 0.034435
C	 -1.693833	 0.000034	 0.434417
O	 -0.828952	 -0.000968	 -0.659236
H	 -1.574200	 0.882896	 1.055746
H	 -1.574147	 -0.881698	 1.057355
C	 -1.153944	 0.793106	 -1.776523
C	 -2.442877	 0.341580	 -2.460403
C	 -1.161086	 2.285594	 -1.451892
H	 -0.333262	 0.605932	 -2.458784
H	 -2.423551	 -0.729638	 -2.629721
H	 -2.546244	 0.836371	 -3.420993
H	 -3.324613	 0.580370	 -1.874157
H	 -0.254956	 2.559782	 -0.922547
H	 -1.208095	 2.864595	 -2.368960
H	 -2.013378	 2.569700	 -0.843022

	symmetry c1
}
set optking {
	frozen_dihedral = ("
		9 6 3 2
	")
}

ee = energy('scf')
oeprop('DIPOLE', 'QUADRUPOLE', 'MULLIKEN_CHARGES')
f=open( 'psi4out.xyz', 'w' )
f.write( "15  " )
f.write( str(ee) + "\n" )
f.write( MOL.save_string_xyz() )
f.close()
--------------------------------------------------------------------------

    Molecular point group: c1

    Geometry (in Angstrom), charge = 0, multiplicity = 1:

       Center              X                  Y                   Z               Mass
    ------------   -----------------  -----------------  -----------------  -----------------
           H         -1.230275459797    -0.680564428638     1.196322497596     1.007825032070
           C         -0.225399459797    -0.680225428638     1.596304497596    12.000000000000
           O          0.639481540203    -0.681227428638     0.502651497596    15.994914619560
           H         -0.105766459797     0.202636571362     2.217633497596     1.007825032070
           H         -0.105713459797    -1.561957428638     2.219242497596     1.007825032070
           C          0.314489540203     0.112846571362    -0.614635502404    12.000000000000
           C         -0.974443459797    -0.338679428638    -1.298515502404    12.000000000000
           C          0.307347540203     1.605334571362    -0.290004502404    12.000000000000
           H          1.135171540203    -0.074327428638    -1.296896502404     1.007825032070
           H         -0.955117459797    -1.409897428638    -1.467833502404     1.007825032070
           H         -1.077810459797     0.156111571362    -2.259105502404     1.007825032070
           H         -1.856179459797    -0.099889428638    -0.712269502404     1.007825032070
           H          1.213477540203     1.879522571362     0.239340497596     1.007825032070
           H          0.260338540203     2.184335571362    -1.207072502404     1.007825032070
           H         -0.544944459797     1.889440571362     0.318865497596     1.007825032070

  Charge       = 0
  Multiplicity = 1
  Basis Set: 6-31G*
  Basis Set:

    Orbital Energies (a.u.)
    -----------------------

    Doubly Occupied:

       1A    -20.546143     2A    -11.275416     3A    -11.261122
       4A    -11.211139     5A    -11.210652     6A     -1.369728
       7A     -1.050401     8A     -0.940195     9A     -0.931262
      10A     -0.781473    11A     -0.675197    12A     -0.640385
      13A     -0.632904    14A     -0.575983    15A     -0.565662
      16A     -0.550480    17A     -0.534519    18A     -0.500769
      19A     -0.496819    20A     -0.439802    21A     -0.404964

  @DF-RHF Final Energy:  -232.13447225619640

   => Energetics <=

    Nuclear Repulsion Energy =            198.9463286652072327
    One-Electron Energy =                -708.9714815304513422
    Two-Electron Energy =                 277.8906806090477630
    DFT Exchange-Correlation Energy =       0.0000000000000000
    Empirical Dispersion Energy =           0.0000000000000000
    PCM Polarization Energy =               0.0000000000000000
    EFP Energy =                            0.0000000000000000
    Total Energy =                       -232.1344722561963181

  Mulliken Charges: (a.u.)
   Center  Symbol    Alpha    Beta     Spin     Total
       1     H     0.43193  0.43193  0.00000  0.13615
       2     C     3.07892  3.07892  0.00000 -0.15783
       3     O     4.31356  4.31356  0.00000 -0.62712
       4     H     0.42802  0.42802  0.00000  0.14397
       5     H     0.41363  0.41363  0.00000  0.17275
       6     C     2.90988  2.90988  0.00000  0.18024
       7     C     3.25439  3.25439  0.00000 -0.50878
       8     C     3.25253  3.25253  0.00000 -0.50506
       9     H     0.41454  0.41454  0.00000  0.17093
      10     H     0.41094  0.41094  0.00000  0.17813
      11     H     0.41864  0.41864  0.00000  0.16273
      12     H     0.42065  0.42065  0.00000  0.15869
      13     H     0.41121  0.41121  0.00000  0.17758
      14     H     0.41960  0.41960  0.00000  0.16079
      15     H     0.42158  0.42158  0.00000  0.15684

   Total alpha = 21.00000, Total beta = 21.00000, Total charge = -0.00000
