  ==> Input File <==

--------------------------------------------------------------------------
set {
	reference rhf
	basis 6-31G*
}

set_num_threads( 4 )
memory 2 gb

molecule MOL {
0 1

H	 -3.161837	 0.500524	 -0.000234
C	 -2.367097	 -0.232926	 -0.000000
O	 -1.158440	 0.455814	 -0.000122
H	 -2.468853	 -0.861886	 -0.882833
H	 -2.468942	 -0.861421	 0.883154
C	 -0.029776	 -0.365156	 0.000148
C	 1.212217	 0.508981	 0.000007
H	 -0.036772	 -1.013236	 -0.877259
H	 -0.036869	 -1.012778	 0.877897
C	 2.496848	 -0.300895	 -0.169415
H	 1.120208	 1.237645	 -0.799521
H	 1.240541	 1.067095	 0.930816
H	 2.499307	 -0.848692	 -1.107678
H	 3.366641	 0.347403	 -0.165484
H	 2.620193	 -1.021060	 0.634670

	symmetry c1
}
set optking {
	frozen_dihedral = ("
		11 7 6 8
	")
}

ee = optimize('scf')
oeprop('DIPOLE', 'QUADRUPOLE', 'MULLIKEN_CHARGES')
f=open( 'psi4out.xyz', 'w' )
f.write( "15  " )
f.write( str(ee) + "\n" )
f.write( MOL.save_string_xyz() )
f.close()
--------------------------------------------------------------------------

    Molecular point group: c1
  Charge       = 0
  Multiplicity = 1
  Basis Set: 6-31G*
  Basis Set:
  @DF-RHF Final Energy:  -232.13925269974538
    Total Energy =                       -232.1392526997453842
    Molecular point group: c1
  Basis Set: 6-31G*
  Basis Set:
  Basis Set: 6-31G*
  Basis Set:
  @DF-RHF Final Energy:  -232.13927391382032
    Total Energy =                       -232.1392739138203751
  Basis Set: 6-31G*
  Basis Set:
  Basis Set: 6-31G*
  Basis Set:
  @DF-RHF Final Energy:  -232.13928423300300
    Total Energy =                       -232.1392842330031385
  Basis Set: 6-31G*
  Basis Set:
  Charge       = 0
  Multiplicity = 1
  Basis Set: 6-31G*
  Basis Set:

    Orbital Energies (a.u.)
    -----------------------

    Doubly Occupied:

       1A    -20.553758     2A    -11.266268     3A    -11.264125
       4A    -11.214227     5A    -11.213005     6A     -1.378676
       7A     -1.057199     8A     -0.955442     9A     -0.877476
      10A     -0.809271    11A     -0.674476    12A     -0.654516
      13A     -0.630445    14A     -0.607141    15A     -0.565706
      16A     -0.541161    17A     -0.503263    18A     -0.489358
      19A     -0.477423    20A     -0.461565    21A     -0.413760

  @DF-RHF Final Energy:  -232.13928446054010

   => Energetics <=

    Nuclear Repulsion Energy =            189.7211758143561440
    One-Electron Energy =                -690.5043965815796128
    Two-Electron Energy =                 268.6439363066834289
    DFT Exchange-Correlation Energy =       0.0000000000000000
    Empirical Dispersion Energy =           0.0000000000000000
    PCM Polarization Energy =               0.0000000000000000
    EFP Energy =                            0.0000000000000000
    Total Energy =                       -232.1392844605400683
    Molecular point group: c1
  Basis Set: 6-31G*
  Basis Set:

  -Total Gradient:
     Atom            X                  Y                   Z
    ------   -----------------  -----------------  -----------------
       1       -0.000006060783    -0.000001061440    -0.000001296525
       2        0.000015162879     0.000000512651    -0.000003689602
       3        0.000002509381     0.000008834440    -0.000020076028
       4       -0.000005477698    -0.000001295524     0.000000734163
       5       -0.000000538518    -0.000001274453     0.000000782368
       6       -0.000997308379     0.001458636256    -0.000667684851
       7        0.000964735315    -0.001389663327    -0.000953103830
       8        0.000696971300    -0.000996018771     0.000750957597
       9       -0.000010540309    -0.000017517317    -0.000000212904
      10        0.000000737070    -0.000007981498    -0.000007750038
      11       -0.000635043975     0.000926054872     0.000906808739
      12       -0.000008855051     0.000006260152    -0.000001500280
      13        0.000008460781     0.000001890087    -0.000006465790
      14       -0.000005279891     0.000004313971     0.000008470017
      15       -0.000019472119     0.000008309899    -0.000005973036

  **** Optimization is complete! (in 4 steps) ****
    Final optimized geometry and variables:
    Molecular point group: c1

    Geometry (in Angstrom), charge = 0, multiplicity = 1:

    H           -3.161843568909     0.498133817162     0.050556881460
    C           -2.366500183374    -0.234688021020     0.046754724763
    O           -1.158221344452     0.454610951794     0.030131650815
    H           -2.476670053216    -0.868685815715    -0.831421101713
    H           -2.458472901762    -0.858213032823     0.934449744627
    C           -0.029756246818    -0.365702530784     0.020840253386
    C            1.214008707940     0.506593196214     0.026552487604
    H           -0.036234243120    -1.013216384144    -0.857185470602
    H           -0.034059367256    -1.019749120715     0.894043272443
    C            2.500214365237    -0.303386172222    -0.124528284352
    H            1.124367313897     1.235846650113    -0.772599737961
    H            1.234677353505     1.070773257761     0.954383153260
    H            2.520617139408    -0.841825652118    -1.067799973278
    H            3.370938254909     0.343033971902    -0.095644941486
    H            2.605690280682    -1.031907177776     0.674746211138

  Mulliken Charges: (a.u.)
   Center  Symbol    Alpha    Beta     Spin     Total
       1     H     0.41212  0.41212  0.00000  0.17576
       2     C     3.07939  3.07939  0.00000 -0.15877
       3     O     4.30558  4.30558  0.00000 -0.61115
       4     H     0.43033  0.43033  0.00000  0.13934
       5     H     0.43032  0.43032  0.00000  0.13936
       6     C     2.98167  2.98167  0.00000  0.03666
       7     C     3.16015  3.16015  0.00000 -0.32031
       8     H     0.43356  0.43356  0.00000  0.13288
       9     H     0.43349  0.43349  0.00000  0.13302
      10     C     3.24780  3.24780  0.00000 -0.49560
      11     H     0.41319  0.41319  0.00000  0.17363
      12     H     0.41545  0.41545  0.00000  0.16910
      13     H     0.42040  0.42040  0.00000  0.15919
      14     H     0.41541  0.41541  0.00000  0.16917
      15     H     0.42114  0.42114  0.00000  0.15772

   Total alpha = 21.00000, Total beta = 21.00000, Total charge = -0.00000
