                              Psi4 1.0.54 Driver

  ==> Input File <==

--------------------------------------------------------------------------
set {
	reference rhf
	basis cc-pvtz
}

set_num_threads( 4 )
memory 2 gb

molecule MOL {
0 1

O	 0.749630	 1.305591	 -0.000460
C	 0.576499	 0.134701	 -0.003900
C	 -0.765656	 -0.550508	 -0.002152
O	 1.564816	 -0.744612	 -0.000631
C	 -1.945526	 0.411052	 0.000603
H	 -0.794329	 -1.203792	 -0.868145
H	 -0.791555	 -1.205429	 0.862701
C	 -2.883076	 0.172720	 -1.178007
H	 -1.576634	 1.429317	 -0.020589
H	 -2.488944	 0.307082	 0.931874
H	 -2.368402	 0.302522	 -2.124354
H	 -3.714303	 0.867040	 -1.156939
H	 -3.291830	 -0.832238	 -1.160467
C	 2.884339	 -0.237801	 0.002883
H	 3.064150	 0.362814	 -0.876312
H	 3.533055	 -1.098529	 0.004958
H	 3.059365	 0.363432	 0.882614

	symmetry c1
}
set optking {
	frozen_dihedral = ("
		9 5 3 6
	")
}

ee,wfn = optimize('scf', return_wfn=True)
oeprop( wfn, 'DIPOLE', 'QUADRUPOLE', 'MULLIKEN_CHARGES')
f=open( 'psi4out.xyz', 'w' )
f.write( "17  " )
f.write( str(ee) + "\n" )
f.write( MOL.save_string_xyz() )
f.close()
--------------------------------------------------------------------------

    Molecular point group: c1
  Charge       = 0
  Multiplicity = 1
  Basis Set: CC-PVTZ
  Basis Set:
  @DF-RHF Final Energy:  -345.03026144230802
    Total Energy =                       -345.0302614423079604
    Molecular point group: c1
  Basis Set: CC-PVTZ
  Basis Set:
  Basis Set: CC-PVTZ
  Basis Set:
  @DF-RHF Final Energy:  -345.03032024087878
    Total Energy =                       -345.0303202408787797
  Basis Set: CC-PVTZ
  Basis Set:
  Basis Set: CC-PVTZ
  Basis Set:
  @DF-RHF Final Energy:  -345.03054377876174
    Total Energy =                       -345.0305437787612846
  Basis Set: CC-PVTZ
  Basis Set:
  Basis Set: CC-PVTZ
  Basis Set:
  @DF-RHF Final Energy:  -345.03065832695569
    Total Energy =                       -345.0306583269558018
  Basis Set: CC-PVTZ
  Basis Set:
  Basis Set: CC-PVTZ
  Basis Set:
  @DF-RHF Final Energy:  -345.03066790925266
    Total Energy =                       -345.0306679092526565
  Basis Set: CC-PVTZ
  Basis Set:
  Basis Set: CC-PVTZ
  Basis Set:
  @DF-RHF Final Energy:  -345.03066910692064
    Total Energy =                       -345.0306691069204135
  Basis Set: CC-PVTZ
  Basis Set:
  Basis Set: CC-PVTZ
  Basis Set:
  @DF-RHF Final Energy:  -345.03067015152948
    Total Energy =                       -345.0306701515293071
  Basis Set: CC-PVTZ
  Basis Set:
  Charge       = 0
  Multiplicity = 1
  Basis Set: CC-PVTZ
  Basis Set:

    Orbital Energies (a.u.)
    -----------------------

    Doubly Occupied:

       1A    -20.596922     2A    -20.535385     3A    -11.365953
       4A    -11.278985     5A    -11.234262     6A    -11.218294
       7A    -11.211482     8A     -1.473280     9A     -1.366808
      10A     -1.078433    11A     -1.002543    12A     -0.939620
      13A     -0.829115    14A     -0.768955    15A     -0.704469
      16A     -0.685258    17A     -0.676805    18A     -0.628526
      19A     -0.603609    20A     -0.571920    21A     -0.571450
      22A     -0.533244    23A     -0.525961    24A     -0.490368
      25A     -0.486085    26A     -0.474925    27A     -0.461932
      28A     -0.443667

  @DF-RHF Final Energy:  -345.03067039501127

   => Energetics <=

    Nuclear Repulsion Energy =            313.8138286948973246
    One-Electron Energy =               -1092.1724846854515363
    Two-Electron Energy =                 433.3279855955428275
    DFT Exchange-Correlation Energy =       0.0000000000000000
    Empirical Dispersion Energy =           0.0000000000000000
    PCM Polarization Energy =               0.0000000000000000
    EFP Energy =                            0.0000000000000000
    Total Energy =                       -345.0306703950113842
    Molecular point group: c1
  Basis Set: CC-PVTZ
  Basis Set:

  -Total Gradient:
     Atom            X                  Y                   Z
    ------   -----------------  -----------------  -----------------
       1        0.000016336595    -0.000024912692     0.000016062196
       2       -0.000021984213     0.000032923774    -0.000000148289
       3        0.000270557570     0.000314005805    -0.000184329624
       4        0.000020578658     0.000004751288    -0.000021338420
       5       -0.000073432587    -0.000066631054    -0.000440593532
       6       -0.000220730162    -0.000278119849     0.000219482378
       7       -0.000006414705     0.000020550732     0.000009794923
       8        0.000009758515    -0.000004383454    -0.000002526723
       9        0.000009260121     0.000003236758     0.000403810194
      10        0.000003256345    -0.000001760008    -0.000003232890
      11       -0.000003590206     0.000002991598    -0.000000348775
      12       -0.000002642270    -0.000001597988     0.000001241136
      13        0.000001863382     0.000000199469    -0.000002073961
      14       -0.000008468596    -0.000006739225     0.000005383060
      15       -0.000000833449     0.000001010578    -0.000002097375
      16        0.000004257955     0.000001615106    -0.000000028779
      17        0.000002227046     0.000002859161     0.000000944484

  **** Optimization is complete! (in 8 steps) ****
    Final optimized geometry and variables:
    Molecular point group: c1

    Geometry (in Angstrom), charge = 0, multiplicity = 1:

    O            0.718984032794     1.237876584447     0.134420980338
    C            0.528315347776     0.070270506727     0.166136841581
    C           -0.818825307770    -0.611731021225     0.171550946390
    O            1.506387691049    -0.820047581120     0.197042930775
    C           -2.024722258901     0.338185284605     0.173612716974
    H           -0.831445723160    -1.267074892308    -0.692571923838
    H           -0.825945930063    -1.273186040096     1.029613408781
    C           -2.974928212069     0.101249838943    -0.996394898452
    H           -1.669994805399     1.358400428408     0.153041739116
    H           -2.569192501231     0.221177417301     1.103441068466
    H           -2.470586080879     0.255796177774    -1.944410790442
    H           -3.817004269096     0.781972679674    -0.955205087153
    H           -3.366715683686    -0.910698344109    -0.990411398739
    C            2.831790178157    -0.329511664101     0.188956938793
    H            3.021250219878     0.242658549925    -0.707112801884
    H            3.470351283820    -1.197418139111     0.218128501926
    H            3.012412761228     0.295360453869     1.050972417068

  Mulliken Charges: (a.u.)
   Center  Symbol    Alpha    Beta     Spin     Total
       1     O     4.19620  4.19620  0.00000 -0.39240
       2     C     2.80161  2.80161  0.00000  0.39678
       3     C     3.10641  3.10641  0.00000 -0.21282
       4     O     4.14751  4.14751  0.00000 -0.29502
       5     C     3.08946  3.08946  0.00000 -0.17892
       6     H     0.43951  0.43951  0.00000  0.12098
       7     H     0.43451  0.43451  0.00000  0.13099
       8     C     3.14889  3.14889  0.00000 -0.29778
       9     H     0.43566  0.43566  0.00000  0.12868
      10     H     0.45202  0.45202  0.00000  0.09596
      11     H     0.45384  0.45384  0.00000  0.09232
      12     H     0.44804  0.44804  0.00000  0.10393
      13     H     0.45605  0.45605  0.00000  0.08790
      14     C     3.03621  3.03621  0.00000 -0.07241
      15     H     0.45441  0.45441  0.00000  0.09117
      16     H     0.44544  0.44544  0.00000  0.10912
      17     H     0.45423  0.45423  0.00000  0.09153

   Total alpha = 28.00000, Total beta = 28.00000, Total charge = -0.00000

*** Psi4 exiting successfully. Buy a developer a beer!
