  ==> Input File <==

--------------------------------------------------------------------------
set {
	reference rhf
	basis cc-pvtz
}

set_num_threads( 4 )
memory 2 gb

molecule MOL {
0 1

O	 -1.619584	 -1.799767	 -1.456053
C	 -0.703152	 -1.495340	 -0.770980
C	 0.590910	 -2.261411	 -0.659623
O	 -0.695554	 -0.422406	 0.000602
C	 0.632991	 -3.506978	 -1.530119
H	 0.729583	 -2.506603	 0.387564
H	 1.392402	 -1.575960	 -0.912020
H	 -0.158044	 -4.195152	 -1.263854
H	 1.582657	 -4.013650	 -1.408605
H	 0.510792	 -3.256064	 -2.575268
C	 -1.852370	 0.402254	 0.000718
C	 -3.063338	 -0.501097	 -0.000437
H	 -1.831732	 1.039442	 -0.872158
H	 -1.832493	 1.038301	 0.874430
H	 -3.071944	 -1.133732	 -0.879113
H	 -3.966302	 0.097976	 -0.000483
H	 -3.072764	 -1.134834	 0.877435

	symmetry c1
}
set optking {
	frozen_dihedral = ("
		2 4 11 13
	")
}

ee = optimize('scf')
oeprop('DIPOLE', 'QUADRUPOLE', 'MULLIKEN_CHARGES')
f=open( 'psi4out.xyz', 'w' )
f.write( "17  " )
f.write( str(ee) + "\n" )
f.write( MOL.save_string_xyz() )
f.close()
--------------------------------------------------------------------------

    Molecular point group: c1
  Charge       = 0
  Multiplicity = 1
  Basis Set: CC-PVTZ
  Basis Set:
  @DF-RHF Final Energy:  -345.00779945371181
    Total Energy =                       -345.0077994537123232
    Molecular point group: c1
  Basis Set: CC-PVTZ
  Basis Set:
  Basis Set: CC-PVTZ
  Basis Set:
  @DF-RHF Final Energy:  -345.02885155422712
    Total Energy =                       -345.0288515542269465
  Basis Set: CC-PVTZ
  Basis Set:
  Basis Set: CC-PVTZ
  Basis Set:
  @DF-RHF Final Energy:  -345.03297471735033
    Total Energy =                       -345.0329747173503279
  Basis Set: CC-PVTZ
  Basis Set:
  Basis Set: CC-PVTZ
  Basis Set:
  @DF-RHF Final Energy:  -345.02951194254939
    Total Energy =                       -345.0295119425492771
  Basis Set: CC-PVTZ
  Basis Set:
  @DF-RHF Final Energy:  -345.03422773828703
    Total Energy =                       -345.0342277382869725
  Basis Set: CC-PVTZ
  Basis Set:
  @DF-RHF Final Energy:  -345.03444426497481
    Total Energy =                       -345.0344442649750363
  Basis Set: CC-PVTZ
  Basis Set:
  Basis Set: CC-PVTZ
  Basis Set:
  @DF-RHF Final Energy:  -345.03446146455968
    Total Energy =                       -345.0344614645591719
  Basis Set: CC-PVTZ
  Basis Set:
  Basis Set: CC-PVTZ
  Basis Set:
  @DF-RHF Final Energy:  -345.03446432718260
    Total Energy =                       -345.0344643271825475
  Basis Set: CC-PVTZ
  Basis Set:
  Charge       = 0
  Multiplicity = 1
  Basis Set: CC-PVTZ
  Basis Set:

    Orbital Energies (a.u.)
    -----------------------

    Doubly Occupied:

       1A    -20.591642     2A    -20.531573     3A    -11.364063
       4A    -11.286371     5A    -11.234697     6A    -11.214650
       7A    -11.213054     8A     -1.466854     9A     -1.364645
      10A     -1.068885    11A     -1.028691    12A     -0.919584
      13A     -0.857861    14A     -0.749353    15A     -0.701290
      16A     -0.683215    17A     -0.665677    18A     -0.626818
      19A     -0.610000    20A     -0.568154    21A     -0.546590
      22A     -0.531517    23A     -0.521989    24A     -0.517763
      25A     -0.495572    26A     -0.491291    27A     -0.453548
      28A     -0.433629

  @DF-RHF Final Energy:  -345.03446526745427

   => Energetics <=

    Nuclear Repulsion Energy =            319.8087147195200259
    One-Electron Energy =               -1104.2084070063781382
    Two-Electron Energy =                 439.3652270194038465
    DFT Exchange-Correlation Energy =       0.0000000000000000
    Empirical Dispersion Energy =           0.0000000000000000
    PCM Polarization Energy =               0.0000000000000000
    EFP Energy =                            0.0000000000000000
    Total Energy =                       -345.0344652674542658
    Molecular point group: c1
  Basis Set: CC-PVTZ
  Basis Set:

  -Total Gradient:
     Atom            X                  Y                   Z
    ------   -----------------  -----------------  -----------------
       1        0.000017508498     0.000000088969    -0.000036839705
       2       -0.001862325158    -0.003119579678     0.004361874047
       3        0.000000150027    -0.000065293646     0.000065671082
       4        0.003578403124     0.005733985344    -0.005788673476
       5       -0.000002864312     0.000025108093    -0.000017185950
       6        0.000021193633     0.000017421317    -0.000008149135
       7        0.000007073076     0.000020216791    -0.000021122398
       8       -0.000007372663    -0.000015752227    -0.000000419134
       9       -0.000009345634     0.000010504980     0.000009780983
      10       -0.000001681024    -0.000006597868    -0.000003393875
      11       -0.004785947916    -0.006976963347    -0.001677531446
      12       -0.000009150804    -0.000024516716     0.000004850283
      13        0.003152943011     0.004343569233     0.003107265189
      14       -0.000034492909    -0.000007067789     0.000005935938
      15       -0.000029347846    -0.000003043252    -0.000008859880
      16       -0.000037993317     0.000036247773     0.000022738511
      17        0.000003250217     0.000031672020    -0.000015941037

  **** Optimization is complete! (in 9 steps) ****
    Final optimized geometry and variables:
    Molecular point group: c1

    Geometry (in Angstrom), charge = 0, multiplicity = 1:

    O           -0.521367685905    -0.458270426777    -1.012034433706
    C            0.295984326561    -0.151776332814    -0.212335268022
    C            1.561607353760    -0.925278367813     0.065557826327
    O            0.231103626598     0.931325143792     0.540597876771
    C            1.736419377540    -2.141604887371    -0.829292319135
    H            1.540564702858    -1.206681824525     1.112850009822
    H            2.390760035697    -0.234644477168    -0.038546389946
    H            0.915228493927    -2.835320295437    -0.708942005069
    H            2.657595253204    -2.655352754389    -0.582461348942
    H            1.773720084694    -1.856029150125    -1.872137960449
    C           -0.946004518971     1.731431979596     0.606279359274
    C           -2.246480642926     0.989172656828     0.842453762928
    H           -0.978009209022     2.373466765324    -0.264529609443
    H           -0.749389681019     2.375074416692     1.451806024737
    H           -2.567040123787     0.428581098797    -0.018987611928
    H           -3.008582411123     1.719902100810     1.090321373743
    H           -2.149045940099     0.313537457106     1.684746120198

  Mulliken Charges: (a.u.)
   Center  Symbol    Alpha    Beta     Spin     Total
       1     O     4.19962  4.19962  0.00000 -0.39925
       2     C     2.80078  2.80078  0.00000  0.39844
       3     C     3.09414  3.09414  0.00000 -0.18828
       4     O     4.15499  4.15499  0.00000 -0.30997
       5     C     3.13987  3.13987  0.00000 -0.27974
       6     H     0.44325  0.44325  0.00000  0.11351
       7     H     0.44028  0.44028  0.00000  0.11944
       8     H     0.44856  0.44856  0.00000  0.10288
       9     H     0.45068  0.45068  0.00000  0.09864
      10     H     0.44884  0.44884  0.00000  0.10232
      11     C     2.98362  2.98362  0.00000  0.03275
      12     C     3.15683  3.15683  0.00000 -0.31366
      13     H     0.45483  0.45483  0.00000  0.09033
      14     H     0.44774  0.44774  0.00000  0.10451
      15     H     0.43240  0.43240  0.00000  0.13520
      16     H     0.44995  0.44995  0.00000  0.10009
      17     H     0.45361  0.45361  0.00000  0.09279

   Total alpha = 28.00000, Total beta = 28.00000, Total charge = -0.00000
