  ==> Input File <==

--------------------------------------------------------------------------
set {
	reference rhf
	basis cc-pvtz
}

set_num_threads( 4 )
memory 2 gb

molecule MOL {
0 1

H	 -1.088256	 -1.364742	 0.152233
O	 -1.432053	 -0.565244	 -0.200812
C	 -0.727158	 0.534527	 0.310686
C	 0.680222	 0.664433	 -0.252229
H	 -1.306802	 1.408001	 0.044211
H	 -0.690821	 0.490158	 1.397609
C	 1.518890	 1.745747	 0.422635
H	 1.178771	 -0.295118	 -0.163109
H	 0.597718	 0.881328	 -1.313737
H	 1.673841	 1.531174	 1.474335
H	 2.497697	 1.820219	 -0.035561
H	 1.043614	 2.718814	 0.343826

	symmetry c1
}
set optking {
	frozen_dihedral = ("
		8 4 3 2
	")
}

ee = optimize('scf')
oeprop('DIPOLE', 'QUADRUPOLE', 'MULLIKEN_CHARGES')
f=open( 'psi4out.xyz', 'w' )
f.write( "12  " )
f.write( str(ee) + "\n" )
f.write( MOL.save_string_xyz() )
f.close()
--------------------------------------------------------------------------

    Molecular point group: c1
  Charge       = 0
  Multiplicity = 1
  Basis Set: CC-PVTZ
  Basis Set:
  @DF-RHF Final Energy:  -193.19048314935645
    Total Energy =                       -193.1904831493564529
    Molecular point group: c1
  Basis Set: CC-PVTZ
  Basis Set:
  Basis Set: CC-PVTZ
  Basis Set:
  @DF-RHF Final Energy:  -193.19072212850844
    Total Energy =                       -193.1907221285086393
  Basis Set: CC-PVTZ
  Basis Set:
  Basis Set: CC-PVTZ
  Basis Set:
  @DF-RHF Final Energy:  -193.19076424387353
    Total Energy =                       -193.1907642438735309
  Basis Set: CC-PVTZ
  Basis Set:
  Basis Set: CC-PVTZ
  Basis Set:
  @DF-RHF Final Energy:  -193.19076943106595
    Total Energy =                       -193.1907694310658599
  Basis Set: CC-PVTZ
  Basis Set:
  Charge       = 0
  Multiplicity = 1
  Basis Set: CC-PVTZ
  Basis Set:

    Orbital Energies (a.u.)
    -----------------------

    Doubly Occupied:

       1A    -20.546005     2A    -11.265783     3A    -11.218053
       4A    -11.214576     5A     -1.364489     6A     -1.054534
       7A     -0.919719     8A     -0.820230     9A     -0.695841
      10A     -0.637282    11A     -0.599753    12A     -0.585610
      13A     -0.550294    14A     -0.504067    15A     -0.497789
      16A     -0.468903    17A     -0.432629

  @DF-RHF Final Energy:  -193.19076974383987

   => Energetics <=

    Nuclear Repulsion Energy =            131.1805491025100707
    One-Electron Energy =                -521.9915224242165550
    Two-Electron Energy =                 197.6202035778666755
    DFT Exchange-Correlation Energy =       0.0000000000000000
    Empirical Dispersion Energy =           0.0000000000000000
    PCM Polarization Energy =               0.0000000000000000
    EFP Energy =                            0.0000000000000000
    Total Energy =                       -193.1907697438397804
    Molecular point group: c1
  Basis Set: CC-PVTZ
  Basis Set:

  -Total Gradient:
     Atom            X                  Y                   Z
    ------   -----------------  -----------------  -----------------
       1        0.000007378412     0.000001529286     0.000004165233
       2        0.000654151673    -0.001033263945     0.001390954907
       3       -0.001037482891     0.001298679100    -0.002355267786
       4        0.001259430972     0.000418552499     0.003105766883
       5       -0.000003614163    -0.000021507006    -0.000024857709
       6       -0.000006505212     0.000001947229     0.000019252326
       7       -0.000015994901    -0.000048226889     0.000001640528
       8       -0.000826597912    -0.000638499274    -0.002116274813
       9       -0.000004430419     0.000007110453    -0.000027742595
      10        0.000005144585    -0.000000059834    -0.000001191417
      11       -0.000022323882    -0.000005756425     0.000015832593
      12       -0.000009156261     0.000019494802    -0.000012278149

  **** Optimization is complete! (in 5 steps) ****
    Final optimized geometry and variables:
    Molecular point group: c1

    Geometry (in Angstrom), charge = 0, multiplicity = 1:

    H           -0.987163482838    -1.908961308982    -0.010054154040
    O           -1.416472371248    -1.109808688681    -0.255526991670
    C           -0.700915614603    -0.013116742125     0.242815479862
    C            0.702487974590     0.090894865412    -0.334726490281
    H           -1.277426702803     0.866068932104    -0.013883012550
    H           -0.650593618160    -0.057881021415     1.329350082930
    C            1.537140713673     1.176575509971     0.333662983560
    H            1.194620091501    -0.874589524038    -0.242267854761
    H            0.625656130865     0.283062486730    -1.400114383963
    H            1.668171659041     0.978470217862     1.392097839173
    H            2.520955843400     1.243293350118    -0.114371096892
    H            1.065031557935     2.148632305335     0.236142041129

  Mulliken Charges: (a.u.)
   Center  Symbol    Alpha    Beta     Spin     Total
       1     H     0.39479  0.39479  0.00000  0.21043
       2     O     4.20177  4.20177  0.00000 -0.40354
       3     C     2.96642  2.96642  0.00000  0.06717
       4     C     3.08605  3.08605  0.00000 -0.17211
       5     H     0.45401  0.45401  0.00000  0.09198
       6     H     0.47429  0.47429  0.00000  0.05141
       7     C     3.15300  3.15300  0.00000 -0.30600
       8     H     0.46283  0.46283  0.00000  0.07434
       9     H     0.45063  0.45063  0.00000  0.09874
      10     H     0.45566  0.45566  0.00000  0.08867
      11     H     0.44684  0.44684  0.00000  0.10632
      12     H     0.45371  0.45371  0.00000  0.09258

   Total alpha = 17.00000, Total beta = 17.00000, Total charge = -0.00000
