                              Psi4 1.0.54 Driver

  ==> Input File <==

--------------------------------------------------------------------------
set {
	reference rhf
	basis cc-pvtz
}

set_num_threads( 4 )
memory 2 gb

molecule MOL {
0 1

H	 -0.000105	 1.988529	 0.748933
O	 -0.000098	 1.879786	 -0.188206
C	 -0.000014	 0.545691	 -0.532416
C	 -1.286000	 -0.125171	 -0.046657
C	 1.286016	 -0.125031	 -0.046584
H	 0.000021	 0.481103	 -1.610604
F	 -1.441535	 0.111653	 1.232633
F	 -2.346724	 0.321947	 -0.670085
F	 -1.235544	 -1.430118	 -0.207722
F	 2.317750	 0.468717	 -0.594166
F	 1.336617	 -1.393765	 -0.365123
F	 1.414467	 -0.024806	 1.259108

	symmetry c1
}
set optking {
	frozen_dihedral = ("
		7 4 3 6
	")
}

ee,wfn = optimize('scf', return_wfn=True)
oeprop( wfn, 'DIPOLE', 'QUADRUPOLE', 'MULLIKEN_CHARGES')
f=open( 'psi4out.xyz', 'w' )
f.write( "12  " )
f.write( str(ee) + "\n" )
f.write( MOL.save_string_xyz() )
f.close()
--------------------------------------------------------------------------

    Molecular point group: c1
  Charge       = 0
  Multiplicity = 1
  Basis Set: CC-PVTZ
  Basis Set:
  @DF-RHF Final Energy:  -786.58843806442292
    Total Energy =                       -786.5884380644221210
    Molecular point group: c1
  Basis Set: CC-PVTZ
  Basis Set:
  Basis Set: CC-PVTZ
  Basis Set:
  @DF-RHF Final Energy:  -786.58915133730864
    Total Energy =                       -786.5891513373078396
  Basis Set: CC-PVTZ
  Basis Set:
  Basis Set: CC-PVTZ
  Basis Set:
  @DF-RHF Final Energy:  -786.58937477723384
    Total Energy =                       -786.5893747772337292
  Basis Set: CC-PVTZ
  Basis Set:
  Basis Set: CC-PVTZ
  Basis Set:
  @DF-RHF Final Energy:  -786.58940906070598
    Total Energy =                       -786.5894090607062026
  Basis Set: CC-PVTZ
  Basis Set:
  Basis Set: CC-PVTZ
  Basis Set:
  @DF-RHF Final Energy:  -786.58941382587545
    Total Energy =                       -786.5894138258754538
  Basis Set: CC-PVTZ
  Basis Set:
  Charge       = 0
  Multiplicity = 1
  Basis Set: CC-PVTZ
  Basis Set:

    Orbital Energies (a.u.)
    -----------------------

    Doubly Occupied:

       1A    -26.358859     2A    -26.358250     3A    -26.358223
       4A    -26.356694     5A    -26.353915     6A    -26.353505
       7A    -20.609721     8A    -11.520376     9A    -11.519348
      10A    -11.351618    11A     -1.772113    12A     -1.766550
      13A     -1.667978    14A     -1.663507    15A     -1.663009
      16A     -1.660937    17A     -1.439671    18A     -1.102983
      19A     -1.001994    20A     -0.945334    21A     -0.871126
      22A     -0.868990    23A     -0.859452    24A     -0.852417
      25A     -0.840042    26A     -0.822455    27A     -0.749417
      28A     -0.734061    29A     -0.731647    30A     -0.725891
      31A     -0.696130    32A     -0.691845    33A     -0.690119
      34A     -0.681864    35A     -0.677683    36A     -0.669062
      37A     -0.663680    38A     -0.657455    39A     -0.625432
      40A     -0.554346    41A     -0.510225

  @DF-RHF Final Energy:  -786.58941455463628

   => Energetics <=

    Nuclear Repulsion Energy =            670.7998052671709956
    One-Electron Energy =               -2428.7825936833251035
    Two-Electron Energy =                 971.3933738615178299
    DFT Exchange-Correlation Energy =       0.0000000000000000
    Empirical Dispersion Energy =           0.0000000000000000
    PCM Polarization Energy =               0.0000000000000000
    EFP Energy =                            0.0000000000000000
    Total Energy =                       -786.5894145546362779
    Molecular point group: c1
  Basis Set: CC-PVTZ
  Basis Set:

  -Total Gradient:
     Atom            X                  Y                   Z
    ------   -----------------  -----------------  -----------------
       1        0.000000230528    -0.000006902510    -0.000006111173
       2       -0.000000382494    -0.000015880026    -0.000018695028
       3        0.000480535508    -0.000761942960     0.000025641392
       4        0.000569863305    -0.000922270730     0.000260353271
       5       -0.000094377475     0.000053496834    -0.000102802152
       6       -0.000461258621     0.000890273932    -0.000084408066
       7       -0.000460295400     0.000673578628    -0.000178811526
       8       -0.000105370633     0.000039791652    -0.000044884992
       9       -0.000008437853     0.000125630472     0.000042284895
      10       -0.000019829567    -0.000073404327     0.000035610621
      11        0.000046717319     0.000036279104     0.000046525001
      12        0.000052605379    -0.000038650066     0.000025297754

  **** Optimization is complete! (in 6 steps) ****
    Final optimized geometry and variables:
    Molecular point group: c1

    Geometry (in Angstrom), charge = 0, multiplicity = 1:

    H           -0.030587147507     1.998874628705     0.717418522805
    O           -0.015336069627     1.875940862901    -0.217760669724
    C           -0.007435783651     0.536497313431    -0.541868702328
    C           -1.284359737532    -0.132181570711    -0.026951268253
    C            1.287441161912    -0.120764043018    -0.063018263036
    H           -0.023108971628     0.461587815508    -1.619182546763
    F           -1.454384044543     0.097143075830     1.257683883292
    F           -2.318791084801     0.368890318005    -0.657595977575
    F           -1.287313215907    -1.427025663174    -0.214351924710
    F            2.312576833695     0.513627029404    -0.575022268441
    F            1.369477181060    -1.375446609556    -0.427858700051
    F            1.396944713941    -0.066181112101     1.247405454027

  Mulliken Charges: (a.u.)
   Center  Symbol    Alpha    Beta     Spin     Total
       1     H     0.38102  0.38102  0.00000  0.23797
       2     O     4.19008  4.19008  0.00000 -0.38015
       3     C     3.00603  3.00603  0.00000 -0.01207
       4     C     2.68426  2.68426  0.00000  0.63148
       5     C     2.68531  2.68531  0.00000  0.62939
       6     H     0.42411  0.42411  0.00000  0.15177
       7     F     4.61061  4.61061  0.00000 -0.22122
       8     F     4.60265  4.60265  0.00000 -0.20529
       9     F     4.60141  4.60141  0.00000 -0.20282
      10     F     4.60158  4.60158  0.00000 -0.20315
      11     F     4.60279  4.60279  0.00000 -0.20557
      12     F     4.61017  4.61017  0.00000 -0.22033

   Total alpha = 41.00000, Total beta = 41.00000, Total charge =  0.00000

*** Psi4 exiting successfully. Buy a developer a beer!
