                              Psi4 1.0.54 Driver

  ==> Input File <==

--------------------------------------------------------------------------
set {
	reference rhf
	basis cc-pvtz
}

set_num_threads( 4 )
memory 2 gb

molecule MOL {
0 1

H	 -2.073370	 -1.185212	 -2.455486
N	 -1.154235	 -1.254942	 -2.074174
C	 -1.196052	 -1.341100	 -0.626082
H	 -0.649009	 -0.440867	 -2.353504
C	 0.202307	 -1.436018	 -0.060192
H	 -1.700274	 -0.497600	 -0.156175
H	 -1.736103	 -2.239221	 -0.347203
O	 0.881195	 -0.248324	 -0.336237
H	 0.155345	 -1.598623	 1.015692
H	 0.722153	 -2.278852	 -0.509991
C	 2.208068	 -0.234417	 0.074171
H	 2.725499	 -1.027054	 -0.446768
H	 2.688377	 0.712084	 -0.164856
H	 2.295137	 -0.403407	 1.144883

	symmetry c1
}
set optking {
	frozen_dihedral = ("
		5 8 11 13
	")
}

ee,wfn = optimize('scf', return_wfn=True)
oeprop( wfn, 'DIPOLE', 'QUADRUPOLE', 'MULLIKEN_CHARGES')
f=open( 'psi4out.xyz', 'w' )
f.write( "14  " )
f.write( str(ee) + "\n" )
f.write( MOL.save_string_xyz() )
f.close()
--------------------------------------------------------------------------

    Molecular point group: c1
  Charge       = 0
  Multiplicity = 1
  Basis Set: CC-PVTZ
  Basis Set:
  @DF-RHF Final Energy:  -248.22522584921850
    Total Energy =                       -248.2252258492185888
    Molecular point group: c1
  Basis Set: CC-PVTZ
  Basis Set:
  Basis Set: CC-PVTZ
  Basis Set:
  @DF-RHF Final Energy:  -248.22598441405179
    Total Energy =                       -248.2259844140518226
  Basis Set: CC-PVTZ
  Basis Set:
  Basis Set: CC-PVTZ
  Basis Set:
  @DF-RHF Final Energy:  -248.22619580287076
    Total Energy =                       -248.2261958028708477
  Basis Set: CC-PVTZ
  Basis Set:
  Charge       = 0
  Multiplicity = 1
  Basis Set: CC-PVTZ
  Basis Set:

    Orbital Energies (a.u.)
    -----------------------

    Doubly Occupied:

       1A    -20.550799     2A    -15.523571     3A    -11.263945
       4A    -11.263640     5A    -11.239916     6A     -1.384756
       7A     -1.176036     8A     -1.000642     9A     -0.907656
      10A     -0.815816    11A     -0.685543    12A     -0.676204
      13A     -0.647415    14A     -0.612257    15A     -0.607636
      16A     -0.542209    17A     -0.530347    18A     -0.497988
      19A     -0.474603    20A     -0.420271    21A     -0.383926

  @DF-RHF Final Energy:  -248.22619639271844

   => Energetics <=

    Nuclear Repulsion Energy =            194.7170812324530687
    One-Electron Energy =                -723.4762039189795360
    Two-Electron Energy =                 280.5329262938080319
    DFT Exchange-Correlation Energy =       0.0000000000000000
    Empirical Dispersion Energy =           0.0000000000000000
    PCM Polarization Energy =               0.0000000000000000
    EFP Energy =                            0.0000000000000000
    Total Energy =                       -248.2261963927184070
    Molecular point group: c1
  Basis Set: CC-PVTZ
  Basis Set:

  -Total Gradient:
     Atom            X                  Y                   Z
    ------   -----------------  -----------------  -----------------
       1       -0.000000114372     0.000005570562    -0.000016754945
       2       -0.000016101845    -0.000006622596    -0.000028626120
       3        0.000068918356     0.000093231449    -0.000016909438
       4       -0.000001668822     0.000005170389    -0.000005187860
       5        0.000047530960    -0.000085954347     0.000095916998
       6       -0.000016480393     0.000006495934     0.000007350923
       7        0.000059170579     0.000007731911     0.000019011355
       8       -0.000025611786     0.000014930758    -0.000039741581
       9        0.000002720608    -0.000003803365     0.000013606224
      10        0.000012137792     0.000028457537    -0.000018217862
      11       -0.000045442125    -0.000056872932     0.000037178271
      12       -0.000029390472    -0.000002506282    -0.000013868408
      13       -0.000036372283    -0.000003564190    -0.000040114244
      14       -0.000019296194    -0.000002264827     0.000006356689

  **** Optimization is complete! (in 4 steps) ****
    Final optimized geometry and variables:
    Molecular point group: c1

    Geometry (in Angstrom), charge = 0, multiplicity = 1:

    H           -2.257323254403    -0.334940317876    -1.853376192583
    N           -1.340039626145    -0.391987093830    -1.465579680047
    C           -1.390163166615    -0.467598670939    -0.017157898207
    H           -0.841808925114     0.425289240825    -1.748047025843
    C            0.005399083531    -0.543781149508     0.558351876353
    H           -1.905933720676     0.374226284537     0.443173654608
    H           -1.922603283195    -1.369053832578     0.265537891853
    O            0.673492151547     0.648468717853     0.276196312504
    H           -0.046369045385    -0.698078775519     1.635264041083
    H            0.536661917200    -1.384662932619     0.118437429060
    C            1.997598522156     0.679273594932     0.694126123296
    H            2.584551154443    -0.099770785236     0.213385065458
    H            2.408671779043     1.641455964634     0.424727418427
    H            2.077409453440     0.554603933686     1.771994411097

  Mulliken Charges: (a.u.)
   Center  Symbol    Alpha    Beta     Spin     Total
       1     H     0.43022  0.43022  0.00000  0.13956
       2     N     3.69418  3.69418  0.00000 -0.38836
       3     C     3.02193  3.02193  0.00000 -0.04385
       4     H     0.42248  0.42248  0.00000  0.15504
       5     C     2.96939  2.96939  0.00000  0.06123
       6     H     0.46454  0.46454  0.00000  0.07092
       7     H     0.45871  0.45871  0.00000  0.08259
       8     O     4.17991  4.17991  0.00000 -0.35982
       9     H     0.46968  0.46968  0.00000  0.06064
      10     H     0.46859  0.46859  0.00000  0.06282
      11     C     3.03188  3.03188  0.00000 -0.06376
      12     H     0.46979  0.46979  0.00000  0.06043
      13     H     0.44757  0.44757  0.00000  0.10485
      14     H     0.47114  0.47114  0.00000  0.05771

   Total alpha = 21.00000, Total beta = 21.00000, Total charge = -0.00000

*** Psi4 exiting successfully. Buy a developer a beer!
