                              Psi4 1.0.54 Driver

  ==> Input File <==

--------------------------------------------------------------------------
set {
	reference rhf
	basis cc-pvtz
}

set_num_threads( 4 )
memory 2 gb

molecule MOL {
0 1

H	 -2.498963	 -0.741158	 -0.729149
O	 -2.346257	 -0.289210	 0.080372
C	 -1.183935	 0.486039	 -0.009831
C	 0.062853	 -0.375310	 0.027457
H	 -1.178881	 1.094526	 -0.908634
H	 -1.184406	 1.155156	 0.838676
O	 -0.083757	 -1.312344	 1.043293
H	 0.940645	 0.248048	 0.205788
H	 0.198048	 -0.861028	 -0.936584
C	 0.980341	 -2.196583	 1.173828
H	 1.906475	 -1.673145	 1.400905
H	 0.753130	 -2.870296	 1.986953
H	 1.127181	 -2.778140	 0.266773

	symmetry c1
}
set optking {
	frozen_dihedral = ("
		8 4 3 5
	")
}

ee,wfn = optimize('scf', return_wfn=True)
oeprop( wfn, 'DIPOLE', 'QUADRUPOLE', 'MULLIKEN_CHARGES')
f=open( 'psi4out.xyz', 'w' )
f.write( "13  " )
f.write( str(ee) + "\n" )
f.write( MOL.save_string_xyz() )
f.close()
--------------------------------------------------------------------------

    Molecular point group: c1
  Charge       = 0
  Multiplicity = 1
  Basis Set: CC-PVTZ
  Basis Set:
  @DF-RHF Final Energy:  -268.05727892668307
    Total Energy =                       -268.0572789266830114
    Molecular point group: c1
  Basis Set: CC-PVTZ
  Basis Set:
  Basis Set: CC-PVTZ
  Basis Set:
  @DF-RHF Final Energy:  -268.05797226566500
    Total Energy =                       -268.0579722656649437
  Basis Set: CC-PVTZ
  Basis Set:
  Basis Set: CC-PVTZ
  Basis Set:
  @DF-RHF Final Energy:  -268.05846488582142
    Total Energy =                       -268.0584648858211949
  Basis Set: CC-PVTZ
  Basis Set:
  Basis Set: CC-PVTZ
  Basis Set:
  @DF-RHF Final Energy:  -268.05855928440747
    Total Energy =                       -268.0585592844074654
  Basis Set: CC-PVTZ
  Basis Set:
  @DF-RHF Final Energy:  -268.05865537961483
    Total Energy =                       -268.0586553796149474
  @DF-RHF Final Energy:  -268.05875890769346
    Total Energy =                       -268.0587589076934023
  @DF-RHF Final Energy:  -268.05877947818203
    Total Energy =                       -268.0587794781818616
  @DF-RHF Final Energy:  -268.05880062855431
    Total Energy =                       -268.0588006285543088
  @DF-RHF Final Energy:  -268.05887173393842
    Total Energy =                       -268.0588717339382470
  @DF-RHF Final Energy:  -268.05893512471971
    Total Energy =                       -268.0589351247197101
  @DF-RHF Final Energy:  -268.05898548564932
    Total Energy =                       -268.0589854856493730
  @DF-RHF Final Energy:  -268.05903415364833
    Total Energy =                       -268.0590341536484971
  @DF-RHF Final Energy:  -268.05903264207359
    Total Energy =                       -268.0590326420734755
  @DF-RHF Final Energy:  -268.05868888809107
    Total Energy =                       -268.0586888880909555
  @DF-RHF Final Energy:  -268.05916820400853
    Total Energy =                       -268.0591682040086994
  @DF-RHF Final Energy:  -268.05943261398147
    Total Energy =                       -268.0594326139815848
  @DF-RHF Final Energy:  -268.06092780924314
    Total Energy =                       -268.0609278092428553
  @DF-RHF Final Energy:  -268.06256267792929
    Total Energy =                       -268.0625626779295203
  @DF-RHF Final Energy:  -268.06288742273881
    Total Energy =                       -268.0628874227390384
  @DF-RHF Final Energy:  -268.06303901228364
    Total Energy =                       -268.0630390122835820
  @DF-RHF Final Energy:  -268.06315054568199
    Total Energy =                       -268.0631505456818218
  @DF-RHF Final Energy:  -268.06329601412921
    Total Energy =                       -268.0632960141291505
  @DF-RHF Final Energy:  -268.00678607255213
    Total Energy =                       -268.0067860725521882
  @DF-RHF Final Energy:  -268.05923294922701
    Total Energy =                       -268.0592329492271233
  @DF-RHF Final Energy:  -268.06393615740035
    Total Energy =                       -268.0639361574002919
  @DF-RHF Final Energy:  -268.06425439092993
    Total Energy =                       -268.0642543909299889
  @DF-RHF Final Energy:  -268.06459460948849
    Total Energy =                       -268.0645946094886085
  @DF-RHF Final Energy:  -268.06483741003842
    Total Energy =                       -268.0648374100384785
  Basis Set: CC-PVTZ
  Basis Set:
  @DF-RHF Final Energy:  -268.06488801050182
    Total Energy =                       -268.0648880105019316
  Basis Set: CC-PVTZ
  Basis Set:
  Basis Set: CC-PVTZ
  Basis Set:
  @DF-RHF Final Energy:  -268.06490714531333
    Total Energy =                       -268.0649071453131569
  Basis Set: CC-PVTZ
  Basis Set:
  Basis Set: CC-PVTZ
  Basis Set:
  @DF-RHF Final Energy:  -268.06491128715493
    Total Energy =                       -268.0649112871549278
  Basis Set: CC-PVTZ
  Basis Set:
  Charge       = 0
  Multiplicity = 1
  Basis Set: CC-PVTZ
  Basis Set:

    Orbital Energies (a.u.)
    -----------------------

    Doubly Occupied:

       1A    -20.561624     2A    -20.540456     3A    -11.273000
       4A    -11.271900     5A    -11.266928     6A     -1.398645
       7A     -1.357203     8A     -1.021027     9A     -0.922820
      10A     -0.836549    11A     -0.705338    12A     -0.684441
      13A     -0.667220    14A     -0.636453    15A     -0.585040
      16A     -0.583229    17A     -0.545585    18A     -0.494456
      19A     -0.484995    20A     -0.437826    21A     -0.429513

  @DF-RHF Final Energy:  -268.06491178789810

   => Energetics <=

    Nuclear Repulsion Energy =            195.0810956075306990
    One-Electron Energy =                -752.8835191284408666
    Two-Electron Energy =                 289.7375117330120133
    DFT Exchange-Correlation Energy =       0.0000000000000000
    Empirical Dispersion Energy =           0.0000000000000000
    PCM Polarization Energy =               0.0000000000000000
    EFP Energy =                            0.0000000000000000
    Total Energy =                       -268.0649117878982111
    Molecular point group: c1
  Basis Set: CC-PVTZ
  Basis Set:

  -Total Gradient:
     Atom            X                  Y                   Z
    ------   -----------------  -----------------  -----------------
       1       -0.000023533540    -0.000029611413     0.000028268650
       2       -0.000003964340     0.000013426492    -0.000032161660
       3        0.002107327868     0.002659137160     0.003088193524
       4        0.000874964792    -0.000508164003    -0.004395673017
       5       -0.001895539822    -0.002144136545    -0.001873288803
       6       -0.000005463620     0.000010926510     0.000012345382
       7        0.000005616816     0.000023781621    -0.000026692677
       8       -0.001067144443    -0.000013068218     0.003215909555
       9        0.000004531851    -0.000007892301    -0.000010242026
      10        0.000008940425    -0.000006578843    -0.000001686216
      11       -0.000002131957     0.000006542999    -0.000000111812
      12       -0.000004641895     0.000004317569    -0.000001281931
      13        0.000001037863    -0.000008681027    -0.000003578974

  **** Optimization is complete! (in 32 steps) ****
    Final optimized geometry and variables:
    Molecular point group: c1

    Geometry (in Angstrom), charge = 0, multiplicity = 1:

    H           -1.763833656462     0.249939447899    -0.195353505627
    O           -1.513236194675     0.830767155617    -0.892406170253
    C           -0.227155891653     1.307313484003    -0.630970861910
    C            0.734895967405     0.181558699119    -0.313392274713
    H            0.097504279880     1.811063028284    -1.532052981511
    H           -0.237226213716     2.022102621840     0.187018460084
    O            0.180378264486    -0.574907685553     0.721556078463
    H            1.689373080119     0.594180895376     0.009335728099
    H            0.894646555386    -0.441663701341    -1.189924701943
    C            0.928856378176    -1.685094276204     1.096719824189
    H            1.913328054941    -1.395777977305     1.456443077358
    H            0.400785830796    -2.186910985228     1.894265277834
    H            1.053536787793    -2.377225945792     0.267698607609

  Mulliken Charges: (a.u.)
   Center  Symbol    Alpha    Beta     Spin     Total
       1     H     0.38508  0.38508  0.00000  0.22985
       2     O     4.20937  4.20937  0.00000 -0.41874
       3     C     2.96019  2.96019  0.00000  0.07962
       4     C     2.97511  2.97511  0.00000  0.04979
       5     H     0.46001  0.46001  0.00000  0.07998
       6     H     0.47044  0.47044  0.00000  0.05913
       7     O     4.18536  4.18536  0.00000 -0.37071
       8     H     0.47105  0.47105  0.00000  0.05790
       9     H     0.46909  0.46909  0.00000  0.06182
      10     C     3.02984  3.02984  0.00000 -0.05967
      11     H     0.46924  0.46924  0.00000  0.06152
      12     H     0.44647  0.44647  0.00000  0.10706
      13     H     0.46877  0.46877  0.00000  0.06246

   Total alpha = 21.00000, Total beta = 21.00000, Total charge = -0.00000

*** Psi4 exiting successfully. Buy a developer a beer!
