  ==> Input File <==

--------------------------------------------------------------------------
set {
	reference rhf
	basis 6-31G*
}

set_num_threads( 1 )
memory 2 gb

molecule MOL {
0 1

H	 -3.261111	 -0.295142	 1.469456
C	 -3.306842	 -0.277400	 0.373456
C	 -2.660244	 0.921717	 -0.272021
O	 -3.838538	 -1.161155	 -0.216482
C	 -1.321180	 0.579989	 -0.940142
H	 -3.361257	 1.348846	 -0.979730
H	 -2.490852	 1.655940	 0.514667
C	 -1.462268	 -0.343207	 -2.153032
H	 -0.842920	 1.505965	 -1.245296
H	 -0.657587	 0.124086	 -0.206961
C	 -0.121457	 -0.665957	 -2.815508
H	 -2.123764	 0.123142	 -2.880211
H	 -1.947956	 -1.270871	 -1.856239
C	 -0.267852	 -1.576366	 -4.037667
H	 0.363501	 0.264336	 -3.100292
H	 0.534191	 -1.143421	 -2.088501
C	 1.056867	 -1.994334	 -4.686122
H	 -0.891529	 -1.083091	 -4.781576
H	 -0.804713	 -2.474633	 -3.739994
C	 1.842198	 -0.847140	 -5.323946
H	 0.845010	 -2.737993	 -5.450345
H	 1.679830	 -2.490874	 -3.944983
H	 1.237758	 -0.321572	 -6.058588
H	 2.172811	 -0.122118	 -4.587731
H	 2.726350	 -1.221195	 -5.831245

	symmetry c1
}
set optking {
	frozen_dihedral = ("
		6 3 5 8,
		3 5 8 12,
		12 8 11 14,
		8 11 14 18,
		20 17 14 18
	")
}

ee = energy('scf')
oeprop('DIPOLE', 'QUADRUPOLE', 'MULLIKEN_CHARGES')
f=open( 'psi4out.xyz', 'w' )
f.write( "25  " )
f.write( str(ee) + "\n" )
f.write( MOL.save_string_xyz() )
f.close()
--------------------------------------------------------------------------

    Molecular point group: c1

    Geometry (in Angstrom), charge = 0, multiplicity = 1:

       Center              X                  Y                   Z               Mass
    ------------   -----------------  -----------------  -----------------  -----------------
           H         -2.143706089328     0.307473996497     3.708294698145     1.007825032070
           C         -2.189437089328     0.325215996497     2.612294698145    12.000000000000
           C         -1.542839089328     1.524332996497     1.966817698145    12.000000000000
           O         -2.721133089328    -0.558539003503     2.022356698145    15.994914619560
           C         -0.203775089328     1.182604996497     1.298696698145    12.000000000000
           H         -2.243852089328     1.951461996497     1.259108698145     1.007825032070
           H         -1.373447089328     2.258555996497     2.753505698145     1.007825032070
           C         -0.344863089328     0.259408996497     0.085806698145    12.000000000000
           H          0.274484910672     2.108580996497     0.993542698145     1.007825032070
           H          0.459817910672     0.726701996497     2.031877698145     1.007825032070
           C          0.995947910672    -0.063341003503    -0.576669301855    12.000000000000
           H         -1.006359089328     0.725757996497    -0.641372301855     1.007825032070
           H         -0.830551089328    -0.668255003503     0.382599698145     1.007825032070
           C          0.849552910672    -0.973750003503    -1.798828301855    12.000000000000
           H          1.480905910672     0.866951996497    -0.861453301855     1.007825032070
           H          1.651595910672    -0.540805003503     0.150337698145     1.007825032070
           C          2.174271910672    -1.391718003503    -2.447283301855    12.000000000000
           H          0.225875910672    -0.480475003503    -2.542737301855     1.007825032070
           H          0.312691910672    -1.872017003503    -1.501155301855     1.007825032070
           C          2.959602910672    -0.244524003503    -3.085107301855    12.000000000000
           H          1.962414910672    -2.135377003503    -3.211506301855     1.007825032070
           H          2.797234910672    -1.888258003503    -1.706144301855     1.007825032070
           H          2.355162910672     0.281043996497    -3.819749301855     1.007825032070
           H          3.290215910672     0.480497996497    -2.348892301855     1.007825032070
           H          3.843754910672    -0.618579003503    -3.592406301855     1.007825032070

  Charge       = 0
  Multiplicity = 1
  Basis Set: 6-31G*
  Basis Set:

    Orbital Energies (a.u.)
    -----------------------

    Doubly Occupied:

       1A    -20.563880     2A    -11.327413     3A    -11.235088
       4A    -11.232725     5A    -11.213740     6A    -11.213190
       7A    -11.212531     8A    -11.211509     9A    -11.207232
      10A     -1.404509    11A     -1.097551    12A     -1.065450
      13A     -1.009701    14A     -0.940540    15A     -0.874156
      16A     -0.813651    17A     -0.781756    18A     -0.774024
      19A     -0.677314    20A     -0.660378    21A     -0.629447
      22A     -0.615078    23A     -0.592188    24A     -0.590370
      25A     -0.573407    26A     -0.550696    27A     -0.537199
      28A     -0.515257    29A     -0.505865    30A     -0.494296
      31A     -0.486879    32A     -0.472828    33A     -0.458972
      34A     -0.453474    35A     -0.436731    36A     -0.406599

  @DF-RHF Final Energy:  -387.11923726916240

   => Energetics <=

    Nuclear Repulsion Energy =            443.9044501397324325
    One-Electron Energy =               -1404.3762219662467032
    Two-Electron Energy =                 573.3525345573489176
    DFT Exchange-Correlation Energy =       0.0000000000000000
    Empirical Dispersion Energy =           0.0000000000000000
    PCM Polarization Energy =               0.0000000000000000
    EFP Energy =                            0.0000000000000000
    Total Energy =                       -387.1192372691652963

  Mulliken Charges: (a.u.)
   Center  Symbol    Alpha    Beta     Spin     Total
       1     H     0.42828  0.42828  0.00000  0.14343
       2     C     2.84368  2.84368  0.00000  0.31265
       3     C     3.20126  3.20126  0.00000 -0.40252
       4     O     4.23471  4.23471  0.00000 -0.46942
       5     C     3.16170  3.16170  0.00000 -0.32340
       6     H     0.39973  0.39973  0.00000  0.20054
       7     H     0.41555  0.41555  0.00000  0.16890
       8     C     3.15640  3.15640  0.00000 -0.31279
       9     H     0.41427  0.41427  0.00000  0.17147
      10     H     0.41893  0.41893  0.00000  0.16214
      11     C     3.15460  3.15460  0.00000 -0.30920
      12     H     0.42218  0.42218  0.00000  0.15563
      13     H     0.40361  0.40361  0.00000  0.19277
      14     C     3.15274  3.15274  0.00000 -0.30548
      15     H     0.42355  0.42355  0.00000  0.15290
      16     H     0.42486  0.42486  0.00000  0.15027
      17     C     3.15247  3.15247  0.00000 -0.30493
      18     H     0.42389  0.42389  0.00000  0.15221
      19     H     0.41967  0.41967  0.00000  0.16066
      20     C     3.24099  3.24099  0.00000 -0.48199
      21     H     0.42070  0.42070  0.00000  0.15859
      22     H     0.42356  0.42356  0.00000  0.15288
      23     H     0.42241  0.42241  0.00000  0.15518
      24     H     0.42075  0.42075  0.00000  0.15850
      25     H     0.41949  0.41949  0.00000  0.16101

   Total alpha = 36.00000, Total beta = 36.00000, Total charge = -0.00000
