                              Psi4 1.0.54 Driver

  ==> Input File <==

--------------------------------------------------------------------------
set {
	reference rhf
	basis cc-pvtz
}

set_num_threads( 4 )
memory 2 gb

molecule MOL {
0 1

H	 -4.234298	 0.514878	 0.080133
O	 -3.519076	 -0.043113	 -0.163382
C	 -2.302264	 0.528872	 0.237390
C	 -1.175688	 -0.398187	 -0.171891
H	 -2.168016	 1.503123	 -0.227997
H	 -2.287590	 0.676140	 1.315317
C	 0.196029	 0.106276	 0.266738
H	 -1.201873	 -0.515469	 -1.250677
H	 -1.365975	 -1.378728	 0.252664
C	 1.330220	 -0.826136	 -0.155230
H	 0.359542	 1.097229	 -0.145561
H	 0.212134	 0.218135	 1.348778
C	 2.719700	 -0.407669	 0.328325
H	 1.339388	 -0.911200	 -1.239363
H	 1.119001	 -1.821953	 0.224128
C	 3.241564	 0.893452	 -0.276737
H	 3.418299	 -1.204729	 0.093035
H	 2.711776	 -0.323368	 1.411960
H	 3.254204	 0.841071	 -1.360784
H	 2.634460	 1.745075	 0.005842
H	 4.254264	 1.092401	 0.054971

	symmetry c1
}
set optking {
	frozen_dihedral = ("
		2 3 4 8
	")
}

ee,wfn = optimize('scf', return_wfn=True)
oeprop( wfn, 'DIPOLE', 'QUADRUPOLE', 'MULLIKEN_CHARGES')
f=open( 'psi4out.xyz', 'w' )
f.write( "21  " )
f.write( str(ee) + "\n" )
f.write( MOL.save_string_xyz() )
f.close()
--------------------------------------------------------------------------

    Molecular point group: c1
  Charge       = 0
  Multiplicity = 1
  Basis Set: CC-PVTZ
  Basis Set:
  @DF-RHF Final Energy:  -310.33304030843465
    Total Energy =                       -310.3330403084347608
    Molecular point group: c1
  Basis Set: CC-PVTZ
  Basis Set:
  Basis Set: CC-PVTZ
  Basis Set:
  @DF-RHF Final Energy:  -310.33304222071558
    Total Energy =                       -310.3330422207157540
  Basis Set: CC-PVTZ
  Basis Set:
  Charge       = 0
  Multiplicity = 1
  Basis Set: CC-PVTZ
  Basis Set:

    Orbital Energies (a.u.)
    -----------------------

    Doubly Occupied:

       1A    -20.545363     2A    -11.264977     3A    -11.213146
       4A    -11.213052     5A    -11.211268     6A    -11.208972
       7A    -11.206100     8A     -1.363202     9A     -1.087483
      10A     -1.034471    11A     -0.955495    12A     -0.876472
      13A     -0.807607    14A     -0.779201    15A     -0.696237
      16A     -0.662839    17A     -0.623478    18A     -0.607911
      19A     -0.588453    20A     -0.571549    21A     -0.537355
      22A     -0.520877    23A     -0.511958    24A     -0.487370
      25A     -0.480336    26A     -0.460809    27A     -0.456161
      28A     -0.444248    29A     -0.437364

  @DF-RHF Final Energy:  -310.33304211194809

   => Energetics <=

    Nuclear Repulsion Energy =            312.9629261948812200
    One-Electron Energy =               -1040.8844216359784696
    Two-Electron Energy =                 417.5884533291493881
    DFT Exchange-Correlation Energy =       0.0000000000000000
    Empirical Dispersion Energy =           0.0000000000000000
    PCM Polarization Energy =               0.0000000000000000
    EFP Energy =                            0.0000000000000000
    Total Energy =                       -310.3330421119478615
    Molecular point group: c1
  Basis Set: CC-PVTZ
  Basis Set:

  -Total Gradient:
     Atom            X                  Y                   Z
    ------   -----------------  -----------------  -----------------
       1       -0.000004922198    -0.000003173376     0.000001450969
       2       -0.000031849946    -0.000170546443     0.000332680113
       3        0.000109203223     0.000321005484    -0.000451110817
       4       -0.000348890045    -0.000536778504     0.000219653852
       5        0.000025773968     0.000018328123     0.000021734926
       6       -0.000034356435    -0.000019668058    -0.000003617919
       7       -0.000007980667     0.000000488567    -0.000075917103
       8        0.000343959202     0.000377057378    -0.000079387925
       9       -0.000017656491     0.000014756203     0.000044605493
      10       -0.000006956300    -0.000019073282     0.000025473567
      11        0.000046908663     0.000057156223     0.000003955611
      12       -0.000024374907    -0.000028290253    -0.000030520827
      13        0.000022900537    -0.000019581630    -0.000044734189
      14        0.000009286430    -0.000015558228     0.000012105625
      15       -0.000022854981     0.000011851566     0.000016494369
      16       -0.000026212414    -0.000004212408     0.000012076182
      17        0.000007366441     0.000016092178    -0.000016431748
      18        0.000004644375    -0.000016335008    -0.000008382743
      19        0.000003483729    -0.000010522965     0.000016341952
      20       -0.000043664573     0.000016635619    -0.000006207873
      21       -0.000003807611     0.000010368815     0.000009738484

  **** Optimization is complete! (in 3 steps) ****
    Final optimized geometry and variables:
    Molecular point group: c1

    Geometry (in Angstrom), charge = 0, multiplicity = 1:

    H           -4.230480623350     0.533554736080     0.058090474923
    O           -3.517730156619    -0.032674353789    -0.173192950869
    C           -2.299157051961     0.536990861952     0.225552027274
    C           -1.175481758789    -0.397573775229    -0.174697855204
    H           -2.159417898011     1.507998205620    -0.244832097802
    H           -2.286590607636     0.690158028071     1.302723173078
    C            0.197367453543     0.108437691819     0.258659407242
    H           -1.198985882426    -0.523530900193    -1.252613482499
    H           -1.368582991259    -1.372919126042     0.259982828508
    C            1.330344233984    -0.825648293459    -0.162461343708
    H            0.360316596550     1.097925386050    -0.157579840242
    H            0.215753647570     0.224049033593     1.340143902955
    C            2.720062658463    -0.408489209128     0.321340126110
    H            1.339851642581    -0.911151158632    -1.246520317572
    H            1.117581266993    -1.820971837829     0.217320514013
    C            3.239114621757     0.896847830011    -0.276803612401
    H            3.419361131452    -1.203157475493     0.080239625254
    H            2.713690022315    -0.330502357477     1.405421730358
    H            3.250941515112     0.850478325752    -1.361105212854
    H            2.630619888457     1.745711033399     0.011003173013
    H            4.251697375580     1.095809774537     0.055208926386

  Mulliken Charges: (a.u.)
   Center  Symbol    Alpha    Beta     Spin     Total
       1     H     0.39760  0.39760  0.00000  0.20480
       2     O     4.19428  4.19428  0.00000 -0.38857
       3     C     2.96329  2.96329  0.00000  0.07342
       4     C     3.08368  3.08368  0.00000 -0.16735
       5     H     0.47464  0.47464  0.00000  0.05072
       6     H     0.47528  0.47528  0.00000  0.04944
       7     C     3.10334  3.10334  0.00000 -0.20668
       8     H     0.45136  0.45136  0.00000  0.09728
       9     H     0.45015  0.45015  0.00000  0.09970
      10     C     3.09427  3.09427  0.00000 -0.18855
      11     H     0.45376  0.45376  0.00000  0.09247
      12     H     0.45535  0.45535  0.00000  0.08930
      13     C     3.08984  3.08984  0.00000 -0.17968
      14     H     0.45316  0.45316  0.00000  0.09369
      15     H     0.44881  0.44881  0.00000  0.10239
      16     C     3.15247  3.15247  0.00000 -0.30493
      17     H     0.44844  0.44844  0.00000  0.10311
      18     H     0.45495  0.45495  0.00000  0.09010
      19     H     0.45464  0.45464  0.00000  0.09072
      20     H     0.45424  0.45424  0.00000  0.09153
      21     H     0.44645  0.44645  0.00000  0.10710

   Total alpha = 29.00000, Total beta = 29.00000, Total charge = -0.00000

*** Psi4 exiting successfully. Buy a developer a beer!
