  ==> Input File <==

--------------------------------------------------------------------------
set {
	reference rhf
	basis 6-31G*
}

set_num_threads( 4 )
memory 2 gb

molecule MOL {
0 1

H	 -2.088871	 1.519506	 -1.151358
C	 -1.294768	 2.108317	 -0.708586
C	 0.030121	 1.356019	 -0.747003
H	 -1.584232	 2.333427	 0.310639
H	 -1.214654	 3.041731	 -1.255940
C	 -0.000005	 0.033229	 -0.000001
H	 0.829899	 1.961147	 -0.324425
H	 0.329748	 1.154401	 -1.773633
C	 1.290528	 -0.768786	 0.000276
O	 -0.982183	 -0.354014	 0.555475
C	 2.545731	 0.095645	 -0.000061
H	 1.275672	 -1.427874	 -0.865626
H	 1.275566	 -1.427086	 0.866768
H	 2.577157	 0.734767	 -0.874036
H	 3.433520	 -0.528139	 0.000137
H	 2.577172	 0.735117	 0.873581

	symmetry c1
}
set optking {
	frozen_dihedral = ("
		3 6 9 12
	")
}

ee = optimize('scf')
oeprop('DIPOLE', 'QUADRUPOLE', 'MULLIKEN_CHARGES')
f=open( 'psi4out.xyz', 'w' )
f.write( "16  " )
f.write( str(ee) + "\n" )
f.write( MOL.save_string_xyz() )
f.close()
--------------------------------------------------------------------------

    Molecular point group: c1
  Charge       = 0
  Multiplicity = 1
  Basis Set: 6-31G*
  Basis Set:
  @DF-RHF Final Energy:  -270.02813376332733
    Total Energy =                       -270.0281337633272187
    Molecular point group: c1
  Basis Set: 6-31G*
  Basis Set:
  Basis Set: 6-31G*
  Basis Set:
  @DF-RHF Final Energy:  -270.02894952380569
    Total Energy =                       -270.0289495238057498
  Basis Set: 6-31G*
  Basis Set:
  Basis Set: 6-31G*
  Basis Set:
  @DF-RHF Final Energy:  -270.02979703500580
    Total Energy =                       -270.0297970350059131
  Basis Set: 6-31G*
  Basis Set:
  Basis Set: 6-31G*
  Basis Set:
  @DF-RHF Final Energy:  -270.02973857381483
    Total Energy =                       -270.0297385738147682
  Basis Set: 6-31G*
  Basis Set:
  Basis Set: 6-31G*
  Basis Set:
  @DF-RHF Final Energy:  -270.02977008197229
    Total Energy =                       -270.0297700819723445
  Basis Set: 6-31G*
  Basis Set:
  Basis Set: 6-31G*
  Basis Set:
  @DF-RHF Final Energy:  -270.02991634093007
    Total Energy =                       -270.0299163409302423
  Basis Set: 6-31G*
  Basis Set:
  Charge       = 0
  Multiplicity = 1
  Basis Set: 6-31G*
  Basis Set:

    Orbital Energies (a.u.)
    -----------------------

    Doubly Occupied:

       1A    -20.547740     2A    -11.323458     3A    -11.233669
       4A    -11.233239     5A    -11.228648     6A    -11.212874
       7A     -1.393948     8A     -1.072721     9A     -1.034973
      10A     -0.907869    11A     -0.865952    12A     -0.722612
      13A     -0.658054    14A     -0.642754    15A     -0.630747
      16A     -0.608886    17A     -0.554441    18A     -0.542945
      19A     -0.534808    20A     -0.510353    21A     -0.506520
      22A     -0.498849    23A     -0.475338    24A     -0.396450

  @DF-RHF Final Energy:  -270.02991687646568

   => Energetics <=

    Nuclear Repulsion Energy =            240.4900141423147488
    One-Electron Energy =                -842.3641702000679743
    Two-Electron Energy =                 331.8442391812876622
    DFT Exchange-Correlation Energy =       0.0000000000000000
    Empirical Dispersion Energy =           0.0000000000000000
    PCM Polarization Energy =               0.0000000000000000
    EFP Energy =                            0.0000000000000000
    Total Energy =                       -270.0299168764655633
    Molecular point group: c1
  Basis Set: 6-31G*
  Basis Set:

  -Total Gradient:
     Atom            X                  Y                   Z
    ------   -----------------  -----------------  -----------------
       1       -0.000017470000    -0.000004862892    -0.000011972680
       2       -0.000001282444     0.000018533632     0.000039183295
       3        0.000324113081     0.000432680871     0.000765085714
       4        0.000013302134    -0.000005945405    -0.000012491588
       5       -0.000000091321    -0.000010837352    -0.000009357345
       6       -0.000597661537    -0.000873188460    -0.001089503544
       7        0.000019470910    -0.000003864918     0.000034644632
       8       -0.000009266058     0.000034810303     0.000012873988
       9        0.000853458433     0.001317892884    -0.000439102790
      10        0.000012753346    -0.000012028931     0.000004373897
      11       -0.000006502832     0.000006482091    -0.000021367156
      12       -0.000588366573    -0.000905982540     0.000730062311
      13       -0.000010737218     0.000006744508    -0.000006904205
      14        0.000015711530     0.000003755155    -0.000003012588
      15       -0.000005373295    -0.000001070258     0.000003466256
      16       -0.000002058152    -0.000003118685     0.000004021804

  **** Optimization is complete! (in 7 steps) ****
    Final optimized geometry and variables:
    Molecular point group: c1

    Geometry (in Angstrom), charge = 0, multiplicity = 1:

    H           -2.354801167920     1.008735365278    -1.105582394237
    C           -1.634049729538     1.643989906442    -0.604721452549
    C           -0.259193231717     0.987395348616    -0.565106859154
    H           -2.003153019845     1.830728045958     0.395849326330
    H           -1.584908538178     2.589418672331    -1.134962599241
    C           -0.248672500828    -0.340808252673     0.170556160027
    H            0.462625514312     1.643041762551    -0.083114843395
    H            0.122133358703     0.824953819989    -1.571500843005
    C            1.023022061680    -1.177976795221     0.145162043926
    O           -1.216567565493    -0.744804753963     0.740500384414
    C            2.349770851467    -0.417499634656     0.110400359028
    H            0.945316993418    -1.828575651795    -0.724778952049
    H            0.977770048544    -1.827933727503     1.010823075081
    H            2.458354063931     0.179053290726    -0.788516693663
    H            3.176991812288    -1.118126034760     0.138685586364
    H            2.451634100005     0.242852959321     0.966044437701

  Mulliken Charges: (a.u.)
   Center  Symbol    Alpha    Beta     Spin     Total
       1     H     0.41193  0.41193  0.00000  0.17613
       2     C     3.23419  3.23419  0.00000 -0.46837
       3     C     3.21126  3.21126  0.00000 -0.42253
       4     H     0.40898  0.40898  0.00000  0.18204
       5     H     0.42049  0.42049  0.00000  0.15901
       6     C     2.73297  2.73297  0.00000  0.53406
       7     H     0.40578  0.40578  0.00000  0.18845
       8     H     0.41029  0.41029  0.00000  0.17942
       9     C     3.20214  3.20214  0.00000 -0.40429
      10     O     4.26543  4.26543  0.00000 -0.53085
      11     C     3.25038  3.25038  0.00000 -0.50077
      12     H     0.40527  0.40527  0.00000  0.18945
      13     H     0.39813  0.39813  0.00000  0.20374
      14     H     0.41655  0.41655  0.00000  0.16689
      15     H     0.41101  0.41101  0.00000  0.17799
      16     H     0.41519  0.41519  0.00000  0.16962

   Total alpha = 24.00000, Total beta = 24.00000, Total charge =  0.00000
