                              Psi4 1.0.54 Driver

  ==> Input File <==

--------------------------------------------------------------------------
set {
	reference rhf
	basis cc-pvtz
}

set_num_threads( 4 )
memory 2 gb

molecule MOL {
0 1

H	 -2.362939	 -1.309000	 -0.383250
C	 -1.359344	 -1.272457	 0.020748
C	 -0.684082	 0.000127	 -0.464918
H	 -0.825835	 -2.151141	 -0.318537
H	 -1.416276	 -1.292399	 1.099455
C	 -1.359089	 1.272668	 0.021259
N	 0.742439	 -0.000109	 0.007333
H	 -0.596914	 0.000345	 -1.538146
H	 -2.362696	 1.309620	 -0.382686
H	 -0.825392	 2.151374	 -0.317674
H	 -1.415983	 1.292181	 1.099973
O	 0.933468	 0.182364	 1.162260
O	 1.587110	 -0.182920	 -0.804702

	symmetry c1
}
set optking {
	frozen_dihedral = ("
		12 7 3 8
	")
}

ee,wfn = optimize('scf', return_wfn=True)
oeprop( wfn, 'DIPOLE', 'QUADRUPOLE', 'MULLIKEN_CHARGES')
f=open( 'psi4out.xyz', 'w' )
f.write( "13  " )
f.write( str(ee) + "\n" )
f.write( MOL.save_string_xyz() )
f.close()
--------------------------------------------------------------------------

    Molecular point group: c1
  Charge       = 0
  Multiplicity = 1
  Basis Set: CC-PVTZ
  Basis Set:
  @DF-RHF Final Energy:  -321.86450009133785
    Total Energy =                       -321.8645000913378453
    Molecular point group: c1
  Basis Set: CC-PVTZ
  Basis Set:
  Basis Set: CC-PVTZ
  Basis Set:
  @DF-RHF Final Energy:  -321.86262313714792
    Total Energy =                       -321.8626231371478070
  Basis Set: CC-PVTZ
  Basis Set:
  Basis Set: CC-PVTZ
  Basis Set:
  @DF-RHF Final Energy:  -321.86440738034196
    Total Energy =                       -321.8644073803418451
  Basis Set: CC-PVTZ
  Basis Set:
  Basis Set: CC-PVTZ
  Basis Set:
  @DF-RHF Final Energy:  -321.86457194264517
    Total Energy =                       -321.8645719426455116
  Basis Set: CC-PVTZ
  Basis Set:
  Basis Set: CC-PVTZ
  Basis Set:
  @DF-RHF Final Energy:  -321.86457418110177
    Total Energy =                       -321.8645741811020571
  Basis Set: CC-PVTZ
  Basis Set:
  Charge       = 0
  Multiplicity = 1
  Basis Set: CC-PVTZ
  Basis Set:

    Orbital Energies (a.u.)
    -----------------------

    Doubly Occupied:

       1A    -20.590195     2A    -20.587886     3A    -15.832582
       4A    -11.304216     5A    -11.244555     6A    -11.241707
       7A     -1.633911     8A     -1.418155     9A     -1.142630
      10A     -0.974229    11A     -0.957236    12A     -0.816616
      13A     -0.751801    14A     -0.732916    15A     -0.726573
      16A     -0.650475    17A     -0.595197    18A     -0.588592
      19A     -0.570930    20A     -0.529895    21A     -0.522762
      22A     -0.485590    23A     -0.469701    24A     -0.452259

  @DF-RHF Final Energy:  -321.86457463316157

   => Energetics <=

    Nuclear Repulsion Energy =            257.3336926286744415
    One-Electron Energy =                -948.7553164612720593
    Two-Electron Energy =                 369.5570491994360509
    DFT Exchange-Correlation Energy =       0.0000000000000000
    Empirical Dispersion Energy =           0.0000000000000000
    PCM Polarization Energy =               0.0000000000000000
    EFP Energy =                            0.0000000000000000
    Total Energy =                       -321.8645746331615101
    Molecular point group: c1
  Basis Set: CC-PVTZ
  Basis Set:

  -Total Gradient:
     Atom            X                  Y                   Z
    ------   -----------------  -----------------  -----------------
       1       -0.000009127667    -0.000016359637     0.000008676402
       2       -0.000011616910     0.000015494600    -0.000025804400
       3       -0.000009390464    -0.000283600289    -0.000008662857
       4       -0.000002095414    -0.000004146855     0.000003570698
       5       -0.000002067815     0.000004754975    -0.000003250555
       6       -0.000005185628     0.000010417332     0.000001646540
       7       -0.000065582718    -0.000323900386     0.000116212429
       8       -0.000011591194     0.000323546627     0.000003085241
       9        0.000007253132    -0.000007549306    -0.000001477727
      10        0.000003294168     0.000002388441    -0.000001610821
      11        0.000002016717    -0.000003779747     0.000000315871
      12        0.000066430545     0.000280856156    -0.000166099401
      13        0.000037663247     0.000001878089     0.000073398578

  **** Optimization is complete! (in 6 steps) ****
    Final optimized geometry and variables:
    Molecular point group: c1

    Geometry (in Angstrom), charge = 0, multiplicity = 1:

    H           -2.366569503631    -1.289152652865    -0.373576688800
    C           -1.359827276293    -1.254606980942     0.022185849771
    C           -0.682998124125     0.017985477268    -0.465973702349
    H           -0.829747465560    -2.133474652611    -0.321153456687
    H           -1.410123291645    -1.273190657283     1.101932062806
    C           -1.359304938320     1.290549484141     0.013177036618
    N            0.742743362791    -0.004843202959     0.009041458681
    H           -0.593440693067     0.011508812128    -1.539096948784
    H           -2.357152312650     1.329011112988    -0.405201978250
    H           -0.819829091268     2.168713739146    -0.317757447999
    H           -1.430623119290     1.311984043477     1.090481962482
    O            0.939930037259     0.179470366832     1.163507315587
    O            1.580189895444    -0.223590454681    -0.800199636289

  Mulliken Charges: (a.u.)
   Center  Symbol    Alpha    Beta     Spin     Total
       1     H     0.44866  0.44866  0.00000  0.10268
       2     C     3.14361  3.14361  0.00000 -0.28721
       3     C     3.00762  3.00762  0.00000 -0.01524
       4     H     0.43964  0.43964  0.00000  0.12072
       5     H     0.43999  0.43999  0.00000  0.12003
       6     C     3.14472  3.14472  0.00000 -0.28944
       7     N     3.27525  3.27525  0.00000  0.44950
       8     H     0.42481  0.42481  0.00000  0.15038
       9     H     0.44958  0.44958  0.00000  0.10083
      10     H     0.44128  0.44128  0.00000  0.11744
      11     H     0.43810  0.43810  0.00000  0.12380
      12     O     4.17743  4.17743  0.00000 -0.35485
      13     O     4.16932  4.16932  0.00000 -0.33864

   Total alpha = 24.00000, Total beta = 24.00000, Total charge = -0.00000

*** Psi4 exiting successfully. Buy a developer a beer!
