  ==> Input File <==

--------------------------------------------------------------------------
set {
	reference rhf
	basis 6-31G*
}

set_num_threads( 4 )
memory 2 gb

molecule MOL {
0 1

H	 -3.420663	 1.227371	 -1.044276
O	 -3.452007	 0.283848	 -0.965577
C	 -3.181085	 -0.079926	 0.364119
C	 -1.765924	 0.277073	 0.805136
H	 -3.327791	 -1.152017	 0.410903
H	 -3.905698	 0.375695	 1.036898
C	 -1.377677	 -0.324186	 2.156531
H	 -1.062210	 -0.052846	 0.040348
H	 -1.683248	 1.361880	 0.844893
C	 0.051733	 0.021462	 2.579017
H	 -1.496856	 -1.402488	 2.114450
H	 -2.073692	 0.030234	 2.915045
C	 0.431064	 -0.578937	 3.935378
H	 0.740747	 -0.326289	 1.813021
H	 0.164742	 1.104022	 2.622577
C	 1.823423	 -0.187404	 4.443505
H	 0.361821	 -1.664229	 3.880229
H	 -0.305539	 -0.266039	 4.672485
C	 2.981968	 -0.722993	 3.600104
H	 1.934509	 -0.555018	 5.460761
H	 1.892209	 0.896921	 4.504412
H	 2.931995	 -1.805000	 3.511207
H	 3.936426	 -0.473518	 4.053547
H	 2.980666	 -0.308243	 2.597536

	symmetry c1
}
set optking {
	frozen_dihedral = ("
		7 4 3 2
	")
}

ee = optimize('scf')
oeprop('DIPOLE', 'QUADRUPOLE', 'MULLIKEN_CHARGES')
f=open( 'psi4out.xyz', 'w' )
f.write( "24  " )
f.write( str(ee) + "\n" )
f.write( MOL.save_string_xyz() )
f.close()
--------------------------------------------------------------------------

    Molecular point group: c1
  Charge       = 0
  Multiplicity = 1
  Basis Set: 6-31G*
  Basis Set:
  @DF-RHF Final Energy:  -349.24709847791752
    Total Energy =                       -349.2470984779171204
    Molecular point group: c1
  Basis Set: 6-31G*
  Basis Set:
  Basis Set: 6-31G*
  Basis Set:
  @DF-RHF Final Energy:  -349.24725655404336
    Total Energy =                       -349.2472565540433038
  Basis Set: 6-31G*
  Basis Set:
  Basis Set: 6-31G*
  Basis Set:
  @DF-RHF Final Energy:  -349.24727408808479
    Total Energy =                       -349.2472740880847368
  Basis Set: 6-31G*
  Basis Set:
  Charge       = 0
  Multiplicity = 1
  Basis Set: 6-31G*
  Basis Set:

    Orbital Energies (a.u.)
    -----------------------

    Doubly Occupied:

       1A    -20.552186     2A    -11.266601     3A    -11.219554
       4A    -11.216401     5A    -11.216150     6A    -11.216089
       7A    -11.214876     8A    -11.208868     9A     -1.358898
      10A     -1.092687    11A     -1.051387    12A     -0.986520
      13A     -0.914442    14A     -0.850836    15A     -0.805353
      16A     -0.778981    17A     -0.692732    18A     -0.650345
      19A     -0.626033    20A     -0.605875    21A     -0.604487
      22A     -0.588811    23A     -0.560324    24A     -0.534667
      25A     -0.524864    26A     -0.515359    27A     -0.487732
      28A     -0.482346    29A     -0.471038    30A     -0.461820
      31A     -0.457788    32A     -0.454333    33A     -0.419535

  @DF-RHF Final Energy:  -349.24727324596461

   => Energetics <=

    Nuclear Repulsion Energy =            379.8999132704980184
    One-Electron Energy =               -1226.1185386575175471
    Two-Electron Energy =                 496.9713521410550356
    DFT Exchange-Correlation Energy =       0.0000000000000000
    Empirical Dispersion Energy =           0.0000000000000000
    PCM Polarization Energy =               0.0000000000000000
    EFP Energy =                            0.0000000000000000
    Total Energy =                       -349.2472732459644931
    Molecular point group: c1
  Basis Set: 6-31G*
  Basis Set:

  -Total Gradient:
     Atom            X                  Y                   Z
    ------   -----------------  -----------------  -----------------
       1       -0.000007250479    -0.000009672915    -0.000036732413
       2        0.000365662932    -0.001175392941    -0.000389898036
       3       -0.000352717767     0.001308844070     0.000313893902
       4       -0.000285833320     0.000941797129     0.000486782612
       5        0.000079737464     0.000026167582     0.000082135858
       6       -0.000119510007    -0.000017290344    -0.000049781518
       7        0.000351677893    -0.000955590879    -0.000675723986
       8       -0.000129565157    -0.000004214505     0.000114879314
       9       -0.000025366629     0.000001583539     0.000045905000
      10        0.000129664973    -0.000028346196     0.000076982191
      11       -0.000045512273    -0.000131621725    -0.000046628890
      12        0.000045953972    -0.000044330036     0.000024550743
      13       -0.000010064151     0.000108426064     0.000030509161
      14        0.000076461527    -0.000020888622     0.000014411533
      15        0.000015377788    -0.000018407728     0.000003766643
      16        0.000010823013    -0.000054730070     0.000056628390
      17       -0.000022824579     0.000020876848     0.000020209533
      18       -0.000030276698     0.000037363473    -0.000015215187
      19       -0.000036943719     0.000027736369    -0.000028498964
      20        0.000034554764    -0.000031859990    -0.000016331205
      21       -0.000003966757    -0.000012109499     0.000045596861
      22        0.000000865038     0.000017364471     0.000018433641
      23        0.000005533541     0.000017085906    -0.000014497052
      24       -0.000046481364    -0.000002790002    -0.000061378130

  **** Optimization is complete! (in 4 steps) ****
    Final optimized geometry and variables:
    Molecular point group: c1

    Geometry (in Angstrom), charge = 0, multiplicity = 1:

    H           -2.794000087788     1.379891682595    -3.107220891636
    O           -2.856751343055     0.439807080991    -3.010113954778
    C           -2.582198175072     0.088427564395    -1.678738025413
    C           -1.151310865793     0.415965951129    -1.267494117849
    H           -2.747483705500    -0.980158223021    -1.620051158436
    H           -3.291539584049     0.561362486380    -1.000961389344
    C           -0.770152401706    -0.178880174891     0.089319596087
    H           -0.485876854316     0.035116569199    -2.037312519717
    H           -1.018876733428     1.497537853322    -1.246298749355
    C            0.656410448803     0.169210442110     0.520546768237
    H           -0.878541487297    -1.261247542322     0.046928635972
    H           -1.468562041663     0.167394085587     0.849783893955
    C            1.032044404304    -0.434659079842     1.876229376734
    H            1.348507269542    -0.172528765303    -0.244570175165
    H            0.762929640029     1.251907918097     0.568707249785
    C            2.421487095880    -0.040131335217     2.389962336360
    H            0.967363699125    -1.520040887664     1.817040744141
    H            0.291833613782    -0.126801915878     2.612082442405
    C            3.583443142532    -0.554800508112     1.538382347256
    H            2.535274672069    -0.421518133672     3.401740600866
    H            2.481911332398     1.043674117199     2.466434030755
    H            3.543124934882    -1.635968945795     1.436089493065
    H            4.536093659088    -0.302390545527     1.993855351858
    H            3.577065544411    -0.127715879053     0.541083442901

  Mulliken Charges: (a.u.)
   Center  Symbol    Alpha    Beta     Spin     Total
       1     H     0.28343  0.28343  0.00000  0.43314
       2     O     4.37070  4.37070  0.00000 -0.74140
       3     C     2.98819  2.98819  0.00000  0.02363
       4     C     3.16913  3.16913  0.00000 -0.33826
       5     H     0.41699  0.41699  0.00000  0.16602
       6     H     0.43136  0.43136  0.00000  0.13728
       7     C     3.15935  3.15935  0.00000 -0.31871
       8     H     0.41350  0.41350  0.00000  0.17301
       9     H     0.42800  0.42800  0.00000  0.14401
      10     C     3.15304  3.15304  0.00000 -0.30607
      11     H     0.42085  0.42085  0.00000  0.15829
      12     H     0.42337  0.42337  0.00000  0.15327
      13     C     3.15263  3.15263  0.00000 -0.30525
      14     H     0.41997  0.41997  0.00000  0.16007
      15     H     0.42417  0.42417  0.00000  0.15165
      16     C     3.15238  3.15238  0.00000 -0.30475
      17     H     0.42379  0.42379  0.00000  0.15243
      18     H     0.42248  0.42248  0.00000  0.15504
      19     C     3.24137  3.24137  0.00000 -0.48274
      20     H     0.42078  0.42078  0.00000  0.15844
      21     H     0.42351  0.42351  0.00000  0.15299
      22     H     0.42203  0.42203  0.00000  0.15594
      23     H     0.41910  0.41910  0.00000  0.16179
      24     H     0.41990  0.41990  0.00000  0.16020

   Total alpha = 33.00000, Total beta = 33.00000, Total charge =  0.00000
