                              Psi4 1.0.54 Driver

  ==> Input File <==

--------------------------------------------------------------------------
set {
	reference rhf
	basis cc-pvtz
}

set_num_threads( 4 )
memory 2 gb

molecule MOL {
0 1

H	 2.772440	 0.687662	 -0.469216
N	 2.326826	 -0.066186	 0.000000
C	 0.934676	 -0.005420	 0.000000
H	 2.701367	 -0.940621	 -0.286541
C	 0.226436	 -0.001077	 -1.195129
C	 0.226436	 -0.001077	 1.195129
H	 0.759091	 -0.011439	 -2.128123
C	 -1.153391	 0.009141	 -1.189028
H	 0.759091	 -0.011439	 2.128123
C	 -1.153391	 0.009141	 1.189028
H	 -1.680905	 0.012964	 -2.124348
C	 -1.857876	 0.014675	 0.000000
H	 -1.680905	 0.012964	 2.124348
H	 -2.930222	 0.022904	 0.000000

	symmetry c1
}
set optking {
	frozen_dihedral = ("
		1 2 3 5
	")
}

ee,wfn = optimize('scf', return_wfn=True)
oeprop( wfn, 'DIPOLE', 'QUADRUPOLE', 'MULLIKEN_CHARGES')
f=open( 'psi4out.xyz', 'w' )
f.write( "14  " )
f.write( str(ee) + "\n" )
f.write( MOL.save_string_xyz() )
f.close()
--------------------------------------------------------------------------

    Molecular point group: c1
  Charge       = 0
  Multiplicity = 1
  Basis Set: CC-PVTZ
  Basis Set:
  @DF-RHF Final Energy:  -285.82515544842732
    Total Energy =                       -285.8251554484273811
    Molecular point group: c1
  Basis Set: CC-PVTZ
  Basis Set:
  Basis Set: CC-PVTZ
  Basis Set:
  @DF-RHF Final Energy:  -285.82669168384558
    Total Energy =                       -285.8266916838456382
  Basis Set: CC-PVTZ
  Basis Set:
  Basis Set: CC-PVTZ
  Basis Set:
  @DF-RHF Final Energy:  -285.82706832629452
    Total Energy =                       -285.8270683262948637
  Basis Set: CC-PVTZ
  Basis Set:
  Basis Set: CC-PVTZ
  Basis Set:
  @DF-RHF Final Energy:  -285.82710836499723
    Total Energy =                       -285.8271083649973434
  Basis Set: CC-PVTZ
  Basis Set:
  Basis Set: CC-PVTZ
  Basis Set:
  @DF-RHF Final Energy:  -285.82710998284313
    Total Energy =                       -285.8271099828431261
  Basis Set: CC-PVTZ
  Basis Set:
  Charge       = 0
  Multiplicity = 1
  Basis Set: CC-PVTZ
  Basis Set:

    Orbital Energies (a.u.)
    -----------------------

    Doubly Occupied:

       1A    -15.541900     2A    -11.259258     3A    -11.228599
       4A    -11.226944     5A    -11.224340     6A    -11.224139
       7A    -11.219708     8A     -1.209190     9A     -1.131784
      10A     -1.016045    11A     -0.990378    12A     -0.830641
      13A     -0.810812    14A     -0.705921    15A     -0.663119
      16A     -0.648898    17A     -0.631789    18A     -0.593952
      19A     -0.585894    20A     -0.508929    21A     -0.499177
      22A     -0.497395    23A     -0.411115    24A     -0.336386
      25A     -0.329968

  @DF-RHF Final Energy:  -285.82711014330113

   => Energetics <=

    Nuclear Repulsion Energy =            272.9239261877095828
    One-Electron Energy =                -926.8495119546271326
    Two-Electron Energy =                 368.0984756236164799
    DFT Exchange-Correlation Energy =       0.0000000000000000
    Empirical Dispersion Energy =           0.0000000000000000
    PCM Polarization Energy =               0.0000000000000000
    EFP Energy =                            0.0000000000000000
    Total Energy =                       -285.8271101433010131
    Molecular point group: c1
  Basis Set: CC-PVTZ
  Basis Set:

  -Total Gradient:
     Atom            X                  Y                   Z
    ------   -----------------  -----------------  -----------------
       1       -0.000001292770     0.000005743332     0.000000005488
       2        0.000001046973    -0.000030522482    -0.000021992753
       3       -0.000012082827     0.000010166063     0.000027015472
       4       -0.000008492782     0.000022391008     0.000016892897
       5       -0.000000113216    -0.000021734558    -0.000020330015
       6        0.000011220163     0.000005136459    -0.000002093592
       7       -0.000002447089    -0.000001074424     0.000006046170
       8        0.000018230343     0.000035972522    -0.000002717855
       9       -0.000002362067    -0.000004884691    -0.000001349812
      10        0.000008319760     0.000004808752    -0.000012867380
      11       -0.000005909258    -0.000002783282    -0.000003281776
      12       -0.000010034548    -0.000025748448     0.000012166968
      13       -0.000000812934     0.000002868145     0.000004309543
      14        0.000004730253    -0.000000338395    -0.000001803355

  **** Optimization is complete! (in 6 steps) ****
    Final optimized geometry and variables:
    Molecular point group: c1

    Geometry (in Angstrom), charge = 0, multiplicity = 1:

    H            2.752233599568     0.735980854825    -0.407080426542
    N            2.355076927122    -0.056909409935     0.050886248876
    C            0.925178428365    -0.022462213275     0.002544721717
    H            2.713131785319    -0.874066385858    -0.396462751146
    C            0.220420416340    -0.013447887805    -1.191924239000
    C            0.223805944727     0.002663652813     1.194021344392
    H            0.757374103803    -0.032812534911    -2.122358720298
    C           -1.160432313700     0.020234067641    -1.192898034940
    H            0.773703532063    -0.004525337475     2.114521936830
    C           -1.159092118107     0.036233736795     1.194554503436
    H           -1.692548646584     0.026851419893    -2.125230764155
    C           -1.855634221460     0.045039760253     0.002106667939
    H           -1.690077518230     0.055441932226     2.127301059182
    H           -2.928450004937     0.071075907510     0.002201839376

  Mulliken Charges: (a.u.)
   Center  Symbol    Alpha    Beta     Spin     Total
       1     H     0.42272  0.42272  0.00000  0.15456
       2     N     3.70090  3.70090  0.00000 -0.40179
       3     C     2.90899  2.90899  0.00000  0.18202
       4     H     0.42272  0.42272  0.00000  0.15456
       5     C     3.11441  3.11441  0.00000 -0.22882
       6     C     3.09418  3.09418  0.00000 -0.18836
       7     H     0.42564  0.42564  0.00000  0.14873
       8     C     3.07326  3.07326  0.00000 -0.14652
       9     H     0.41653  0.41653  0.00000  0.16695
      10     C     3.06629  3.06629  0.00000 -0.13258
      11     H     0.42358  0.42358  0.00000  0.15283
      12     C     3.08410  3.08410  0.00000 -0.16820
      13     H     0.42305  0.42305  0.00000  0.15390
      14     H     0.42363  0.42363  0.00000  0.15274

   Total alpha = 25.00000, Total beta = 25.00000, Total charge = -0.00000

*** Psi4 exiting successfully. Buy a developer a beer!
