  ==> Input File <==

--------------------------------------------------------------------------
set {
	reference rhf
	basis 6-31G*
}

set_num_threads( 1 )
memory 2 gb

molecule MOL {
0 1

O	 -3.637849	 -0.349245	 -0.495998
C	 -2.668563	 0.129746	 -0.000350
C	 -2.654539	 1.466564	 0.695342
O	 -1.481751	 -0.454642	 0.000584
H	 -3.369213	 1.442702	 1.509304
H	 -1.673871	 1.713123	 1.074733
H	 -2.980470	 2.226521	 -0.004739
C	 -0.334255	 0.388708	 0.000906
C	 0.891947	 -0.504646	 0.000751
H	 -0.365390	 1.025305	 -0.873475
H	 -0.365484	 1.024911	 0.875569
C	 2.191998	 0.301789	 0.000897
H	 0.855148	 -1.151283	 -0.871571
H	 0.855132	 -1.151660	 0.872805
C	 3.441114	 -0.581407	 0.000108
H	 2.215074	 0.954890	 -0.869742
H	 2.215465	 0.953923	 0.872248
C	 4.739576	 0.224112	 -0.001102
H	 3.419457	 -1.233487	 -0.870178
H	 3.420834	 -1.233096	 0.870717
H	 4.804918	 0.861552	 -0.878265
H	 5.606527	 -0.429058	 -0.001824
H	 4.806469	 0.861674	 0.875853

	symmetry c1
}
set optking {
	frozen_dihedral = ("
		13 9 8 10,
		2 4 8 10,
		16 12 9 13,
		19 15 12 16
	")
}

ee = energy('scf')
oeprop('DIPOLE', 'QUADRUPOLE', 'MULLIKEN_CHARGES')
f=open( 'psi4out.xyz', 'w' )
f.write( "23  " )
f.write( str(ee) + "\n" )
f.write( MOL.save_string_xyz() )
f.close()
--------------------------------------------------------------------------

    Molecular point group: c1

    Geometry (in Angstrom), charge = 0, multiplicity = 1:

       Center              X                  Y                   Z               Mass
    ------------   -----------------  -----------------  -----------------  -----------------
           O         -3.676254422939    -0.427279244796    -0.519335191827    15.994914619560
           C         -2.706968422939     0.051711755204    -0.023687191827    12.000000000000
           C         -2.692944422939     1.388529755204     0.672004808173    12.000000000000
           O         -1.520156422939    -0.532676244796    -0.022753191827    15.994914619560
           H         -3.407618422939     1.364667755204     1.485966808173     1.007825032070
           H         -1.712276422939     1.635088755204     1.051395808173     1.007825032070
           H         -3.018875422939     2.148486755204    -0.028076191827     1.007825032070
           C         -0.372660422939     0.310673755204    -0.022431191827    12.000000000000
           C          0.853541577061    -0.582680244796    -0.022586191827    12.000000000000
           H         -0.403795422939     0.947270755204    -0.896812191827     1.007825032070
           H         -0.403889422939     0.946876755204     0.852231808173     1.007825032070
           C          2.153592577061     0.223754755204    -0.022440191827    12.000000000000
           H          0.816742577061    -1.229317244796    -0.894908191827     1.007825032070
           H          0.816726577061    -1.229694244796     0.849467808173     1.007825032070
           C          3.402708577061    -0.659441244796    -0.023229191827    12.000000000000
           H          2.176668577061     0.876855755204    -0.893079191827     1.007825032070
           H          2.177059577061     0.875888755204     0.848910808173     1.007825032070
           C          4.701170577061     0.146077755204    -0.024439191827    12.000000000000
           H          3.381051577061    -1.311521244796    -0.893515191827     1.007825032070
           H          3.382428577061    -1.311130244796     0.847379808173     1.007825032070
           H          4.766512577061     0.783517755204    -0.901602191827     1.007825032070
           H          5.568121577061    -0.507092244796    -0.025161191827     1.007825032070
           H          4.768063577061     0.783639755204     0.852515808173     1.007825032070

  Charge       = 0
  Multiplicity = 1
  Basis Set: 6-31G*
  Basis Set:

    Orbital Energies (a.u.)
    -----------------------

    Doubly Occupied:

       1A    -20.601801     2A    -20.541641     3A    -11.375756
       4A    -11.298315     5A    -11.233297     6A    -11.231840
       7A    -11.231043     8A    -11.226668     9A    -11.217347
      10A     -1.465992    11A     -1.366769    12A     -1.099952
      13A     -1.037595    14A     -1.018618    15A     -0.946661
      16A     -0.851458    17A     -0.810614    18A     -0.780759
      19A     -0.708674    20A     -0.696254    21A     -0.663095
      22A     -0.652106    23A     -0.619644    24A     -0.598530
      25A     -0.585352    26A     -0.574630    27A     -0.560329
      28A     -0.540227    29A     -0.525738    30A     -0.510621
      31A     -0.496770    32A     -0.482951    33A     -0.477068
      34A     -0.475810    35A     -0.448800    36A     -0.428731

  @DF-RHF Final Energy:  -422.94666489487832

   => Energetics <=

    Nuclear Repulsion Energy =            452.5314652406472646
    One-Electron Energy =               -1472.1935288481163298
    Two-Electron Energy =                 596.7153987125900585
    DFT Exchange-Correlation Energy =       0.0000000000000000
    Empirical Dispersion Energy =           0.0000000000000000
    PCM Polarization Energy =               0.0000000000000000
    EFP Energy =                            0.0000000000000000
    Total Energy =                       -422.9466648948789498

  Mulliken Charges: (a.u.)
   Center  Symbol    Alpha    Beta     Spin     Total
       1     O     4.26964  4.26964  0.00000 -0.53928
       2     C     2.60698  2.60698  0.00000  0.78604
       3     C     3.30797  3.30797  0.00000 -0.61595
       4     O     4.30605  4.30605  0.00000 -0.61209
       5     H     0.39229  0.39229  0.00000  0.21543
       6     H     0.41046  0.41046  0.00000  0.17908
       7     H     0.39475  0.39475  0.00000  0.21050
       8     C     3.00721  3.00721  0.00000 -0.01443
       9     C     3.16081  3.16081  0.00000 -0.32163
      10     H     0.41331  0.41331  0.00000  0.17338
      11     H     0.41658  0.41658  0.00000  0.16684
      12     C     3.16129  3.16129  0.00000 -0.32258
      13     H     0.40787  0.40787  0.00000  0.18426
      14     H     0.41038  0.41038  0.00000  0.17924
      15     C     3.15196  3.15196  0.00000 -0.30392
      16     H     0.42139  0.42139  0.00000  0.15723
      17     H     0.42254  0.42254  0.00000  0.15491
      18     C     3.24011  3.24011  0.00000 -0.48023
      19     H     0.41950  0.41950  0.00000  0.16101
      20     H     0.42023  0.42023  0.00000  0.15953
      21     H     0.42079  0.42079  0.00000  0.15842
      22     H     0.41667  0.41667  0.00000  0.16666
      23     H     0.42121  0.42121  0.00000  0.15758

   Total alpha = 36.00000, Total beta = 36.00000, Total charge =  0.00000
