  ==> Input File <==

--------------------------------------------------------------------------
set {
	reference rhf
	basis cc-pvtz
}

set_num_threads( 4 )
memory 2 gb

molecule MOL {
0 1

H	 -3.436473	 1.252944	 -1.023892
O	 -3.458596	 0.315260	 -0.960865
C	 -3.176635	 -0.080824	 0.355601
C	 -1.763371	 0.265266	 0.799691
H	 -3.321825	 -1.153438	 0.379502
H	 -3.895468	 0.357385	 1.043382
C	 -0.673390	 -0.426948	 -0.013392
H	 -1.631049	 1.344913	 0.747560
H	 -1.664587	 -0.001624	 1.849167
C	 0.737842	 -0.043159	 0.423759
H	 -0.806103	 -0.190518	 -1.063345
H	 -0.797221	 -1.503753	 0.074146
C	 1.824000	 -0.743224	 -0.390623
H	 0.850588	 1.033777	 0.343840
H	 0.868587	 -0.286314	 1.476203
C	 3.255957	 -0.453067	 0.062319
H	 1.718250	 -0.470599	 -1.438164
H	 1.658105	 -1.815850	 -0.339904
C	 4.113981	 -1.693394	 0.300074
H	 3.214638	 0.121846	 0.982397
H	 3.741495	 0.185392	 -0.671195
H	 3.650087	 -2.354151	 1.025526
H	 5.090148	 -1.417918	 0.682766
H	 4.270138	 -2.259576	 -0.610232

	symmetry c1
}
set optking {
	frozen_dihedral = ("
		20 16 13 17
	")
}

ee = optimize('scf')
oeprop('DIPOLE', 'QUADRUPOLE', 'MULLIKEN_CHARGES')
f=open( 'psi4out.xyz', 'w' )
f.write( "24  " )
f.write( str(ee) + "\n" )
f.write( MOL.save_string_xyz() )
f.close()
--------------------------------------------------------------------------

    Molecular point group: c1
  Charge       = 0
  Multiplicity = 1
  Basis Set: CC-PVTZ
  Basis Set:
  @DF-RHF Final Energy:  -349.37640027093909
    Total Energy =                       -349.3764002709396550
    Molecular point group: c1
  Basis Set: CC-PVTZ
  Basis Set:
  Basis Set: CC-PVTZ
  Basis Set:
  @DF-RHF Final Energy:  -349.37695821190567
    Total Energy =                       -349.3769582119057304
  Basis Set: CC-PVTZ
  Basis Set:
  Basis Set: CC-PVTZ
  Basis Set:
  @DF-RHF Final Energy:  -349.37702241514688
    Total Energy =                       -349.3770224151470529
  Basis Set: CC-PVTZ
  Basis Set:
  Basis Set: CC-PVTZ
  Basis Set:
  @DF-RHF Final Energy:  -349.37702562817174
    Total Energy =                       -349.3770256281716229
  Basis Set: CC-PVTZ
  Basis Set:
  Charge       = 0
  Multiplicity = 1
  Basis Set: CC-PVTZ
  Basis Set:

    Orbital Energies (a.u.)
    -----------------------

    Doubly Occupied:

       1A    -20.546315     2A    -11.265543     3A    -11.215245
       4A    -11.211372     5A    -11.210897     6A    -11.208999
       7A    -11.208807     8A    -11.205915     9A     -1.364170
      10A     -1.088822    11A     -1.048776    12A     -0.989001
      13A     -0.914575    14A     -0.843574    15A     -0.798894
      16A     -0.788037    17A     -0.681700    18A     -0.656207
      19A     -0.628186    20A     -0.616412    21A     -0.594575
      22A     -0.587586    23A     -0.555543    24A     -0.538090
      25A     -0.528237    26A     -0.505886    27A     -0.495034
      28A     -0.474068    29A     -0.465972    30A     -0.460577
      31A     -0.456902    32A     -0.453103    33A     -0.420132

  @DF-RHF Final Energy:  -349.37702576978774

   => Energetics <=

    Nuclear Repulsion Energy =            381.2748533199823555
    One-Electron Energy =               -1229.2494495768853540
    Two-Electron Energy =                 498.5975704871154903
    DFT Exchange-Correlation Energy =       0.0000000000000000
    Empirical Dispersion Energy =           0.0000000000000000
    PCM Polarization Energy =               0.0000000000000000
    EFP Energy =                            0.0000000000000000
    Total Energy =                       -349.3770257697874513
    Molecular point group: c1
  Basis Set: CC-PVTZ
  Basis Set:

  -Total Gradient:
     Atom            X                  Y                   Z
    ------   -----------------  -----------------  -----------------
       1       -0.000000068426     0.000000583698    -0.000000547280
       2        0.000001710784    -0.000000434550     0.000000969089
       3        0.000001098160     0.000000002551    -0.000003192070
       4        0.000008630946    -0.000008276035     0.000007733057
       5        0.000001561572     0.000000492419    -0.000000029502
       6        0.000001884006     0.000001277558     0.000001000037
       7       -0.000005828310    -0.000013494331     0.000006906726
       8        0.000004622226    -0.000001973991    -0.000001393937
       9       -0.000006655091     0.000001732397     0.000003342253
      10        0.000009098801     0.000025850084    -0.000028090091
      11        0.000016847609    -0.000005122244    -0.000001716745
      12       -0.000011089449    -0.000000987119     0.000003254199
      13        0.000942148088    -0.002378489667    -0.001129888489
      14       -0.000000242225     0.000018077376     0.000007507840
      15        0.000001410621    -0.000005424096    -0.000008892973
      16       -0.000029297266    -0.002030659750     0.001873904146
      17       -0.000810171424     0.002302684571     0.000647716582
      18       -0.000000757615    -0.000005453065    -0.000008890435
      19        0.000009133885    -0.000012514365     0.000001288271
      20       -0.000115824078     0.002121401836    -0.001365125536
      21       -0.000006208445    -0.000011276051     0.000003999468
      22       -0.000004707855    -0.000001114622    -0.000004452143
      23       -0.000008906702     0.000001408321     0.000002450596
      24        0.000001610187     0.000001709075    -0.000007853063

  **** Optimization is complete! (in 5 steps) ****
    Final optimized geometry and variables:
    Molecular point group: c1

    Geometry (in Angstrom), charge = 0, multiplicity = 1:

    H           -3.451921338911     1.657592122951    -1.083950636316
    O           -3.496560343377     0.719892518695    -1.034881765276
    C           -3.238202701572     0.298663276734     0.278531118353
    C           -1.821898575824     0.604584006502     0.742026245199
    H           -3.409057795381    -0.770416172260     0.285147602050
    H           -3.953819310545     0.743969910611     0.965113639340
    C           -0.739901952077    -0.100234425065    -0.071022309247
    H           -1.663752130339     1.681481171054     0.708004924736
    H           -1.740218689600     0.319447417889     1.788140227620
    C            0.674589854527     0.243978535764     0.384936586690
    H           -0.857082474524     0.154178831428    -1.118622432436
    H           -0.888868306335    -1.175274047677    -0.000543272798
    C            1.761013394071    -0.470858239361    -0.416900823048
    H            0.825214853683     1.318782113030     0.310062225821
    H            0.787134612876    -0.004282829988     1.438066824567
    C            3.191050108884    -0.097664993523     0.020650383088
    H            1.623172069383    -0.225709312873    -1.465292361181
    H            1.615281984346    -1.543218360867    -0.328326408582
    C            4.104499240783    -1.301148827805     0.227363077440
    H            3.152101924253     0.491549084814     0.931550846839
    H            3.635731200474     0.556945571722    -0.722257106505
    H            3.719157931399    -1.954373096775     1.003441321824
    H            5.102883633691    -0.993641162762     0.517528605541
    H            4.189469812015    -1.886730164689    -0.682151710594

  Mulliken Charges: (a.u.)
   Center  Symbol    Alpha    Beta     Spin     Total
       1     H     0.39532  0.39532  0.00000  0.20937
       2     O     4.20370  4.20370  0.00000 -0.40739
       3     C     2.97775  2.97775  0.00000  0.04450
       4     C     3.10214  3.10214  0.00000 -0.20427
       5     H     0.45890  0.45890  0.00000  0.08221
       6     H     0.46026  0.46026  0.00000  0.07947
       7     C     3.08869  3.08869  0.00000 -0.17737
       8     H     0.45905  0.45905  0.00000  0.08190
       9     H     0.45332  0.45332  0.00000  0.09335
      10     C     3.08984  3.08984  0.00000 -0.17969
      11     H     0.44655  0.44655  0.00000  0.10691
      12     H     0.45513  0.45513  0.00000  0.08975
      13     C     3.09152  3.09152  0.00000 -0.18303
      14     H     0.45434  0.45434  0.00000  0.09132
      15     H     0.45577  0.45577  0.00000  0.08847
      16     C     3.08781  3.08781  0.00000 -0.17562
      17     H     0.45130  0.45130  0.00000  0.09741
      18     H     0.45418  0.45418  0.00000  0.09164
      19     C     3.14749  3.14749  0.00000 -0.29499
      20     H     0.45489  0.45489  0.00000  0.09023
      21     H     0.45201  0.45201  0.00000  0.09598
      22     H     0.45599  0.45599  0.00000  0.08801
      23     H     0.44990  0.44990  0.00000  0.10019
      24     H     0.45416  0.45416  0.00000  0.09168

   Total alpha = 33.00000, Total beta = 33.00000, Total charge =  0.00000
