  ==> Input File <==

--------------------------------------------------------------------------
set {
	reference rhf
	basis 6-31G*
}

set_num_threads( 4 )
memory 2 gb

molecule MOL {
0 1

O	 -2.324811	 1.361668	 -0.277141
C	 -2.105949	 0.203097	 -0.092081
C	 -0.889235	 -0.467034	 -0.705952
C	 -3.002726	 -0.644460	 0.782455
C	 -0.658035	 0.027191	 -2.143112
H	 -1.072568	 -1.535955	 -0.716003
H	 -0.005270	 -0.281042	 -0.102595
C	 0.543025	 -0.653599	 -2.803865
H	 -1.561905	 -0.155820	 -2.713120
H	 -0.501551	 1.104802	 -2.139273
C	 0.861266	 -0.146445	 -4.215096
H	 0.371167	 -1.727837	 -2.838556
H	 1.419388	 -0.505040	 -2.176358
C	 -0.212158	 -0.459840	 -5.258907
H	 1.800052	 -0.591767	 -4.534565
H	 1.031744	 0.927739	 -4.181132
H	 -0.410210	 -1.527187	 -5.306569
H	 0.106648	 -0.139405	 -6.245863
H	 -1.149660	 0.041021	 -5.042069
H	 -3.496582	 -1.399307	 0.176174
H	 -3.747939	 -0.023774	 1.260148
H	 -2.421318	 -1.168775	 1.535358

	symmetry c1
}
set optking {
	frozen_dihedral = ("
		6 3 2 1
	")
}

ee = optimize('scf')
oeprop('DIPOLE', 'QUADRUPOLE', 'MULLIKEN_CHARGES')
f=open( 'psi4out.xyz', 'w' )
f.write( "22  " )
f.write( str(ee) + "\n" )
f.write( MOL.save_string_xyz() )
f.close()
--------------------------------------------------------------------------

    Molecular point group: c1
  Charge       = 0
  Multiplicity = 1
  Basis Set: 6-31G*
  Basis Set:
  @DF-RHF Final Energy:  -348.09799883029132
    Total Energy =                       -348.0979988302908623
    Molecular point group: c1
  Basis Set: 6-31G*
  Basis Set:
  Basis Set: 6-31G*
  Basis Set:
  @DF-RHF Final Energy:  -348.09849257746572
    Total Energy =                       -348.0984925774654926
  Basis Set: 6-31G*
  Basis Set:
  Basis Set: 6-31G*
  Basis Set:
  @DF-RHF Final Energy:  -348.09903725517654
    Total Energy =                       -348.0990372551764835
  Basis Set: 6-31G*
  Basis Set:
  Basis Set: 6-31G*
  Basis Set:
  @DF-RHF Final Energy:  -348.09922347541431
    Total Energy =                       -348.0992234754148740
  Basis Set: 6-31G*
  Basis Set:
  @DF-RHF Final Energy:  -348.09920062281714
    Total Energy =                       -348.0992006228169089
  @DF-RHF Final Energy:  -348.09904572596889
    Total Energy =                       -348.0990457259686650
  @DF-RHF Final Energy:  -348.09923859485485
    Total Energy =                       -348.0992385948550805
  Basis Set: 6-31G*
  Basis Set:
  @DF-RHF Final Energy:  -348.09922965571195
    Total Energy =                       -348.0992296557121790
  Basis Set: 6-31G*
  Basis Set:
  Basis Set: 6-31G*
  Basis Set:
  @DF-RHF Final Energy:  -348.09923859059359
    Total Energy =                       -348.0992385905934725
  Basis Set: 6-31G*
  Basis Set:
  Basis Set: 6-31G*
  Basis Set:
  @DF-RHF Final Energy:  -348.09923983241498
    Total Energy =                       -348.0992398324149235
  Basis Set: 6-31G*
  Basis Set:
  Charge       = 0
  Multiplicity = 1
  Basis Set: 6-31G*
  Basis Set:

    Orbital Energies (a.u.)
    -----------------------

    Doubly Occupied:

       1A    -20.548832     2A    -11.326171     3A    -11.231264
       4A    -11.228660     5A    -11.219634     6A    -11.218354
       7A    -11.217106     8A    -11.209249     9A     -1.394728
      10A     -1.091290    11A     -1.042824    12A     -1.001210
      13A     -0.935645    14A     -0.855166    15A     -0.782426
      16A     -0.731295    17A     -0.655537    18A     -0.649970
      19A     -0.628986    20A     -0.610725    21A     -0.603257
      22A     -0.581733    23A     -0.557836    24A     -0.549360
      25A     -0.522106    26A     -0.518450    27A     -0.498764
      28A     -0.481199    29A     -0.464966    30A     -0.461802
      31A     -0.460114    32A     -0.397932

  @DF-RHF Final Energy:  -348.09923988649166

   => Energetics <=

    Nuclear Repulsion Energy =            372.1664521537599057
    One-Electron Energy =               -1209.1781992870546674
    Two-Electron Energy =                 488.9125072468027611
    DFT Exchange-Correlation Energy =       0.0000000000000000
    Empirical Dispersion Energy =           0.0000000000000000
    PCM Polarization Energy =               0.0000000000000000
    EFP Energy =                            0.0000000000000000
    Total Energy =                       -348.0992398864920006
    Molecular point group: c1
  Basis Set: 6-31G*
  Basis Set:

  -Total Gradient:
     Atom            X                  Y                   Z
    ------   -----------------  -----------------  -----------------
       1        0.000952906920     0.000399278103     0.001226544611
       2       -0.001175411634    -0.000599206186    -0.001371951423
       3       -0.000550000148     0.000287272814    -0.001246052348
       4        0.000002053230     0.000010279304     0.000006249121
       5        0.000034492527     0.000019783724    -0.000004943863
       6        0.000755413782    -0.000070937102     0.001392479468
       7        0.000003076263    -0.000005210097     0.000000086303
       8       -0.000007604935    -0.000012279776    -0.000010940391
       9        0.000001300578    -0.000017698831     0.000000449572
      10       -0.000011139142    -0.000005789264     0.000014842408
      11        0.000001709005    -0.000001486832     0.000001613227
      12        0.000008250541    -0.000008180863    -0.000005277584
      13       -0.000010946391     0.000004571856     0.000003503541
      14        0.000000072441    -0.000000317936    -0.000001631333
      15       -0.000000588320    -0.000000248298     0.000000033123
      16        0.000001273188     0.000000754118     0.000000832377
      17       -0.000000008791     0.000000637331    -0.000000044089
      18       -0.000001174255     0.000000175729    -0.000001221160
      19       -0.000000864230    -0.000000020996    -0.000000496311
      20       -0.000000291260    -0.000000906749    -0.000002683143
      21       -0.000002155931    -0.000001201228     0.000001510397
      22       -0.000000363434     0.000000731171    -0.000002902506

  **** Optimization is complete! (in 11 steps) ****
    Final optimized geometry and variables:
    Molecular point group: c1

    Geometry (in Angstrom), charge = 0, multiplicity = 1:

    O           -1.381423504850     1.452715416720     1.566074982457
    C           -1.145229154888     0.299974227385     1.763580675875
    C            0.020102803592    -0.400528351971     1.083795097960
    C           -1.963699525912    -0.520414017606     2.735672633889
    C            0.293176259315     0.101073675162    -0.334373878365
    H           -0.132605876971    -1.476312100466     1.101608984303
    H            0.890179991139    -0.216996660021     1.714510284352
    C            1.519167317859    -0.567760595954    -0.960614618366
    H           -0.586468624519    -0.078346623730    -0.945520711556
    H            0.431405322977     1.175974743983    -0.303334563275
    C            1.886586529340    -0.040394822374    -2.352367338689
    H            1.359643432614    -1.643759077571    -1.016574987010
    H            2.372124165966    -0.421712613166    -0.300650336739
    C            0.852737192887    -0.341021421496    -3.439088718116
    H            2.837723516066    -0.478268420928    -2.644905237719
    H            2.050946114001     1.033482241732    -2.296651260776
    H            0.657527771500    -1.408015636679    -3.507864067605
    H            1.207455514544    -0.008192754768    -4.409593046329
    H           -0.092029553097     0.157689777375    -3.250680531875
    H           -2.500422481031    -1.297778239611     2.198353971493
    H           -2.670762825827     0.114094204015     3.251615382016
    H           -1.318325176539    -1.015526338280     3.455620028423

  Mulliken Charges: (a.u.)
   Center  Symbol    Alpha    Beta     Spin     Total
       1     O     4.26328  4.26328  0.00000 -0.52657
       2     C     2.73388  2.73388  0.00000  0.53225
       3     C     3.20905  3.20905  0.00000 -0.41809
       4     C     3.28822  3.28822  0.00000 -0.57645
       5     C     3.15436  3.15436  0.00000 -0.30873
       6     H     0.41445  0.41445  0.00000  0.17110
       7     H     0.40447  0.40447  0.00000  0.19106
       8     C     3.15409  3.15409  0.00000 -0.30819
       9     H     0.41726  0.41726  0.00000  0.16548
      10     H     0.40418  0.40418  0.00000  0.19164
      11     C     3.15260  3.15260  0.00000 -0.30520
      12     H     0.42517  0.42517  0.00000  0.14966
      13     H     0.42210  0.42210  0.00000  0.15579
      14     C     3.24200  3.24200  0.00000 -0.48401
      15     H     0.42070  0.42070  0.00000  0.15860
      16     H     0.42088  0.42088  0.00000  0.15824
      17     H     0.42302  0.42302  0.00000  0.15396
      18     H     0.41838  0.41838  0.00000  0.16323
      19     H     0.41828  0.41828  0.00000  0.16343
      20     H     0.40718  0.40718  0.00000  0.18565
      21     H     0.39706  0.39706  0.00000  0.20587
      22     H     0.40937  0.40937  0.00000  0.18126

   Total alpha = 32.00000, Total beta = 32.00000, Total charge = -0.00000
