  ==> Input File <==

--------------------------------------------------------------------------
set {
	reference rhf
	basis cc-pvtz
}

set_num_threads( 4 )
memory 2 gb

molecule MOL {
0 1

H	 -3.401682	 -1.036167	 0.000000
O	 -3.113760	 -0.140926	 0.000000
C	 -1.775087	 -0.058754	 0.000000
C	 -0.992086	 -0.768791	 -0.901771
C	 -1.184594	 0.768457	 0.940863
H	 -1.457520	 -1.408533	 -1.628770
C	 0.376563	 -0.648030	 -0.858058
H	 -1.806648	 1.307151	 1.627068
C	 0.187274	 0.878328	 0.971389
H	 0.991750	 -1.190504	 -1.548258
C	 0.983373	 0.176861	 0.078855
H	 0.646451	 1.519800	 1.700901
C	 2.451134	 0.310496	 0.130646
O	 3.210603	 -0.247768	 -0.588871
H	 2.822481	 0.986872	 0.908090

	symmetry c1
}
set optking {
	frozen_dihedral = ("
		5 3 2 1
	")
}

ee = optimize('scf')
oeprop('DIPOLE', 'QUADRUPOLE', 'MULLIKEN_CHARGES')
f=open( 'psi4out.xyz', 'w' )
f.write( "15  " )
f.write( str(ee) + "\n" )
f.write( MOL.save_string_xyz() )
f.close()
--------------------------------------------------------------------------

    Molecular point group: c1
  Charge       = 0
  Multiplicity = 1
  Basis Set: CC-PVTZ
  Basis Set:
  @DF-RHF Final Energy:  -418.43878807503825
    Total Energy =                       -418.4387880750385875
    Molecular point group: c1
  Basis Set: CC-PVTZ
  Basis Set:
  Basis Set: CC-PVTZ
  Basis Set:
  @DF-RHF Final Energy:  -418.43902462370846
    Total Energy =                       -418.4390246237082920
  Basis Set: CC-PVTZ
  Basis Set:
  Basis Set: CC-PVTZ
  Basis Set:
  @DF-RHF Final Energy:  -418.43903606741503
    Total Energy =                       -418.4390360674145768
  Basis Set: CC-PVTZ
  Basis Set:
  Basis Set: CC-PVTZ
  Basis Set:
  @DF-RHF Final Energy:  -418.43875667921827
    Total Energy =                       -418.4387566792179314
  Basis Set: CC-PVTZ
  Basis Set:
  Basis Set: CC-PVTZ
  Basis Set:
  @DF-RHF Final Energy:  -418.43905874611380
    Total Energy =                       -418.4390587461141422
  Basis Set: CC-PVTZ
  Basis Set:
  Charge       = 0
  Multiplicity = 1
  Basis Set: CC-PVTZ
  Basis Set:

    Orbital Energies (a.u.)
    -----------------------

    Doubly Occupied:

       1A    -20.594146     2A    -20.548814     3A    -11.325032
       4A    -11.316475     5A    -11.258071     6A    -11.253152
       7A    -11.241810     8A    -11.240876     9A    -11.238822
      10A     -1.424915    11A     -1.404995    12A     -1.175580
      13A     -1.045054    14A     -1.041567    15A     -0.890547
      16A     -0.866060    17A     -0.798512    18A     -0.758759
      19A     -0.715358    20A     -0.671216    21A     -0.652146
      22A     -0.633885    23A     -0.622581    24A     -0.610147
      25A     -0.567593    26A     -0.558784    27A     -0.550000
      28A     -0.505716    29A     -0.489541    30A     -0.423932
      31A     -0.361013    32A     -0.339914

  @DF-RHF Final Energy:  -418.43905913852882

   => Energetics <=

    Nuclear Repulsion Energy =            401.9445146821219623
    One-Electron Energy =               -1366.5171192255975257
    Two-Electron Energy =                 546.1335454049469718
    DFT Exchange-Correlation Energy =       0.0000000000000000
    Empirical Dispersion Energy =           0.0000000000000000
    PCM Polarization Energy =               0.0000000000000000
    EFP Energy =                            0.0000000000000000
    Total Energy =                       -418.4390591385285916
    Molecular point group: c1
  Basis Set: CC-PVTZ
  Basis Set:

  -Total Gradient:
     Atom            X                  Y                   Z
    ------   -----------------  -----------------  -----------------
       1       -0.000075434889    -0.000002622151     0.003449863790
       2        0.000066210284    -0.000939604428    -0.003518097185
       3       -0.000061570088     0.002777799286    -0.001668404051
       4       -0.000143587351     0.000000492447     0.000072232554
       5        0.000186303019    -0.001848700448     0.001658153421
       6        0.000004744763     0.000003050869    -0.000007417894
       7        0.000121162926     0.000074511295     0.000056248997
       8       -0.000002484010    -0.000004312969    -0.000009573161
       9       -0.000090643651     0.000004041246     0.000078074232
      10       -0.000008965343    -0.000002527579    -0.000002952724
      11       -0.000004960808    -0.000085141375    -0.000102709537
      12        0.000011345644     0.000003561370    -0.000009375921
      13        0.000015771874     0.000044519005    -0.000017213092
      14       -0.000012989604    -0.000016131980     0.000010924216
      15       -0.000004902763    -0.000008934589     0.000010246352

  **** Optimization is complete! (in 6 steps) ****
    Final optimized geometry and variables:
    Molecular point group: c1

    Geometry (in Angstrom), charge = 0, multiplicity = 1:

    H           -3.404347947153    -1.054740075401     0.012476869808
    O           -3.122017962754    -0.157044041899     0.015867462897
    C           -1.770769286524    -0.072521065902     0.040121479358
    C           -0.991463870102    -0.784972485739    -0.862525406457
    C           -1.180895557460     0.749466330283     0.979819138430
    H           -1.466755672858    -1.412087181162    -1.592596689649
    C            0.377079553364    -0.668227590815    -0.821067997115
    H           -1.801409642564     1.284729796108     1.670262763478
    C            0.194168719265     0.868870271794     1.003304832809
    H            0.992188981001    -1.210917250400    -1.511119367497
    C            0.983622453778     0.163604490437     0.112202311230
    H            0.655731312294     1.511027208500     1.730635310883
    C            2.454110553116     0.299354516545     0.161065704138
    O            3.211176693741    -0.266168214134    -0.553911753196
    H            2.825483992586     0.983543128291     0.931560269435

  Mulliken Charges: (a.u.)
   Center  Symbol    Alpha    Beta     Spin     Total
       1     H     0.38352  0.38352  0.00000  0.23296
       2     O     4.17972  4.17972  0.00000 -0.35944
       3     C     2.85943  2.85943  0.00000  0.28115
       4     C     3.12134  3.12134  0.00000 -0.24269
       5     C     3.10746  3.10746  0.00000 -0.21492
       6     H     0.41998  0.41998  0.00000  0.16004
       7     C     3.06927  3.06927  0.00000 -0.13854
       8     H     0.41399  0.41399  0.00000  0.17203
       9     C     3.07192  3.07192  0.00000 -0.14385
      10     H     0.40704  0.40704  0.00000  0.18592
      11     C     2.99871  2.99871  0.00000  0.00259
      12     H     0.42097  0.42097  0.00000  0.15806
      13     C     2.91037  2.91037  0.00000  0.17927
      14     O     4.17663  4.17663  0.00000 -0.35327
      15     H     0.45966  0.45966  0.00000  0.08069

   Total alpha = 32.00000, Total beta = 32.00000, Total charge = -0.00000
