  ==> Input File <==

--------------------------------------------------------------------------
set {
	reference rhf
	basis 6-31G*
}

set_num_threads( 4 )
memory 2 gb

molecule MOL {
0 1

H	 1.882143	 1.698390	 -0.272305
O	 0.994429	 1.354065	 -0.286099
C	 1.050492	 0.053836	 0.000068
C	 -0.318135	 -0.576402	 0.000164
O	 2.077063	 -0.501151	 0.221741
C	 -1.454360	 0.441875	 -0.000474
H	 -0.374042	 -1.230163	 -0.866135
H	 -0.374274	 -1.229227	 0.867154
C	 -2.826123	 -0.230780	 0.000056
H	 -1.357605	 1.085198	 -0.868380
H	 -1.357504	 1.086451	 0.866496
H	 -2.959731	 -0.858053	 -0.876869
H	 -3.619374	 0.509403	 -0.000080
H	 -2.959371	 -0.857318	 0.877556

	symmetry c1
}
set optking {
	frozen_dihedral = ("
		2 3 4 7
	")
}

ee = optimize('scf')
oeprop('DIPOLE', 'QUADRUPOLE', 'MULLIKEN_CHARGES')
f=open( 'psi4out.xyz', 'w' )
f.write( "14  " )
f.write( str(ee) + "\n" )
f.write( MOL.save_string_xyz() )
f.close()
--------------------------------------------------------------------------

    Molecular point group: c1
  Charge       = 0
  Multiplicity = 1
  Basis Set: 6-31G*
  Basis Set:
  @DF-RHF Final Energy:  -305.87701290518612
    Total Energy =                       -305.8770129051861204
    Molecular point group: c1
  Basis Set: 6-31G*
  Basis Set:
  Basis Set: 6-31G*
  Basis Set:
  @DF-RHF Final Energy:  -305.87779476049536
    Total Energy =                       -305.8777947604952487
  Basis Set: 6-31G*
  Basis Set:
  Basis Set: 6-31G*
  Basis Set:
  @DF-RHF Final Energy:  -305.87759865994178
    Total Energy =                       -305.8775986599416683
  Basis Set: 6-31G*
  Basis Set:
  Basis Set: 6-31G*
  Basis Set:
  @DF-RHF Final Energy:  -305.87819324906093
    Total Energy =                       -305.8781932490608710
  Basis Set: 6-31G*
  Basis Set:
  Basis Set: 6-31G*
  Basis Set:
  @DF-RHF Final Energy:  -305.87819913157296
    Total Energy =                       -305.8781991315730124
  Basis Set: 6-31G*
  Basis Set:
  Basis Set: 6-31G*
  Basis Set:
  @DF-RHF Final Energy:  -305.87820264253463
    Total Energy =                       -305.8782026425347453
  Basis Set: 6-31G*
  Basis Set:
  Charge       = 0
  Multiplicity = 1
  Basis Set: 6-31G*
  Basis Set:

    Orbital Energies (a.u.)
    -----------------------

    Doubly Occupied:

       1A    -20.615770     2A    -20.547298     3A    -11.382031
       4A    -11.241635     5A    -11.229759     6A    -11.219426
       7A     -1.476052     8A     -1.364543     9A     -1.084999
      10A     -0.978003    11A     -0.846337    12A     -0.818986
      13A     -0.699326    14A     -0.679044    15A     -0.665997
      16A     -0.616782    17A     -0.590066    18A     -0.564158
      19A     -0.549239    20A     -0.525236    21A     -0.496281
      22A     -0.492430    23A     -0.467366    24A     -0.436749

  @DF-RHF Final Energy:  -305.87820265828020

   => Energetics <=

    Nuclear Repulsion Energy =            240.3769211935769761
    One-Electron Energy =                -893.3352209290121664
    Two-Electron Energy =                 347.0800970771550169
    DFT Exchange-Correlation Energy =       0.0000000000000000
    Empirical Dispersion Energy =           0.0000000000000000
    PCM Polarization Energy =               0.0000000000000000
    EFP Energy =                            0.0000000000000000
    Total Energy =                       -305.8782026582801450
    Molecular point group: c1
  Basis Set: 6-31G*
  Basis Set:

  -Total Gradient:
     Atom            X                  Y                   Z
    ------   -----------------  -----------------  -----------------
       1       -0.000003023104    -0.000005089418     0.000000823034
       2       -0.000048112062     0.000116990594     0.000442069104
       3        0.000112815298    -0.000229529215    -0.000553084000
       4       -0.000222367100     0.000525389444    -0.000199415354
       5       -0.000015290485    -0.000002339125    -0.000004023075
       6       -0.000002969289    -0.000002998662     0.000046716140
       7        0.000178918537    -0.000419616602     0.000292706406
       8        0.000000567133     0.000010930796    -0.000002873563
       9       -0.000001466747    -0.000001469389    -0.000022950331
      10        0.000001028169     0.000003468620     0.000001875373
      11       -0.000004802121     0.000004620054     0.000000850567
      12       -0.000001364425    -0.000008729263     0.000000497088
      13        0.000004141115    -0.000000620665    -0.000007037332
      14        0.000001925080     0.000008992830     0.000003845942

  **** Optimization is complete! (in 7 steps) ****
    Final optimized geometry and variables:
    Molecular point group: c1

    Geometry (in Angstrom), charge = 0, multiplicity = 1:

    H            2.055958763182     1.530332992424    -0.248712405360
    O            1.144497389624     1.254024873634    -0.264920880261
    C            1.108726457806    -0.045606575798     0.015866095322
    C           -0.280105730021    -0.639897541255     0.007123556003
    O            2.096351826018    -0.669121127206     0.236804895657
    C           -1.448275465305     0.345760714156     0.005867880544
    H           -0.323922295875    -1.286511834403    -0.866017242334
    H           -0.328197206451    -1.301873105472     0.865082966509
    C           -2.794886153189    -0.376440337582     0.022706773618
    H           -1.385173123168     0.984881776247    -0.867624981472
    H           -1.373514975385     0.999157294102     0.869557782805
    H           -2.909647009736    -1.017019310149    -0.847130578183
    H           -3.614882569766     0.334029618297     0.019964736897
    H           -2.898897042232    -0.998367237118     0.907133448430

  Mulliken Charges: (a.u.)
   Center  Symbol    Alpha    Beta     Spin     Total
       1     H     0.26717  0.26717  0.00000  0.46566
       2     O     4.34820  4.34820  0.00000 -0.69640
       3     C     2.62232  2.62232  0.00000  0.75535
       4     C     3.21230  3.21230  0.00000 -0.42461
       5     O     4.28258  4.28258  0.00000 -0.56516
       6     C     3.15349  3.15349  0.00000 -0.30699
       7     H     0.39714  0.39714  0.00000  0.20572
       8     H     0.39596  0.39596  0.00000  0.20808
       9     C     3.24324  3.24324  0.00000 -0.48648
      10     H     0.40968  0.40968  0.00000  0.18065
      11     H     0.41386  0.41386  0.00000  0.17227
      12     H     0.41996  0.41996  0.00000  0.16008
      13     H     0.41456  0.41456  0.00000  0.17089
      14     H     0.41953  0.41953  0.00000  0.16094

   Total alpha = 24.00000, Total beta = 24.00000, Total charge =  0.00000
