  ==> Input File <==

--------------------------------------------------------------------------
set {
	reference rhf
	basis 6-31G*
}

set_num_threads( 4 )
memory 2 gb

molecule MOL {
0 1

H	 3.006239	 -0.854462	 -1.463803
O	 2.091166	 -1.086716	 -1.536643
C	 1.324582	 -0.281817	 -0.769259
C	 1.860684	 0.738297	 0.006154
C	 -0.041682	 -0.502579	 -0.773572
H	 2.924212	 0.908419	 0.008082
C	 1.031055	 1.536234	 0.776012
H	 -0.457072	 -1.290192	 -1.372063
C	 -0.865228	 0.300799	 0.000000
H	 1.457493	 2.322572	 1.372000
C	 -0.335524	 1.322712	 0.777740
C	 -2.333960	 0.069074	 0.000000
H	 -0.981789	 1.941307	 1.374973
O	 -2.847347	 -1.003763	 0.000000
H	 -2.943845	 0.977528	 0.000000

	symmetry c1
}
set optking {
	frozen_dihedral = ("
		11 9 12 14
	")
}

ee = optimize('scf')
oeprop('DIPOLE', 'QUADRUPOLE', 'MULLIKEN_CHARGES')
f=open( 'psi4out.xyz', 'w' )
f.write( "15  " )
f.write( str(ee) + "\n" )
f.write( MOL.save_string_xyz() )
f.close()
--------------------------------------------------------------------------

    Molecular point group: c1
  Charge       = 0
  Multiplicity = 1
  Basis Set: 6-31G*
  Basis Set:
  @DF-RHF Final Energy:  -418.28110816655203
    Total Energy =                       -418.2811081665524853
    Molecular point group: c1
  Basis Set: 6-31G*
  Basis Set:
  Basis Set: 6-31G*
  Basis Set:
  @DF-RHF Final Energy:  -418.27929954444306
    Total Energy =                       -418.2792995444431199
  Basis Set: 6-31G*
  Basis Set:
  Basis Set: 6-31G*
  Basis Set:
  @DF-RHF Final Energy:  -418.28157275130621
    Total Energy =                       -418.2815727513061574
  Basis Set: 6-31G*
  Basis Set:
  Basis Set: 6-31G*
  Basis Set:
  @DF-RHF Final Energy:  -418.28170615483100
    Total Energy =                       -418.2817061548313404
  Basis Set: 6-31G*
  Basis Set:
  Basis Set: 6-31G*
  Basis Set:
  @DF-RHF Final Energy:  -418.28170754185811
    Total Energy =                       -418.2817075418580544
  Basis Set: 6-31G*
  Basis Set:
  Charge       = 0
  Multiplicity = 1
  Basis Set: 6-31G*
  Basis Set:

    Orbital Energies (a.u.)
    -----------------------

    Doubly Occupied:

       1A    -20.601804     2A    -20.567519     3A    -11.333855
       4A    -11.312766     5A    -11.253637     6A    -11.252812
       7A    -11.247114     8A    -11.244411     9A    -11.239468
      10A     -1.421569    11A     -1.407404    12A     -1.168871
      13A     -1.048129    14A     -1.026070    15A     -0.899530
      16A     -0.844532    17A     -0.814612    18A     -0.736441
      19A     -0.701440    20A     -0.683919    21A     -0.644112
      22A     -0.637914    23A     -0.612829    24A     -0.600788
      25A     -0.577576    26A     -0.546194    27A     -0.537752
      28A     -0.513682    29A     -0.487661    30A     -0.423790
      31A     -0.353091    32A     -0.324861

  @DF-RHF Final Energy:  -418.28170794233068

   => Energetics <=

    Nuclear Repulsion Energy =            403.0003669327189186
    One-Electron Energy =               -1368.4318483233373627
    Two-Electron Energy =                 547.1497734482879878
    DFT Exchange-Correlation Energy =       0.0000000000000000
    Empirical Dispersion Energy =           0.0000000000000000
    PCM Polarization Energy =               0.0000000000000000
    EFP Energy =                            0.0000000000000000
    Total Energy =                       -418.2817079423305131
    Molecular point group: c1
  Basis Set: 6-31G*
  Basis Set:

  -Total Gradient:
     Atom            X                  Y                   Z
    ------   -----------------  -----------------  -----------------
       1       -0.000003699663     0.000018254047    -0.000015974708
       2        0.000001461292    -0.000018444985     0.000039570579
       3       -0.000012200617     0.000010268635    -0.000024383039
       4       -0.000006570179     0.000022536280    -0.000006770619
       5        0.000021064345     0.000004157855    -0.000022309853
       6        0.000002718528    -0.000006048564     0.000005333108
       7        0.000035848659    -0.000027161703     0.000007483679
       8       -0.000002247436     0.000004698730     0.000000967603
       9       -0.000973739334     0.004818656913    -0.002639425617
      10        0.000002012467    -0.000002279901    -0.000002097909
      11        0.000711356384    -0.003386918643     0.003771604939
      12       -0.000015582219    -0.001214267878    -0.007483270246
      13       -0.000001119442    -0.000006515923     0.000006596039
      14        0.000241840433    -0.000206777749     0.006360628559
      15       -0.000001143217    -0.000010157112     0.000002047486

  **** Optimization is complete! (in 6 steps) ****
    Final optimized geometry and variables:
    Molecular point group: c1

    Geometry (in Angstrom), charge = 0, multiplicity = 1:

    H            3.017754841491    -0.951957996766    -1.228643007482
    O            2.099811652895    -1.163588578725    -1.325018466852
    C            1.334193692981    -0.352881434147    -0.563412874567
    C            1.871141364121     0.656542783860     0.223146127008
    C           -0.034836593858    -0.565105904933    -0.579784065887
    H            2.936307034134     0.814633409601     0.241871403687
    C            1.037506493589     1.457861591188     0.985955303224
    H           -0.442121292507    -1.366215408641    -1.166470521560
    C           -0.862309589041     0.260095177733     0.163394259519
    H            1.463971398448     2.229584030341     1.600749930838
    C           -0.332197222635     1.270311333959     0.956864620088
    C           -2.328135456354    -0.008022684676     0.210915591924
    H           -0.979654236690     1.898784838679     1.542531577017
    O           -2.805135217294    -1.096690131969     0.193714753257
    H           -2.962757058937     0.875138408698     0.329791669227

  Mulliken Charges: (a.u.)
   Center  Symbol    Alpha    Beta     Spin     Total
       1     H     0.27048  0.27048  0.00000  0.45903
       2     O     4.37594  4.37594  0.00000 -0.75188
       3     C     2.79445  2.79445  0.00000  0.41110
       4     C     3.13696  3.13696  0.00000 -0.27391
       5     C     3.11505  3.11505  0.00000 -0.23010
       6     H     0.39958  0.39958  0.00000  0.20085
       7     C     3.09251  3.09251  0.00000 -0.18502
       8     H     0.37522  0.37522  0.00000  0.24955
       9     C     3.03500  3.03500  0.00000 -0.06999
      10     H     0.39332  0.39332  0.00000  0.21336
      11     C     3.11699  3.11699  0.00000 -0.23398
      12     C     2.84342  2.84342  0.00000  0.31315
      13     H     0.39412  0.39412  0.00000  0.21176
      14     O     4.23392  4.23392  0.00000 -0.46785
      15     H     0.42304  0.42304  0.00000  0.15393

   Total alpha = 32.00000, Total beta = 32.00000, Total charge = -0.00000
