  ==> Input File <==

--------------------------------------------------------------------------
set {
	reference rhf
	basis 6-31G*
}

set_num_threads( 4 )
memory 2 gb

molecule MOL {
0 1

H	 -3.892951	 0.981613	 -0.358725
C	 -3.196921	 0.361773	 0.172313
C	 -2.076860	 -0.007332	 -0.404944
H	 -3.439953	 0.057760	 1.173024
O	 -1.180634	 -0.819263	 0.215062
H	 -1.811520	 0.292194	 -1.403480
C	 0.051604	 -1.018856	 -0.387932
C	 1.043764	 0.054862	 -0.001873
H	 -0.017620	 -1.041351	 -1.469781
H	 0.437898	 -1.966374	 -0.042284
F	 1.311673	 -0.037353	 1.292548
F	 2.185149	 -0.072731	 -0.658220
F	 0.579296	 1.264928	 -0.235111

	symmetry c1
}
set optking {
	frozen_dihedral = ("
		11 8 7 9
	")
}

ee = optimize('scf')
oeprop('DIPOLE', 'QUADRUPOLE', 'MULLIKEN_CHARGES')
f=open( 'psi4out.xyz', 'w' )
f.write( "13  " )
f.write( str(ee) + "\n" )
f.write( MOL.save_string_xyz() )
f.close()
--------------------------------------------------------------------------

    Molecular point group: c1
  Charge       = 0
  Multiplicity = 1
  Basis Set: 6-31G*
  Basis Set:
  @DF-RHF Final Energy:  -527.53511697287820
    Total Energy =                       -527.5351169728783134
    Molecular point group: c1
  Basis Set: 6-31G*
  Basis Set:
  Basis Set: 6-31G*
  Basis Set:
  @DF-RHF Final Energy:  -527.53557619211574
    Total Energy =                       -527.5355761921159683
  Basis Set: 6-31G*
  Basis Set:
  Basis Set: 6-31G*
  Basis Set:
  @DF-RHF Final Energy:  -527.53568075806174
    Total Energy =                       -527.5356807580615168
  Basis Set: 6-31G*
  Basis Set:
  Basis Set: 6-31G*
  Basis Set:
  @DF-RHF Final Energy:  -527.53569030201993
    Total Energy =                       -527.5356903020201571
  Basis Set: 6-31G*
  Basis Set:
  Basis Set: 6-31G*
  Basis Set:
  @DF-RHF Final Energy:  -527.53569171196841
    Total Energy =                       -527.5356917119681839
  Basis Set: 6-31G*
  Basis Set:
  Charge       = 0
  Multiplicity = 1
  Basis Set: 6-31G*
  Basis Set:

    Orbital Energies (a.u.)
    -----------------------

    Doubly Occupied:

       1A    -26.344477     2A    -26.344012     3A    -26.340676
       4A    -20.608729     5A    -11.503300     6A    -11.318913
       7A    -11.299608     8A    -11.215735     9A     -1.741851
      10A     -1.640076    11A     -1.638203    12A     -1.438607
      13A     -1.084333    14A     -1.016504    15A     -0.925489
      16A     -0.836831    17A     -0.831100    18A     -0.821384
      19A     -0.791342    20A     -0.722860    21A     -0.711782
      22A     -0.696223    23A     -0.675890    24A     -0.660159
      25A     -0.654903    26A     -0.643200    27A     -0.634056
      28A     -0.584568    29A     -0.562957    30A     -0.524351
      31A     -0.514214    32A     -0.351449

  @DF-RHF Final Energy:  -527.53569245312417

   => Energetics <=

    Nuclear Repulsion Energy =            413.2787346366587826
    One-Electron Energy =               -1550.2732861879230768
    Two-Electron Energy =                 609.4588590981395555
    DFT Exchange-Correlation Energy =       0.0000000000000000
    Empirical Dispersion Energy =           0.0000000000000000
    PCM Polarization Energy =               0.0000000000000000
    EFP Energy =                            0.0000000000000000
    Total Energy =                       -527.5356924531247387
    Molecular point group: c1
  Basis Set: 6-31G*
  Basis Set:

  -Total Gradient:
     Atom            X                  Y                   Z
    ------   -----------------  -----------------  -----------------
       1       -0.000010245641    -0.000014948613    -0.000006187520
       2        0.000007255253     0.000009600747     0.000004764628
       3       -0.000001239154     0.000095313541     0.000010956789
       4        0.000000822003     0.000006822271     0.000001740791
       5        0.000105377540    -0.000096391670    -0.000058094173
       6       -0.000012103638    -0.000018962484    -0.000000259232
       7       -0.001277600741     0.001161163393     0.000038834500
       8       -0.001302834155     0.000943127873     0.000613238370
       9        0.001298311756    -0.001215680393    -0.000090972906
      10       -0.000013923747     0.000016882305     0.000024721054
      11        0.001115030101    -0.000971868574    -0.000499499196
      12        0.000145610346    -0.000028146798    -0.000020602993
      13       -0.000054459914     0.000113088411    -0.000018640109

  **** Optimization is complete! (in 6 steps) ****
    Final optimized geometry and variables:
    Molecular point group: c1

    Geometry (in Angstrom), charge = 0, multiplicity = 1:

    H           -3.906338626739     0.976625691310    -0.366553568950
    C           -3.212077954083     0.351490822030     0.160578203801
    C           -2.081527770814     0.003835810434    -0.409377850948
    H           -3.465206836753     0.025224406223     1.151820213776
    O           -1.185520824156    -0.811577657843     0.206592370919
    H           -1.806083028649     0.325553372841    -1.398110280009
    C            0.046306286093    -1.007912534567    -0.396298274451
    C            1.045458683432     0.055450614323     0.002191781402
    H           -0.013874998856    -1.028766034048    -1.478751891219
    H            0.430180313287    -1.959099273077    -0.057433218115
    F            1.335936679019     0.004538236941     1.286436085464
    F            2.172585945472    -0.128639840204    -0.671529881192
    F            0.608364111563     1.272629379220    -0.268756518202

  Mulliken Charges: (a.u.)
   Center  Symbol    Alpha    Beta     Spin     Total
       1     H     0.40708  0.40708  0.00000  0.18584
       2     C     3.23612  3.23612  0.00000 -0.47223
       3     C     2.89422  2.89422  0.00000  0.21157
       4     H     0.40189  0.40189  0.00000  0.19623
       5     O     4.30165  4.30165  0.00000 -0.60330
       6     H     0.40693  0.40693  0.00000  0.18614
       7     C     3.06532  3.06532  0.00000 -0.13063
       8     C     2.45486  2.45486  0.00000  1.09028
       9     H     0.40533  0.40533  0.00000  0.18935
      10     H     0.38954  0.38954  0.00000  0.22092
      11     F     4.67510  4.67510  0.00000 -0.35020
      12     F     4.68347  4.68347  0.00000 -0.36694
      13     F     4.67851  4.67851  0.00000 -0.35702

   Total alpha = 32.00000, Total beta = 32.00000, Total charge =  0.00000
