                              Psi4 1.0.54 Driver

  ==> Input File <==

--------------------------------------------------------------------------
set {
	reference rhf
	basis cc-pvtz
}

set_num_threads( 4 )
memory 2 gb

molecule MOL {
0 1

H	 2.992060	 0.258191	 1.668512
C	 2.293826	 -0.209644	 0.982667
C	 0.995215	 0.583762	 0.931498
H	 2.102788	 -1.220141	 1.322258
H	 2.776644	 -0.269456	 0.015173
N	 0.000297	 0.000045	 0.046090
H	 0.584548	 0.618052	 1.931145
H	 1.204250	 1.620932	 0.654886
C	 -1.359159	 0.315706	 0.454404
C	 0.247313	 0.316452	 -1.351549
C	 -2.416729	 -0.286720	 -0.460525
H	 -1.478729	 1.390261	 0.442008
H	 -1.539692	 0.003361	 1.486761
C	 -0.286914	 -0.739059	 -2.310161
H	 1.315374	 0.394204	 -1.500745
H	 -0.165995	 1.295499	 -1.609534
H	 -2.285276	 0.073129	 -1.473515
H	 -2.371743	 -1.368476	 -0.483209
H	 -3.408658	 -0.007405	 -0.121593
H	 0.171013	 -1.698680	 -2.104404
H	 -1.360345	 -0.858961	 -2.231763
H	 -0.062430	 -0.462699	 -3.334878

	symmetry c1
}
set optking {
	frozen_dihedral = ("
		3 6 9 11
	")
}

ee,wfn = optimize('scf', return_wfn=True)
oeprop( wfn, 'DIPOLE', 'QUADRUPOLE', 'MULLIKEN_CHARGES')
f=open( 'psi4out.xyz', 'w' )
f.write( "22  " )
f.write( str(ee) + "\n" )
f.write( MOL.save_string_xyz() )
f.close()
--------------------------------------------------------------------------

    Molecular point group: c1
  Charge       = 0
  Multiplicity = 1
  Basis Set: CC-PVTZ
  Basis Set:
  @DF-RHF Final Energy:  -290.45607078650642
    Total Energy =                       -290.4560707865064160
    Molecular point group: c1
  Basis Set: CC-PVTZ
  Basis Set:
  Basis Set: CC-PVTZ
  Basis Set:
  @DF-RHF Final Energy:  -290.46820525702606
    Total Energy =                       -290.4682052570259430
  Basis Set: CC-PVTZ
  Basis Set:
  Basis Set: CC-PVTZ
  Basis Set:
  @DF-RHF Final Energy:  -290.45638978362064
    Total Energy =                       -290.4563897836204092
  Basis Set: CC-PVTZ
  Basis Set:
  Basis Set: CC-PVTZ
  Basis Set:
  @DF-RHF Final Energy:  -290.47234134881938
    Total Energy =                       -290.4723413488194410
  Basis Set: CC-PVTZ
  Basis Set:
  @DF-RHF Final Energy:  -290.47302495740155
    Total Energy =                       -290.4730249574018330
  @DF-RHF Final Energy:  -290.47325177036782
    Total Energy =                       -290.4732517703681083
  @DF-RHF Final Energy:  -290.47335514353290
    Total Energy =                       -290.4733551435326717
  Basis Set: CC-PVTZ
  Basis Set:
  @DF-RHF Final Energy:  -290.47340202128908
    Total Energy =                       -290.4734020212889618
  Basis Set: CC-PVTZ
  Basis Set:
  Basis Set: CC-PVTZ
  Basis Set:
  @DF-RHF Final Energy:  -290.47343530291005
    Total Energy =                       -290.4734353029098202
  Basis Set: CC-PVTZ
  Basis Set:
  Basis Set: CC-PVTZ
  Basis Set:
  @DF-RHF Final Energy:  -290.47344209621372
    Total Energy =                       -290.4734420962136028
  Basis Set: CC-PVTZ
  Basis Set:
  Charge       = 0
  Multiplicity = 1
  Basis Set: CC-PVTZ
  Basis Set:

    Orbital Energies (a.u.)
    -----------------------

    Doubly Occupied:

       1A    -15.533754     2A    -11.239953     3A    -11.238792
       4A    -11.237713     5A    -11.206689     6A    -11.204096
       7A    -11.200917     8A     -1.224633     9A     -1.028320
      10A     -1.019434    11A     -0.960541    12A     -0.856702
      13A     -0.831921    14A     -0.774505    15A     -0.662034
      16A     -0.641930    17A     -0.613938    18A     -0.598076
      19A     -0.569574    20A     -0.557609    21A     -0.540589
      22A     -0.532473    23A     -0.513220    24A     -0.499178
      25A     -0.487404    26A     -0.478544    27A     -0.467324
      28A     -0.463131    29A     -0.344053

  @DF-RHF Final Energy:  -290.47344289995323

   => Energetics <=

    Nuclear Repulsion Energy =            339.2912505411626967
    One-Electron Energy =               -1064.4752906423732384
    Two-Electron Energy =                 434.7105972012573147
    DFT Exchange-Correlation Energy =       0.0000000000000000
    Empirical Dispersion Energy =           0.0000000000000000
    PCM Polarization Energy =               0.0000000000000000
    EFP Energy =                            0.0000000000000000
    Total Energy =                       -290.4734428999531701
    Molecular point group: c1
  Basis Set: CC-PVTZ
  Basis Set:

  -Total Gradient:
     Atom            X                  Y                   Z
    ------   -----------------  -----------------  -----------------
       1       -0.000014168447     0.000000831874    -0.000000290954
       2        0.000007557384     0.000000982472    -0.000023800248
       3       -0.000545227729     0.003071072401    -0.001223118191
       4        0.000002265079     0.000001721464    -0.000005829536
       5        0.000002271425    -0.000012264786     0.000016380815
       6        0.000476974661    -0.002812883094     0.001204276813
       7       -0.000011872662     0.000005831575    -0.000007351222
       8        0.000000922659     0.000008029035     0.000007007430
       9        0.000565240159    -0.003378646514     0.001379005842
      10        0.000056988855     0.000033945866    -0.000118241050
      11       -0.000510987828     0.003079591112    -0.001214105565
      12       -0.000000824329     0.000008878569    -0.000004253766
      13       -0.000004475878     0.000006104785    -0.000014217610
      14       -0.000005312230     0.000003550773     0.000021466691
      15       -0.000025169004     0.000010179058    -0.000014410941
      16        0.000023419544    -0.000010341670    -0.000003138011
      17       -0.000007954290    -0.000033805104     0.000039552809
      18       -0.000008236098     0.000008926762    -0.000009829984
      19        0.000016120585     0.000000120425    -0.000029451997
      20        0.000003172917     0.000010711930     0.000008555045
      21       -0.000008439332    -0.000008258647    -0.000012293580
      22       -0.000012265441     0.000005721716     0.000004087206

  **** Optimization is complete! (in 11 steps) ****
    Final optimized geometry and variables:
    Molecular point group: c1

    Geometry (in Angstrom), charge = 0, multiplicity = 1:

    H            3.405142503027     0.198334313053     0.987069159816
    C            2.559473350880    -0.160492342588     0.410444066230
    C            1.264153168960     0.410826485503     0.970329732512
    H            2.544031714523    -1.242334461285     0.459873388746
    H            2.723898098625     0.124187807955    -0.621469108185
    N            0.078459563186    -0.060950234457     0.272796565708
    H            1.184347750048     0.104171565719     2.006175450049
    H            1.311813683559     1.503373344375     0.977298790882
    C           -1.095685051225     0.079116161507     1.121030078578
    C           -0.061954876839     0.557949920619    -1.045199197300
    C           -2.405797627018    -0.383218095226     0.499726515963
    H           -1.218999495492     1.119830922409     1.441386942582
    H           -0.919994796207    -0.500733227656     2.018811206072
    C           -0.322328625233    -0.443300156990    -2.163631564633
    H            0.848577320480     1.092853157885    -1.280669173105
    H           -0.844464485743     1.313925990327    -1.033902982106
    H           -2.692229513179     0.209315371377    -0.358464172144
    H           -2.348201971935    -1.420977529283     0.194077107607
    H           -3.197280708996    -0.293021085484     1.234956789424
    H            0.487333948315    -1.160655943910    -2.220421211203
    H           -1.239971415706    -0.993836803220    -2.007857950566
    H           -0.394260992391     0.067519263864    -3.118905298225

  Mulliken Charges: (a.u.)
   Center  Symbol    Alpha    Beta     Spin     Total
       1     H     0.45131  0.45131  0.00000  0.09739
       2     C     3.14378  3.14378  0.00000 -0.28756
       3     C     3.03746  3.03746  0.00000 -0.07491
       4     H     0.45129  0.45129  0.00000  0.09742
       5     H     0.45581  0.45581  0.00000  0.08839
       6     N     3.61860  3.61860  0.00000 -0.23719
       7     H     0.45432  0.45432  0.00000  0.09136
       8     H     0.46693  0.46693  0.00000  0.06613
       9     C     3.03161  3.03161  0.00000 -0.06321
      10     C     3.06436  3.06436  0.00000 -0.12873
      11     C     3.15832  3.15832  0.00000 -0.31663
      12     H     0.47165  0.47165  0.00000  0.05670
      13     H     0.45561  0.45561  0.00000  0.08878
      14     C     3.13233  3.13233  0.00000 -0.26466
      15     H     0.44535  0.44535  0.00000  0.10930
      16     H     0.45326  0.45326  0.00000  0.09348
      17     H     0.45191  0.45191  0.00000  0.09618
      18     H     0.44975  0.44975  0.00000  0.10050
      19     H     0.44470  0.44470  0.00000  0.11060
      20     H     0.45199  0.45199  0.00000  0.09602
      21     H     0.45271  0.45271  0.00000  0.09458
      22     H     0.45696  0.45696  0.00000  0.08608

   Total alpha = 29.00000, Total beta = 29.00000, Total charge =  0.00000

*** Psi4 exiting successfully. Buy a developer a beer!
