                              Psi4 1.0.54 Driver

  ==> Input File <==

--------------------------------------------------------------------------
set {
	reference rhf
	basis cc-pvtz
}

set_num_threads( 4 )
memory 2 gb

molecule MOL {
0 1

O	 -2.071633	 -1.227563	 -0.223463
C	 -1.652164	 -0.152425	 0.058082
C	 -0.327811	 0.006324	 0.778296
C	 -2.402515	 1.108629	 -0.298924
C	 -0.115522	 1.456267	 1.229986
H	 -0.285169	 -0.656133	 1.636467
H	 0.456399	 -0.278334	 0.088496
C	 1.217007	 1.661622	 1.944426
H	 -0.924908	 1.758280	 1.889817
H	 -0.167235	 2.101959	 0.360060
C	 1.438078	 3.104796	 2.384358
H	 1.265767	 1.008170	 2.811113
H	 2.025030	 1.356868	 1.285819
H	 0.663956	 3.427854	 3.072400
H	 1.426235	 3.778571	 1.534501
H	 2.392867	 3.219084	 2.884075
H	 -3.240910	 0.874416	 -0.936711
H	 -1.747554	 1.818823	 -0.790984
H	 -2.760419	 1.579708	 0.610998

	symmetry c1
}
set optking {
	frozen_dihedral = ("
		5 3 2 4
	")
}

ee,wfn = optimize('scf', return_wfn=True)
oeprop( wfn, 'DIPOLE', 'QUADRUPOLE', 'MULLIKEN_CHARGES')
f=open( 'psi4out.xyz', 'w' )
f.write( "19  " )
f.write( str(ee) + "\n" )
f.write( MOL.save_string_xyz() )
f.close()
--------------------------------------------------------------------------

    Molecular point group: c1
  Charge       = 0
  Multiplicity = 1
  Basis Set: CC-PVTZ
  Basis Set:
  @DF-RHF Final Energy:  -309.16941809727456
    Total Energy =                       -309.1694180972747290
    Molecular point group: c1
  Basis Set: CC-PVTZ
  Basis Set:
  Basis Set: CC-PVTZ
  Basis Set:
  @DF-RHF Final Energy:  -309.16890426683722
    Total Energy =                       -309.1689042668371599
  Basis Set: CC-PVTZ
  Basis Set:
  Basis Set: CC-PVTZ
  Basis Set:
  @DF-RHF Final Energy:  -309.17427465680265
    Total Energy =                       -309.1742746568029361
  Basis Set: CC-PVTZ
  Basis Set:
  Basis Set: CC-PVTZ
  Basis Set:
  @DF-RHF Final Energy:  -309.17430320019452
    Total Energy =                       -309.1743032001945153
  Basis Set: CC-PVTZ
  Basis Set:
  @DF-RHF Final Energy:  -309.17459907662447
    Total Energy =                       -309.1745990766243040
  @DF-RHF Final Energy:  -309.17471987435749
    Total Energy =                       -309.1747198743573222
  Basis Set: CC-PVTZ
  Basis Set:
  @DF-RHF Final Energy:  -309.17466340944685
    Total Energy =                       -309.1746634094468504
  Basis Set: CC-PVTZ
  Basis Set:
  Basis Set: CC-PVTZ
  Basis Set:
  @DF-RHF Final Energy:  -309.17472885599949
    Total Energy =                       -309.1747288559995468
  Basis Set: CC-PVTZ
  Basis Set:
  Basis Set: CC-PVTZ
  Basis Set:
  @DF-RHF Final Energy:  -309.17473319969912
    Total Energy =                       -309.1747331996987782
  Basis Set: CC-PVTZ
  Basis Set:
  Charge       = 0
  Multiplicity = 1
  Basis Set: CC-PVTZ
  Basis Set:

    Orbital Energies (a.u.)
    -----------------------

    Doubly Occupied:

       1A    -20.534583     2A    -11.320973     3A    -11.229430
       4A    -11.228590     5A    -11.226544     6A    -11.224762
       7A    -11.215385     8A     -1.396268     9A     -1.095189
      10A     -1.028567    11A     -0.984030    12A     -0.896394
      13A     -0.810732    14A     -0.732678    15A     -0.663928
      16A     -0.650000    17A     -0.630116    18A     -0.613205
      19A     -0.587450    20A     -0.572790    21A     -0.553988
      22A     -0.530293    23A     -0.527307    24A     -0.491601
      25A     -0.487408    26A     -0.482660    27A     -0.469596
      28A     -0.398973

  @DF-RHF Final Energy:  -309.17473394743610

   => Energetics <=

    Nuclear Repulsion Energy =            301.3343225264860052
    One-Electron Energy =               -1015.8512355523322412
    Two-Electron Energy =                 405.3421790784103109
    DFT Exchange-Correlation Energy =       0.0000000000000000
    Empirical Dispersion Energy =           0.0000000000000000
    PCM Polarization Energy =               0.0000000000000000
    EFP Energy =                            0.0000000000000000
    Total Energy =                       -309.1747339474358682
    Molecular point group: c1
  Basis Set: CC-PVTZ
  Basis Set:

  -Total Gradient:
     Atom            X                  Y                   Z
    ------   -----------------  -----------------  -----------------
       1        0.000016942161     0.000040836216     0.000019428744
       2        0.000720558936     0.000139616155    -0.001384227073
       3       -0.000695313316    -0.000335698283     0.001376736885
       4       -0.000356972432    -0.000036459246     0.000661293794
       5        0.000323384713     0.000217214024    -0.000692315584
       6        0.000002054003     0.000018361523    -0.000010696560
       7       -0.000001505111     0.000011182488    -0.000006529912
       8        0.000008697590    -0.000011859231     0.000000103761
       9        0.000011413822    -0.000006599778    -0.000016934176
      10       -0.000006380283    -0.000028352164     0.000019770851
      11        0.000000839272    -0.000000753174     0.000003601979
      12        0.000003238953     0.000019399071    -0.000018232246
      13       -0.000014503650     0.000002723559     0.000018403887
      14        0.000020401036    -0.000005169613    -0.000017758961
      15        0.000001638994    -0.000015828274     0.000020196185
      16       -0.000026554103     0.000001773636    -0.000013663665
      17        0.000005863524     0.000004631334     0.000005130986
      18       -0.000016393340    -0.000009407188     0.000022876232
      19        0.000002589232    -0.000005611057     0.000012814874

  **** Optimization is complete! (in 10 steps) ****
    Final optimized geometry and variables:
    Molecular point group: c1

    Geometry (in Angstrom), charge = 0, multiplicity = 1:

    O           -1.354878640856    -2.159809369799    -1.098915690815
    C           -1.083823989334    -1.033660203463    -0.834376511330
    C            0.212616626790    -0.732841045383    -0.093705278701
    C           -2.002399377503     0.097203439801    -1.232969067476
    C            0.436011912480     0.683228322879     0.429064237089
    H            0.270396834146    -1.452068699072     0.714876947101
    H            1.009134869972    -0.999164170577    -0.783169150393
    C            1.778488041428     0.829193709642     1.141482211653
    H           -0.359037004893     0.955054459830     1.117632856847
    H            0.391791241875     1.396071658408    -0.388380981528
    C            2.020481679038     2.236880501001     1.674858807926
    H            1.827931858112     0.118825795590     1.961634184945
    H            2.578091653024     0.559815298276     0.457259740650
    H            1.255391600816     2.522145606443     2.389073518832
    H            2.011427282865     2.967021782889     0.872519936489
    H            2.979924513261     2.306476925555     2.173587094062
    H           -2.854088757394    -0.306650204573    -1.757715986132
    H           -1.481486496719     0.802538856153    -1.870555877443
    H           -2.336227977514     0.641414809204    -0.357394869941

  Mulliken Charges: (a.u.)
   Center  Symbol    Alpha    Beta     Spin     Total
       1     O     4.17660  4.17660  0.00000 -0.35319
       2     C     2.86108  2.86108  0.00000  0.27784
       3     C     3.09899  3.09899  0.00000 -0.19799
       4     C     3.16332  3.16332  0.00000 -0.32663
       5     C     3.09882  3.09882  0.00000 -0.19764
       6     H     0.43664  0.43664  0.00000  0.12671
       7     H     0.43976  0.43976  0.00000  0.12047
       8     C     3.08593  3.08593  0.00000 -0.17185
       9     H     0.45041  0.45041  0.00000  0.09917
      10     H     0.45126  0.45126  0.00000  0.09748
      11     C     3.14950  3.14950  0.00000 -0.29899
      12     H     0.45152  0.45152  0.00000  0.09695
      13     H     0.45248  0.45248  0.00000  0.09504
      14     H     0.45450  0.45450  0.00000  0.09100
      15     H     0.45482  0.45482  0.00000  0.09036
      16     H     0.44637  0.44637  0.00000  0.10726
      17     H     0.43196  0.43196  0.00000  0.13609
      18     H     0.44782  0.44782  0.00000  0.10436
      19     H     0.44822  0.44822  0.00000  0.10356

   Total alpha = 28.00000, Total beta = 28.00000, Total charge = -0.00000

*** Psi4 exiting successfully. Buy a developer a beer!
