  ==> Input File <==

--------------------------------------------------------------------------
set {
	reference rhf
	basis 6-31G*
}

set_num_threads( 4 )
memory 2 gb

molecule MOL {
0 1

H	 -3.018398	 0.189622	 0.544023
O	 -2.347518	 -0.290803	 0.079804
C	 -1.184022	 0.487508	 -0.006784
C	 0.062599	 -0.378592	 0.031606
H	 -1.176523	 1.099369	 -0.904519
H	 -1.187323	 1.153111	 0.844927
O	 1.171513	 0.459272	 -0.058250
H	 0.050699	 -1.089204	 -0.797170
H	 0.078739	 -0.954914	 0.954740
C	 2.397842	 -0.198080	 -0.002151
H	 2.508049	 -0.905315	 -0.822092
H	 3.173794	 0.550865	 -0.078850
H	 2.517602	 -0.735921	 0.936026

	symmetry c1
}
set optking {
	frozen_dihedral = ("
		1 2 3 5
	")
}

ee = optimize('scf')
oeprop('DIPOLE', 'QUADRUPOLE', 'MULLIKEN_CHARGES')
f=open( 'psi4out.xyz', 'w' )
f.write( "13  " )
f.write( str(ee) + "\n" )
f.write( MOL.save_string_xyz() )
f.close()
--------------------------------------------------------------------------

    Molecular point group: c1
  Charge       = 0
  Multiplicity = 1
  Basis Set: 6-31G*
  Basis Set:
  @DF-RHF Final Energy:  -267.94870183283535
    Total Energy =                       -267.9487018328351269
    Molecular point group: c1
  Basis Set: 6-31G*
  Basis Set:
  Basis Set: 6-31G*
  Basis Set:
  @DF-RHF Final Energy:  -267.95002704435728
    Total Energy =                       -267.9500270443570571
  Basis Set: 6-31G*
  Basis Set:
  Basis Set: 6-31G*
  Basis Set:
  @DF-RHF Final Energy:  -267.95031283397770
    Total Energy =                       -267.9503128339775913
  Basis Set: 6-31G*
  Basis Set:
  Basis Set: 6-31G*
  Basis Set:
  @DF-RHF Final Energy:  -267.95031946660976
    Total Energy =                       -267.9503194666096419
  Basis Set: 6-31G*
  Basis Set:
  Charge       = 0
  Multiplicity = 1
  Basis Set: 6-31G*
  Basis Set:

    Orbital Energies (a.u.)
    -----------------------

    Doubly Occupied:

       1A    -20.558583     2A    -20.558386     3A    -11.268903
       4A    -11.267103     5A    -11.266003     6A     -1.385014
       7A     -1.363331     8A     -1.017883     9A     -0.911028
      10A     -0.831416    11A     -0.710336    12A     -0.681417
      13A     -0.641292    14A     -0.637737    15A     -0.613590
      16A     -0.550822    17A     -0.540580    18A     -0.494385
      19A     -0.471987    20A     -0.439587    21A     -0.418085

  @DF-RHF Final Energy:  -267.95032053872933

   => Energetics <=

    Nuclear Repulsion Energy =            190.4036800468416857
    One-Electron Energy =                -743.4530696866340804
    Two-Electron Energy =                 285.0990691010629234
    DFT Exchange-Correlation Energy =       0.0000000000000000
    Empirical Dispersion Energy =           0.0000000000000000
    PCM Polarization Energy =               0.0000000000000000
    EFP Energy =                            0.0000000000000000
    Total Energy =                       -267.9503205387294429
    Molecular point group: c1
  Basis Set: 6-31G*
  Basis Set:

  -Total Gradient:
     Atom            X                  Y                   Z
    ------   -----------------  -----------------  -----------------
       1        0.000420829608    -0.000503709451     0.001285463331
       2       -0.000317847866     0.000404394430    -0.001747045258
       3       -0.000789851477     0.000999330838     0.001048844925
       4       -0.000002586813    -0.000004334584    -0.000012833599
       5        0.000674940759    -0.000929203707    -0.000563166009
       6        0.000010804540    -0.000008822719    -0.000005623395
       7        0.000033683229     0.000021751988    -0.000010395208
       8       -0.000002380001     0.000002285639    -0.000002694159
       9       -0.000024164076     0.000011080029     0.000003444667
      10        0.000001588056     0.000008369098     0.000006344288
      11       -0.000007161186     0.000002024075     0.000000549901
      12        0.000002736658    -0.000000783795    -0.000001072360
      13       -0.000000591426    -0.000002381841    -0.000001817124

  **** Optimization is complete! (in 5 steps) ****
    Final optimized geometry and variables:
    Molecular point group: c1

    Geometry (in Angstrom), charge = 0, multiplicity = 1:

    H           -3.028576917354     0.105003006891     0.442293085758
    O           -2.301938788004    -0.339794545371     0.032805351593
    C           -1.179748686141     0.504089300199    -0.006511342190
    C            0.054128484924    -0.372991661506     0.040051955294
    H           -1.164783982125     1.087790197977    -0.921910849176
    H           -1.163853454884     1.190742969165     0.834339761804
    O            1.171213064046     0.456160625813    -0.055572763121
    H            0.025045153033    -1.085039730288    -0.782574813734
    H            0.066991318520    -0.940201983196     0.968819691067
    C            2.389057065959    -0.218390727477    -0.039496938773
    H            2.470504694969    -0.911248088517    -0.874627799771
    H            3.173727069824     0.521302368180    -0.119674525972
    H            2.522857603535    -0.775779028211     0.885591742198

  Mulliken Charges: (a.u.)
   Center  Symbol    Alpha    Beta     Spin     Total
       1     H     0.27771  0.27771  0.00000  0.44458
       2     O     4.37493  4.37493  0.00000 -0.74986
       3     C     3.00363  3.00363  0.00000 -0.00725
       4     C     2.99156  2.99156  0.00000  0.01688
       5     H     0.42038  0.42038  0.00000  0.15925
       6     H     0.42432  0.42432  0.00000  0.15137
       7     O     4.30957  4.30957  0.00000 -0.61915
       8     H     0.42324  0.42324  0.00000  0.15351
       9     H     0.42636  0.42636  0.00000  0.14727
      10     C     3.07949  3.07949  0.00000 -0.15899
      11     H     0.42820  0.42820  0.00000  0.14361
      12     H     0.41175  0.41175  0.00000  0.17649
      13     H     0.42885  0.42885  0.00000  0.14230

   Total alpha = 21.00000, Total beta = 21.00000, Total charge = -0.00000
