  ==> Input File <==

--------------------------------------------------------------------------
set {
	reference rhf
	basis 6-31G*
}

set_num_threads( 4 )
memory 2 gb

molecule MOL {
0 1

O	 3.225979	 0.970355	 -0.599647
C	 2.701189	 0.057885	 -0.047330
C	 1.245376	 -0.013843	 0.345420
O	 3.347903	 -1.046386	 0.304773
C	 0.455112	 1.231400	 -0.050772
H	 0.838542	 -0.913825	 -0.103701
H	 1.208210	 -0.175333	 1.419774
C	 -0.998893	 1.219485	 0.433193
H	 0.482531	 1.345121	 -1.130325
H	 0.957290	 2.103070	 0.354729
C	 -1.883438	 0.145884	 -0.207175
H	 -1.431207	 2.195402	 0.224832
H	 -1.019646	 1.105716	 1.516076
C	 -3.347647	 0.245583	 0.225435
H	 -1.822183	 0.231698	 -1.291012
H	 -1.510341	 -0.844814	 0.042401
C	 -4.057349	 -1.108511	 0.279146
H	 -3.881044	 0.902997	 -0.459057
H	 -3.402349	 0.717989	 1.204995
C	 -5.520122	 -0.999768	 0.708298
H	 -4.002755	 -1.582401	 -0.698653
H	 -3.528155	 -1.765592	 0.966154
H	 -5.995674	 -1.975289	 0.736857
H	 -6.085056	 -0.376537	 0.020817
H	 -5.606717	 -0.560570	 1.698187
C	 4.728119	 -1.109107	 -0.004993
H	 4.882018	 -1.033965	 -1.071845
H	 5.068212	 -2.067527	 0.355250
H	 5.265056	 -0.311663	 0.488280

	symmetry c1
}
set optking {
	frozen_dihedral = ("
		17 14 11 15
	")
}

ee = optimize('scf')
oeprop('DIPOLE', 'QUADRUPOLE', 'MULLIKEN_CHARGES')
f=open( 'psi4out.xyz', 'w' )
f.write( "29  " )
f.write( str(ee) + "\n" )
f.write( MOL.save_string_xyz() )
f.close()
--------------------------------------------------------------------------

    Molecular point group: c1
  Charge       = 0
  Multiplicity = 1
  Basis Set: 6-31G*
  Basis Set:
  @DF-RHF Final Energy:  -501.04110018849860
    Total Energy =                       -501.0411001884989446
    Molecular point group: c1
  Basis Set: 6-31G*
  Basis Set:
  Basis Set: 6-31G*
  Basis Set:
  @DF-RHF Final Energy:  -501.04128272380683
    Total Energy =                       -501.0412827238075124
  Basis Set: 6-31G*
  Basis Set:
  Basis Set: 6-31G*
  Basis Set:
  @DF-RHF Final Energy:  -501.04136933224424
    Total Energy =                       -501.0413693322435620
  Basis Set: 6-31G*
  Basis Set:
  Basis Set: 6-31G*
  Basis Set:
  @DF-RHF Final Energy:  -501.04137361911194
    Total Energy =                       -501.0413736191109138
  Basis Set: 6-31G*
  Basis Set:
  Basis Set: 6-31G*
  Basis Set:
  @DF-RHF Final Energy:  -501.04137251883992
    Total Energy =                       -501.0413725188396938
  Basis Set: 6-31G*
  Basis Set:
  Basis Set: 6-31G*
  Basis Set:
  @DF-RHF Final Energy:  -501.04137006895837
    Total Energy =                       -501.0413700689589405
  Basis Set: 6-31G*
  Basis Set:
  Basis Set: 6-31G*
  Basis Set:
  @DF-RHF Final Energy:  -501.04137460579022
    Total Energy =                       -501.0413746057906792
  Basis Set: 6-31G*
  Basis Set:
  Charge       = 0
  Multiplicity = 1
  Basis Set: 6-31G*
  Basis Set:

    Orbital Energies (a.u.)
    -----------------------

    Doubly Occupied:

       1A    -20.603349     2A    -20.545169     3A    -11.371979
       4A    -11.280645     5A    -11.234736     6A    -11.218840
       7A    -11.217576     8A    -11.216153     9A    -11.215890
      10A    -11.214343    11A    -11.209021    12A     -1.469042
      13A     -1.362485    14A     -1.097525    15A     -1.066293
      16A     -1.019376    17A     -0.976814    18A     -0.928053
      19A     -0.861964    20A     -0.800271    21A     -0.790214
      22A     -0.763774    23A     -0.700391    24A     -0.682279
      25A     -0.672110    26A     -0.646402    27A     -0.630022
      28A     -0.607208    29A     -0.594528    30A     -0.580726
      31A     -0.565736    32A     -0.551666    33A     -0.533055
      34A     -0.528157    35A     -0.518464    36A     -0.509443
      37A     -0.496344    38A     -0.477417    39A     -0.472184
      40A     -0.459446    41A     -0.458688    42A     -0.455541
      43A     -0.440598    44A     -0.434881

  @DF-RHF Final Energy:  -501.04137462210031

   => Energetics <=

    Nuclear Repulsion Energy =            610.7830985310171172
    One-Electron Energy =               -1892.6913509846672241
    Two-Electron Energy =                 780.8668778315491181
    DFT Exchange-Correlation Energy =       0.0000000000000000
    Empirical Dispersion Energy =           0.0000000000000000
    PCM Polarization Energy =               0.0000000000000000
    EFP Energy =                            0.0000000000000000
    Total Energy =                       -501.0413746221011024
    Molecular point group: c1
  Basis Set: 6-31G*
  Basis Set:

  -Total Gradient:
     Atom            X                  Y                   Z
    ------   -----------------  -----------------  -----------------
       1       -0.000002424522    -0.000003214899    -0.000005000802
       2        0.000005681540     0.000008535592     0.000016980187
       3       -0.000003867590    -0.000002200069    -0.000009145997
       4       -0.000001124773    -0.000002911589    -0.000005146382
       5        0.000001665142     0.000001344742    -0.000007071110
       6       -0.000001303914    -0.000001094659     0.000001600677
       7        0.000001591807     0.000001524442    -0.000001343877
       8       -0.000002334611    -0.000003541697    -0.000005571915
       9        0.000002598203     0.000002845948     0.000000390588
      10        0.000003340063    -0.000002654019     0.000000957541
      11       -0.000244250586    -0.005227691799     0.000796784220
      12       -0.000005520913    -0.000001549413     0.000003409058
      13        0.000001313691     0.000000196550    -0.000000014154
      14       -0.000981835371     0.001419099809    -0.004038261140
      15        0.000459852604     0.004129193341     0.000322088639
      16        0.000002554893    -0.000004066390     0.000002231111
      17        0.000768428158    -0.000311742601     0.002923022235
      18       -0.000001620540    -0.000000490458     0.000002519046
      19       -0.000005492632     0.000000090717    -0.000003824297
      20        0.000001962940    -0.000002798452     0.000012776401
      21        0.000000274263     0.000004198127    -0.000004242510
      22        0.000001110125    -0.000003099814    -0.000004394016
      23        0.000000748499    -0.000000562456     0.000005362458
      24        0.000001237268    -0.000003851286    -0.000002677478
      25       -0.000002303266     0.000004434466    -0.000001259292
      26       -0.000000182853    -0.000000094740    -0.000000198936
      27        0.000000222024    -0.000000039340    -0.000000033545
      28       -0.000000071286     0.000000004376    -0.000000046459
      29       -0.000000248368     0.000000135569     0.000000109751

  **** Optimization is complete! (in 8 steps) ****
    Final optimized geometry and variables:
    Molecular point group: c1

    Geometry (in Angstrom), charge = 0, multiplicity = 1:

    O            3.188543699818     1.035042528287    -0.741797188983
    C            2.678252638965     0.118658836574    -0.182424533873
    C            1.227040772237     0.033259937268     0.224301867947
    O            3.339329896744    -0.978302354682     0.165854811258
    C            0.420515984660     1.269900266810    -0.166106486197
    H            0.824699910038    -0.871282129291    -0.219828759966
    H            1.201640319167    -0.127148576043     1.299167008653
    C           -1.027832164843     1.242797140855     0.332514055300
    H            0.436056223624     1.381515473426    -1.246161994039
    H            0.917694937026     2.147623562223     0.232526305119
    C           -1.904687120052     0.146687387837    -0.284511534310
    H           -1.477897351592     2.209110529377     0.115511632536
    H           -1.037278076440     1.143215582838     1.416940701940
    C           -3.382582458061     0.279139084420     0.118690375516
    H           -1.817060637524     0.220624057826    -1.366579755611
    H           -1.533301694760    -0.833271855783     0.001848445021
    C           -4.125424005201    -1.057525545413     0.171989232395
    H           -3.888747432170     0.958391573315    -0.563174520723
    H           -3.446057559387     0.740537148362     1.102921152523
    C           -5.601831674144    -0.907603552711     0.535923406403
    H           -4.040123200175    -1.561109664562    -0.789207093248
    H           -3.637327964004    -1.703631635647     0.898269584831
    H           -6.096828867288    -1.872851804707     0.579751235478
    H           -6.126382677081    -0.299902676499    -0.195976016762
    H           -5.720053387158    -0.430994365774     1.505143077637
    C            4.717045973788    -1.027997650246    -0.157111360473
    H            4.859889464575    -0.953811278205    -1.225571944389
    H            5.070129449289    -1.982142187066     0.201964736610
    H            5.250729217343    -0.224103297963     0.329174700568

  Mulliken Charges: (a.u.)
   Center  Symbol    Alpha    Beta     Spin     Total
       1     O     4.28595  4.28595  0.00000 -0.57191
       2     C     2.60481  2.60481  0.00000  0.79039
       3     C     3.20977  3.20977  0.00000 -0.41953
       4     O     4.30746  4.30746  0.00000 -0.61492
       5     C     3.15415  3.15415  0.00000 -0.30830
       6     H     0.39874  0.39874  0.00000  0.20253
       7     H     0.40129  0.40129  0.00000  0.19741
       8     C     3.15836  3.15836  0.00000 -0.31673
       9     H     0.41324  0.41324  0.00000  0.17351
      10     H     0.40878  0.40878  0.00000  0.18244
      11     C     3.15618  3.15618  0.00000 -0.31236
      12     H     0.41797  0.41797  0.00000  0.16407
      13     H     0.42386  0.42386  0.00000  0.15228
      14     C     3.15186  3.15186  0.00000 -0.30373
      15     H     0.42124  0.42124  0.00000  0.15752
      16     H     0.42189  0.42189  0.00000  0.15623
      17     C     3.15264  3.15264  0.00000 -0.30527
      18     H     0.42107  0.42107  0.00000  0.15786
      19     H     0.42311  0.42311  0.00000  0.15378
      20     C     3.23980  3.23980  0.00000 -0.47961
      21     H     0.42294  0.42294  0.00000  0.15412
      22     H     0.42324  0.42324  0.00000  0.15352
      23     H     0.41924  0.41924  0.00000  0.16151
      24     H     0.42147  0.42147  0.00000  0.15705
      25     H     0.42180  0.42180  0.00000  0.15640
      26     C     3.09240  3.09240  0.00000 -0.18480
      27     H     0.40909  0.40909  0.00000  0.18182
      28     H     0.40852  0.40852  0.00000  0.18296
      29     H     0.40913  0.40913  0.00000  0.18174

   Total alpha = 44.00000, Total beta = 44.00000, Total charge = -0.00000
