  ==> Input File <==

--------------------------------------------------------------------------
set {
	reference rhf
	basis cc-pvtz
}

set_num_threads( 4 )
memory 2 gb

molecule MOL {
0 1

H	 -2.698799	 -0.000846	 0.036018
C	 -1.694291	 -0.000483	 0.434279
O	 -0.828718	 -0.000608	 -0.655022
H	 -1.576855	 0.881100	 1.056504
H	 -1.576401	 -0.881658	 1.057001
C	 0.557892	 0.000078	 -0.420099
C	 1.304545	 -0.979672	 -1.318359
C	 1.158874	 1.400441	 -0.465425
H	 0.636534	 -0.359999	 0.598124
H	 0.829559	 -1.952675	 -1.291686
H	 2.325871	 -1.090005	 -0.972721
H	 1.343093	 -0.644039	 -2.348140
H	 0.582925	 2.078019	 0.152810
H	 2.174957	 1.376635	 -0.088884
H	 1.193451	 1.799257	 -1.472545

	symmetry c1
}
set optking {
	frozen_dihedral = ("
		9 6 3 2
	")
}

ee = optimize('scf')
oeprop('DIPOLE', 'QUADRUPOLE', 'MULLIKEN_CHARGES')
f=open( 'psi4out.xyz', 'w' )
f.write( "15  " )
f.write( str(ee) + "\n" )
f.write( MOL.save_string_xyz() )
f.close()
--------------------------------------------------------------------------

    Molecular point group: c1
  Charge       = 0
  Multiplicity = 1
  Basis Set: CC-PVTZ
  Basis Set:
  @DF-RHF Final Energy:  -232.22553891423752
    Total Energy =                       -232.2255389142377453
    Molecular point group: c1
  Basis Set: CC-PVTZ
  Basis Set:
  Basis Set: CC-PVTZ
  Basis Set:
  @DF-RHF Final Energy:  -232.22870932936146
    Total Energy =                       -232.2287093293613793
  Basis Set: CC-PVTZ
  Basis Set:
  Basis Set: CC-PVTZ
  Basis Set:
  @DF-RHF Final Energy:  -232.22934961090860
    Total Energy =                       -232.2293496109087414
  Basis Set: CC-PVTZ
  Basis Set:
  Basis Set: CC-PVTZ
  Basis Set:
  @DF-RHF Final Energy:  -232.22937604378177
    Total Energy =                       -232.2293760437822243
  Basis Set: CC-PVTZ
  Basis Set:
  Basis Set: CC-PVTZ
  Basis Set:
  @DF-RHF Final Energy:  -232.22937910335995
    Total Energy =                       -232.2293791033596904
  Basis Set: CC-PVTZ
  Basis Set:
  Charge       = 0
  Multiplicity = 1
  Basis Set: CC-PVTZ
  Basis Set:

    Orbital Energies (a.u.)
    -----------------------

    Doubly Occupied:

       1A    -20.542834     2A    -11.272521     3A    -11.261896
       4A    -11.206076     5A    -11.205143     6A     -1.377345
       7A     -1.053623     8A     -0.938028     9A     -0.918202
      10A     -0.795689    11A     -0.671334    12A     -0.643261
      13A     -0.637488    14A     -0.582310    15A     -0.552420
      16A     -0.541267    17A     -0.535695    18A     -0.498290
      19A     -0.488962    20A     -0.458549    21A     -0.408106

  @DF-RHF Final Energy:  -232.22937923888708

   => Energetics <=

    Nuclear Repulsion Energy =            197.2325143826975591
    One-Electron Energy =                -705.7457187296020038
    Two-Electron Energy =                 276.2838251080174814
    DFT Exchange-Correlation Energy =       0.0000000000000000
    Empirical Dispersion Energy =           0.0000000000000000
    PCM Polarization Energy =               0.0000000000000000
    EFP Energy =                            0.0000000000000000
    Total Energy =                       -232.2293792388869633
    Molecular point group: c1
  Basis Set: CC-PVTZ
  Basis Set:

  -Total Gradient:
     Atom            X                  Y                   Z
    ------   -----------------  -----------------  -----------------
       1        0.000012224033     0.000000177853    -0.000011468120
       2       -0.000018072144    -0.001194802359     0.000017957550
       3        0.000028716511     0.002065783466     0.000144256148
       4        0.000000646191    -0.000004256279    -0.000007300922
       5        0.000000266167     0.000002907388    -0.000004749704
       6        0.000077723489    -0.002230707845    -0.000609288080
       7        0.000019259420    -0.000000808989    -0.000006935388
       8        0.000011278279     0.000001699268    -0.000000311207
       9       -0.000104415868     0.001365623435     0.000489829248
      10        0.000000757862    -0.000004839447     0.000002902134
      11       -0.000017581647     0.000006261394    -0.000001678446
      12        0.000003385147    -0.000000687028    -0.000009506417
      13       -0.000003407545     0.000000923489     0.000004653543
      14       -0.000012978799    -0.000006604679    -0.000005658957
      15        0.000002198905    -0.000000669666    -0.000002701382

  **** Optimization is complete! (in 6 steps) ****
    Final optimized geometry and variables:
    Molecular point group: c1

    Geometry (in Angstrom), charge = 0, multiplicity = 1:

    H           -2.768535088404    -0.035813306313     0.425955038813
    C           -1.770564095221    -0.071785209891     0.839054105781
    O           -0.874531988185    -0.080550150654    -0.222327273804
    H           -1.634328768309     0.794070369571     1.482953964007
    H           -1.678210684964    -0.969112473801     1.446537803729
    C            0.489280778635    -0.099526162774     0.118742734143
    C            1.194782889439    -1.064036344435    -0.817609256420
    C            1.064083307518     1.308401716214     0.039675318739
    H            0.595173558726    -0.455604191058     1.141428912997
    H            0.780429620713    -2.059576767661    -0.719444937593
    H            2.255724089362    -1.108073028591    -0.599033822951
    H            1.068571591948    -0.745315295588    -1.845692749665
    H            0.531045403112     1.981680853692     0.700472364006
    H            2.110364859680     1.315621656128     0.324539927354
    H            0.979310822172     1.690670076199    -0.970818090071

  Mulliken Charges: (a.u.)
   Center  Symbol    Alpha    Beta     Spin     Total
       1     H     0.44883  0.44883  0.00000  0.10235
       2     C     3.03375  3.03375  0.00000 -0.06750
       3     O     4.18698  4.18698  0.00000 -0.37397
       4     H     0.47193  0.47193  0.00000  0.05613
       5     H     0.46974  0.46974  0.00000  0.06052
       6     C     2.92029  2.92029  0.00000  0.15942
       7     C     3.13912  3.13912  0.00000 -0.27823
       8     C     3.14102  3.14102  0.00000 -0.28205
       9     H     0.46889  0.46889  0.00000  0.06221
      10     H     0.44951  0.44951  0.00000  0.10097
      11     H     0.45835  0.45835  0.00000  0.08330
      12     H     0.45216  0.45216  0.00000  0.09569
      13     H     0.45160  0.45160  0.00000  0.09681
      14     H     0.45506  0.45506  0.00000  0.08989
      15     H     0.45277  0.45277  0.00000  0.09446

   Total alpha = 21.00000, Total beta = 21.00000, Total charge =  0.00000
