  ==> Input File <==

--------------------------------------------------------------------------
set {
	reference rhf
	basis cc-pvtz
}

set_num_threads( 4 )
memory 2 gb

molecule MOL {
0 1

H	 -2.266619	 1.169943	 0.000098
O	 -1.438073	 1.611259	 0.000041
C	 -0.408657	 0.734701	 0.000005
C	 -0.206714	 0.008583	 -1.159038
C	 0.416198	 0.560822	 1.105217
H	 -0.864698	 0.171548	 -1.989959
C	 0.824889	 -0.903452	 -1.229431
C	 1.444688	 -0.362192	 1.006316
C	 0.194514	 1.353997	 2.369310
H	 0.975600	 -1.463568	 -2.132501
C	 1.658405	 -1.094393	 -0.144432
H	 2.091001	 -0.508227	 1.851846
H	 -0.787034	 1.166796	 2.795737
H	 0.926190	 1.089505	 3.119066
H	 0.282372	 2.422776	 2.195190
H	 2.462907	 -1.802128	 -0.191948

	symmetry c1
}
set optking {
	frozen_dihedral = ("
		4 3 2 1
	")
}

ee = optimize('scf')
oeprop('DIPOLE', 'QUADRUPOLE', 'MULLIKEN_CHARGES')
f=open( 'psi4out.xyz', 'w' )
f.write( "16  " )
f.write( str(ee) + "\n" )
f.write( MOL.save_string_xyz() )
f.close()
--------------------------------------------------------------------------

    Molecular point group: c1
  Charge       = 0
  Multiplicity = 1
  Basis Set: CC-PVTZ
  Basis Set:
  @DF-RHF Final Energy:  -344.71511355078695
    Total Energy =                       -344.7151135507870094
    Molecular point group: c1
  Basis Set: CC-PVTZ
  Basis Set:
  Basis Set: CC-PVTZ
  Basis Set:
  @DF-RHF Final Energy:  -344.71648419449491
    Total Energy =                       -344.7164841944947966
  Basis Set: CC-PVTZ
  Basis Set:
  Basis Set: CC-PVTZ
  Basis Set:
  @DF-RHF Final Energy:  -344.71656823314771
    Total Energy =                       -344.7165682331478251
  Basis Set: CC-PVTZ
  Basis Set:
  Basis Set: CC-PVTZ
  Basis Set:
  @DF-RHF Final Energy:  -344.71657492163877
    Total Energy =                       -344.7165749216387667
  Basis Set: CC-PVTZ
  Basis Set:
  Basis Set: CC-PVTZ
  Basis Set:
  @DF-RHF Final Energy:  -344.71657617900752
    Total Energy =                       -344.7165761790072906
  Basis Set: CC-PVTZ
  Basis Set:
  Charge       = 0
  Multiplicity = 1
  Basis Set: CC-PVTZ
  Basis Set:

    Orbital Energies (a.u.)
    -----------------------

    Doubly Occupied:

       1A    -20.571221     2A    -11.283595     3A    -11.232339
       4A    -11.227494     5A    -11.225816     6A    -11.223590
       7A    -11.222119     8A    -11.215642     9A     -1.397944
      10A     -1.153373    11A     -1.047587    12A     -1.006719
      13A     -0.933723    14A     -0.836794    15A     -0.805848
      16A     -0.731305    17A     -0.669836    18A     -0.659588
      19A     -0.624136    20A     -0.594368    21A     -0.573978
      22A     -0.565398    23A     -0.544535    24A     -0.524081
      25A     -0.502509    26A     -0.487313    27A     -0.467888
      28A     -0.333503    29A     -0.320252

  @DF-RHF Final Energy:  -344.71657640552604

   => Energetics <=

    Nuclear Repulsion Energy =            350.4798264964716168
    One-Electron Energy =               -1162.4278228480627604
    Two-Electron Energy =                 467.2314199460651594
    DFT Exchange-Correlation Energy =       0.0000000000000000
    Empirical Dispersion Energy =           0.0000000000000000
    PCM Polarization Energy =               0.0000000000000000
    EFP Energy =                            0.0000000000000000
    Total Energy =                       -344.7165764055260411
    Molecular point group: c1
  Basis Set: CC-PVTZ
  Basis Set:

  -Total Gradient:
     Atom            X                  Y                   Z
    ------   -----------------  -----------------  -----------------
       1        0.000027703440    -0.000077306959     0.001540058810
       2        0.000263880973     0.000558412539    -0.002107694054
       3       -0.000984532175    -0.001295788982     0.000981759635
       4        0.000694635736     0.000804999390    -0.000399721013
       5       -0.000039667427     0.000036128487    -0.000026696160
       6        0.000008097717    -0.000000921175     0.000011091513
       7       -0.000006538444     0.000003599670    -0.000021885756
       8        0.000005886945    -0.000019823635    -0.000010516151
       9        0.000009090955    -0.000017917993     0.000004182062
      10        0.000005766536    -0.000009056263     0.000001356691
      11        0.000011293970     0.000013235822     0.000033951122
      12        0.000000358422     0.000001159976     0.000006869043
      13        0.000001629609    -0.000002147690    -0.000006727108
      14        0.000000063562     0.000001597429     0.000003047721
      15        0.000006356548     0.000003717668    -0.000003865720
      16       -0.000004026363     0.000000111716    -0.000005210631

  **** Optimization is complete! (in 6 steps) ****
    Final optimized geometry and variables:
    Molecular point group: c1

    Geometry (in Angstrom), charge = 0, multiplicity = 1:

    H           -2.510726535871     0.936803603009    -0.225262590879
    O           -1.666893961214     1.352715792204    -0.215467853115
    C           -0.667157859944     0.420097359522    -0.273832901346
    C           -0.455772351287    -0.293788895594    -1.435563280748
    C            0.160528392845     0.259312502583     0.829671618950
    H           -1.100226785156    -0.122899246721    -2.276920959434
    C            0.579313913780    -1.206623242446    -1.509655832543
    C            1.197190012141    -0.653624729758     0.729730090745
    C           -0.069025011286     1.061149343373     2.084174846893
    H            0.737719208040    -1.762882288910    -2.413583625706
    C            1.409368757501    -1.387393817296    -0.423122321258
    H            1.849382434179    -0.794198175392     1.571358456577
    H           -1.050093782384     0.866134091168     2.500967165765
    H            0.671290150353     0.816492980678     2.833862635909
    H           -0.014956477866     2.123647303503     1.882993452543
    H            2.219810899427    -2.089011342138    -0.470479346248

  Mulliken Charges: (a.u.)
   Center  Symbol    Alpha    Beta     Spin     Total
       1     H     0.38699  0.38699  0.00000  0.22602
       2     O     4.18932  4.18932  0.00000 -0.37865
       3     C     2.88574  2.88574  0.00000  0.22853
       4     C     3.11382  3.11382  0.00000 -0.22763
       5     C     2.99179  2.99179  0.00000  0.01643
       6     H     0.42153  0.42153  0.00000  0.15695
       7     C     3.07636  3.07636  0.00000 -0.15272
       8     C     3.09336  3.09336  0.00000 -0.18673
       9     C     3.13974  3.13974  0.00000 -0.27948
      10     H     0.42228  0.42228  0.00000  0.15544
      11     C     3.08042  3.08042  0.00000 -0.16084
      12     H     0.42446  0.42446  0.00000  0.15108
      13     H     0.45320  0.45320  0.00000  0.09361
      14     H     0.45329  0.45329  0.00000  0.09341
      15     H     0.44357  0.44357  0.00000  0.11287
      16     H     0.42415  0.42415  0.00000  0.15171

   Total alpha = 29.00000, Total beta = 29.00000, Total charge = -0.00000
