  ==> Input File <==

--------------------------------------------------------------------------
set {
	reference rhf
	basis 6-31G*
}

set_num_threads( 4 )
memory 2 gb

molecule MOL {
0 1

H	 -2.346817	 -1.523429	 -1.134633
C	 -1.613409	 -0.907611	 -0.652671
C	 -1.963859	 0.341411	 -0.040583
C	 -0.329246	 -1.284269	 -0.602956
H	 -2.987309	 0.671647	 -0.063824
C	 -1.028964	 1.094460	 0.556368
H	 0.014625	 -2.204087	 -1.036652
N	 0.640212	 -0.532897	 -0.000111
H	 -1.253807	 2.033119	 1.024042
C	 0.368345	 0.684346	 0.610369
C	 2.010177	 -1.032049	 0.000042
O	 1.238330	 1.332280	 1.137165
H	 2.187698	 -1.635381	 -0.882279
H	 2.677579	 -0.189247	 -0.001871
H	 2.188882	 -1.632203	 0.884288

	symmetry c1
}
set optking {
	frozen_dihedral = ("
		10 8 11 13
	")
}

ee = optimize('scf')
oeprop('DIPOLE', 'QUADRUPOLE', 'MULLIKEN_CHARGES')
f=open( 'psi4out.xyz', 'w' )
f.write( "15  " )
f.write( str(ee) + "\n" )
f.write( MOL.save_string_xyz() )
f.close()
--------------------------------------------------------------------------

    Molecular point group: c1
  Charge       = 0
  Multiplicity = 1
  Basis Set: 6-31G*
  Basis Set:
  @DF-RHF Final Energy:  -360.59591207846125
    Total Energy =                       -360.5959120784610832
    Molecular point group: c1
  Basis Set: 6-31G*
  Basis Set:
  Basis Set: 6-31G*
  Basis Set:
  @DF-RHF Final Energy:  -360.59614446007271
    Total Energy =                       -360.5961444600727077
  Basis Set: 6-31G*
  Basis Set:
  Basis Set: 6-31G*
  Basis Set:
  @DF-RHF Final Energy:  -360.59618426306133
    Total Energy =                       -360.5961842630612750
  Basis Set: 6-31G*
  Basis Set:
  Basis Set: 6-31G*
  Basis Set:
  @DF-RHF Final Energy:  -360.59616568336946
    Total Energy =                       -360.5961656833692928
  Basis Set: 6-31G*
  Basis Set:
  Charge       = 0
  Multiplicity = 1
  Basis Set: 6-31G*
  Basis Set:

    Orbital Energies (a.u.)
    -----------------------

    Doubly Occupied:

       1A    -20.508750     2A    -15.621865     3A    -11.342485
       4A    -11.297282     5A    -11.265481     6A    -11.260373
       7A    -11.233259     8A    -11.228980     9A     -1.384668
      10A     -1.280995    11A     -1.114829    12A     -1.025997
      13A     -0.970153    14A     -0.872442    15A     -0.835538
      16A     -0.715687    17A     -0.697927    18A     -0.661023
      19A     -0.648455    20A     -0.622245    21A     -0.606552
      22A     -0.572661    23A     -0.550962    24A     -0.547062
      25A     -0.526907    26A     -0.477016    27A     -0.414112
      28A     -0.405588    29A     -0.304838

  @DF-RHF Final Energy:  -360.59619025795433

   => Energetics <=

    Nuclear Repulsion Energy =            357.7652302922019203
    One-Electron Energy =               -1198.7345816287790967
    Two-Electron Energy =                 480.3731610786230704
    DFT Exchange-Correlation Energy =       0.0000000000000000
    Empirical Dispersion Energy =           0.0000000000000000
    PCM Polarization Energy =               0.0000000000000000
    EFP Energy =                            0.0000000000000000
    Total Energy =                       -360.5961902579540492
    Molecular point group: c1
  Basis Set: 6-31G*
  Basis Set:

  -Total Gradient:
     Atom            X                  Y                   Z
    ------   -----------------  -----------------  -----------------
       1        0.000000801648     0.000004540430    -0.000006796749
       2        0.000100784547    -0.000056808143     0.000011027874
       3       -0.000003217926     0.000094870036     0.000045827675
       4       -0.000143986191    -0.000057245406    -0.000079053234
       5        0.000002620303    -0.000003186716     0.000002111924
       6       -0.000095469878    -0.000000383973    -0.000021122094
       7        0.000007347310     0.000009640092     0.000010161647
       8       -0.000076859654    -0.000178097363     0.000783575414
       9        0.000004541771     0.000005202865     0.000008705797
      10        0.000210087019     0.000157055192    -0.000634820185
      11       -0.000217150370    -0.000650848421     0.000216117084
      12       -0.000016254554     0.000048626788     0.000033272863
      13        0.000233821107     0.000627760289    -0.000371902783
      14       -0.000009512523    -0.000008150752     0.000000192536
      15        0.000002447389     0.000007025083     0.000002702230

  **** Optimization is complete! (in 5 steps) ****
    Final optimized geometry and variables:
    Molecular point group: c1

    Geometry (in Angstrom), charge = 0, multiplicity = 1:

    H           -2.345787864423    -1.484737150065    -1.262253188146
    C           -1.607680797931    -0.869515163752    -0.786878395444
    C           -1.950863364377     0.383793508948    -0.180437445085
    C           -0.323668876934    -1.250028170600    -0.746689045586
    H           -2.973271316446     0.717268055748    -0.201992753993
    C           -1.010982922625     1.137293007301     0.408943414477
    H            0.012933098738    -2.171741440313    -1.180717935449
    N            0.650853508477    -0.495429356574    -0.157544673122
    H           -1.230315895205     2.078636611892     0.874092738430
    C            0.381690796271     0.714980498124     0.465535715661
    C            2.025686646527    -0.979816169226    -0.134225543491
    O            1.258926231042     1.342755109622     1.004802315080
    H            2.211556063153    -1.569215929784    -1.021738326516
    H            2.691844707613    -0.134481710419    -0.118013465767
    H            2.207996964844    -1.583481653805     0.746951798599

  Mulliken Charges: (a.u.)
   Center  Symbol    Alpha    Beta     Spin     Total
       1     H     0.39298  0.39298  0.00000  0.21403
       2     C     3.16198  3.16198  0.00000 -0.32396
       3     C     3.05826  3.05826  0.00000 -0.11653
       4     C     2.92129  2.92129  0.00000  0.15743
       5     H     0.39088  0.39088  0.00000  0.21824
       6     C     3.16966  3.16966  0.00000 -0.33933
       7     H     0.38783  0.38783  0.00000  0.22433
       8     N     3.86472  3.86472  0.00000 -0.72945
       9     H     0.38641  0.38641  0.00000  0.22717
      10     C     2.59538  2.59538  0.00000  0.80923
      11     C     3.14667  3.14667  0.00000 -0.29335
      12     O     4.32176  4.32176  0.00000 -0.64353
      13     H     0.41427  0.41427  0.00000  0.17146
      14     H     0.38213  0.38213  0.00000  0.23573
      15     H     0.40575  0.40575  0.00000  0.18850

   Total alpha = 29.00000, Total beta = 29.00000, Total charge = -0.00000
