  ==> Input File <==

--------------------------------------------------------------------------
set {
	reference rhf
	basis 6-31G*
}

set_num_threads( 4 )
memory 2 gb

molecule MOL {
0 1

H	 2.591676	 2.013956	 0.335017
O	 3.341076	 1.666752	 -0.126416
C	 3.569581	 0.339145	 0.272707
C	 2.539767	 -0.640285	 -0.279495
H	 4.553106	 0.084646	 -0.100901
H	 3.608576	 0.269204	 1.359154
C	 3.077523	 -1.550472	 -1.386403
H	 2.165274	 -1.246201	 0.541473
H	 1.696618	 -0.066604	 -0.660751
C	 2.006170	 -2.484024	 -1.956933
H	 3.901567	 -2.140351	 -0.994791
H	 3.484379	 -0.939181	 -2.192091
C	 2.470796	 -3.357918	 -3.127733
H	 1.626036	 -3.121549	 -1.160750
H	 1.163912	 -1.881375	 -2.290273
C	 3.527226	 -4.406774	 -2.769493
H	 1.602138	 -3.867482	 -3.539549
H	 2.851523	 -2.719650	 -3.923659
C	 3.880918	 -5.321842	 -3.943797
H	 3.165029	 -5.012323	 -1.939895
H	 4.433889	 -3.920010	 -2.418315
C	 4.939917	 -6.365632	 -3.590684
H	 2.981200	 -5.824600	 -4.291978
H	 4.233847	 -4.717721	 -4.777081
H	 4.603297	 -7.007376	 -2.781316
H	 5.167355	 -6.999483	 -4.442236
H	 5.865688	 -5.893728	 -3.273482

	symmetry c1
}
set optking {
	frozen_dihedral = ("
		8 4 3 2
	")
}

ee = optimize('scf')
oeprop('DIPOLE', 'QUADRUPOLE', 'MULLIKEN_CHARGES')
f=open( 'psi4out.xyz', 'w' )
f.write( "27  " )
f.write( str(ee) + "\n" )
f.write( MOL.save_string_xyz() )
f.close()
--------------------------------------------------------------------------

    Molecular point group: c1
  Charge       = 0
  Multiplicity = 1
  Basis Set: 6-31G*
  Basis Set:
  @DF-RHF Final Energy:  -388.27597588019319
    Total Energy =                       -388.2759758801934140
    Molecular point group: c1
  Basis Set: 6-31G*
  Basis Set:
  Basis Set: 6-31G*
  Basis Set:
  @DF-RHF Final Energy:  -388.27638631314392
    Total Energy =                       -388.2763863131438029
  Basis Set: 6-31G*
  Basis Set:
  Basis Set: 6-31G*
  Basis Set:
  @DF-RHF Final Energy:  -388.27645975873298
    Total Energy =                       -388.2764597587329263
  Basis Set: 6-31G*
  Basis Set:
  Basis Set: 6-31G*
  Basis Set:
  @DF-RHF Final Energy:  -388.27645758793949
    Total Energy =                       -388.2764575879397171
  Basis Set: 6-31G*
  Basis Set:
  Basis Set: 6-31G*
  Basis Set:
  @DF-RHF Final Energy:  -388.27646229412079
    Total Energy =                       -388.2764622941213020
  Basis Set: 6-31G*
  Basis Set:
  Charge       = 0
  Multiplicity = 1
  Basis Set: 6-31G*
  Basis Set:

    Orbital Energies (a.u.)
    -----------------------

    Doubly Occupied:

       1A    -20.551194     2A    -11.267006     3A    -11.216359
       4A    -11.215441     5A    -11.214395     6A    -11.214130
       7A    -11.213135     8A    -11.212004     9A    -11.207838
      10A     -1.357873    11A     -1.092783    12A     -1.059540
      13A     -1.008915    14A     -0.943751    15A     -0.883054
      16A     -0.823707    17A     -0.803543    18A     -0.776648
      19A     -0.684372    20A     -0.648568    21A     -0.634057
      22A     -0.610592    23A     -0.608360    24A     -0.581052
      25A     -0.576141    26A     -0.556014    27A     -0.536493
      28A     -0.522294    29A     -0.510653    30A     -0.487455
      31A     -0.482023    32A     -0.475225    33A     -0.464431
      34A     -0.459002    35A     -0.454298    36A     -0.441692
      37A     -0.417035

  @DF-RHF Final Energy:  -388.27646237876564

   => Energetics <=

    Nuclear Repulsion Energy =            454.5536156316014171
    One-Electron Energy =               -1427.2380111885645420
    Two-Electron Energy =                 584.4079331781974815
    DFT Exchange-Correlation Energy =       0.0000000000000000
    Empirical Dispersion Energy =           0.0000000000000000
    PCM Polarization Energy =               0.0000000000000000
    EFP Energy =                            0.0000000000000000
    Total Energy =                       -388.2764623787657001
    Molecular point group: c1
  Basis Set: 6-31G*
  Basis Set:

  -Total Gradient:
     Atom            X                  Y                   Z
    ------   -----------------  -----------------  -----------------
       1       -0.000006205995     0.000010196471     0.000000830558
       2       -0.001262370177     0.000379138071     0.001775991378
       3        0.001247620112    -0.000095273245    -0.002313194932
       4        0.002049807370    -0.002224179596     0.000140002512
       5       -0.000006446034    -0.000002870967    -0.000007229825
       6       -0.000013450833     0.000018980474     0.000001629753
       7       -0.000015980918    -0.000000860017     0.000033678648
       8       -0.001976819096     0.001908070934     0.000377607363
       9       -0.000022509556     0.000004355828    -0.000014535615
      10        0.000014440657    -0.000011095737     0.000010778381
      11       -0.000024532912     0.000022318814     0.000018661405
      12       -0.000004614979     0.000001214014    -0.000011404724
      13        0.000006523449     0.000016107941    -0.000009346167
      14        0.000017621171    -0.000006401974    -0.000000139770
      15       -0.000003998939    -0.000002429161     0.000014161402
      16       -0.000000579140    -0.000010163201    -0.000000554578
      17       -0.000002298893     0.000011329675    -0.000001845241
      18        0.000009055921    -0.000000196930    -0.000003248406
      19       -0.000001610348     0.000000031391     0.000000097074
      20        0.000003539333    -0.000001628454     0.000002958667
      21       -0.000006421366    -0.000016447877    -0.000015278522
      22       -0.000002621390    -0.000002207639     0.000001204763
      23        0.000000953485     0.000001398359    -0.000001139570
      24        0.000001228871     0.000000604009     0.000000219561
      25        0.000000837764     0.000000092307     0.000000468785
      26       -0.000000869074    -0.000000387099     0.000000436916
      27       -0.000000298482     0.000000303597    -0.000000809822

  **** Optimization is complete! (in 6 steps) ****
    Final optimized geometry and variables:
    Molecular point group: c1

    Geometry (in Angstrom), charge = 0, multiplicity = 1:

    H           -0.708413740089     4.387380854602     2.054884333359
    O            0.105403630952     4.062827488274     1.696124776107
    C            0.307282372581     2.741058355023     2.129846096763
    C           -0.738065878778     1.754093167334     1.578934666399
    H            1.299810943315     2.473431791753     1.791507327333
    H            0.323145350899     2.708770814982     3.217177549585
    C           -0.202930718943     0.841222290264     0.473971889154
    H           -1.152792071972     1.157914260642     2.388722514445
    H           -1.569779076943     2.334692299641     1.185939649317
    C           -1.272567025993    -0.091547274377    -0.098549856190
    H            0.626820939244     0.260133233479     0.868519456466
    H            0.204936770197     1.459063654580    -0.323912353908
    C           -0.807719692932    -0.957503391930    -1.275324340094
    H           -1.651384060133    -0.735572629641     0.693799405477
    H           -2.116769154047     0.510838420793    -0.427874822798
    C            0.249361440929    -2.007941413187    -0.923897210195
    H           -1.675920730481    -1.464714582956    -1.691166827776
    H           -0.426794072576    -0.313180232815    -2.065970358575
    C            0.604961480715    -2.913858144162    -2.104707043851
    H           -0.113239002377    -2.620423665353    -0.099314496751
    H            1.154933964473    -1.522583865386    -0.568463215059
    C            1.663265870287    -3.960487400306    -1.757953223740
    H           -0.294149772826    -3.413796586953    -2.458638596952
    H            0.959642597691    -2.303163020367    -2.932345426156
    H            1.325075522039    -4.608751500536    -0.954358930788
    H            1.892348117908    -4.587612275052    -2.614066165393
    H            2.588341209805    -3.491000622152    -1.435284782708

  Mulliken Charges: (a.u.)
   Center  Symbol    Alpha    Beta     Spin     Total
       1     H     0.28354  0.28354  0.00000  0.43292
       2     O     4.36977  4.36977  0.00000 -0.73955
       3     C     2.99781  2.99781  0.00000  0.00438
       4     C     3.16937  3.16937  0.00000 -0.33874
       5     H     0.41353  0.41353  0.00000  0.17293
       6     H     0.42930  0.42930  0.00000  0.14139
       7     C     3.15902  3.15902  0.00000 -0.31804
       8     H     0.42186  0.42186  0.00000  0.15629
       9     H     0.41985  0.41985  0.00000  0.16030
      10     C     3.15385  3.15385  0.00000 -0.30771
      11     H     0.42114  0.42114  0.00000  0.15772
      12     H     0.41681  0.41681  0.00000  0.16639
      13     C     3.15334  3.15334  0.00000 -0.30669
      14     H     0.42448  0.42448  0.00000  0.15103
      15     H     0.42156  0.42156  0.00000  0.15689
      16     C     3.15263  3.15263  0.00000 -0.30527
      17     H     0.42205  0.42205  0.00000  0.15590
      18     H     0.42295  0.42295  0.00000  0.15410
      19     C     3.15118  3.15118  0.00000 -0.30236
      20     H     0.42508  0.42508  0.00000  0.14984
      21     H     0.42212  0.42212  0.00000  0.15577
      22     C     3.23915  3.23915  0.00000 -0.47829
      23     H     0.42331  0.42331  0.00000  0.15338
      24     H     0.42277  0.42277  0.00000  0.15446
      25     H     0.42215  0.42215  0.00000  0.15571
      26     H     0.41945  0.41945  0.00000  0.16111
      27     H     0.42193  0.42193  0.00000  0.15613

   Total alpha = 37.00000, Total beta = 37.00000, Total charge =  0.00000
