  ==> Input File <==

--------------------------------------------------------------------------
set {
	reference rhf
	basis 6-31G*
}

set_num_threads( 4 )
memory 2 gb

molecule MOL {
0 1

H	 -2.419898	 -0.621738	 0.873157
N	 -1.642749	 0.010327	 0.869668
C	 -0.563778	 -0.502042	 0.037919
H	 -1.339865	 0.102217	 1.820759
C	 0.575259	 0.508231	 -0.048326
H	 -0.965635	 -0.673318	 -0.956250
H	 -0.170529	 -1.460729	 0.385799
C	 1.954651	 -0.143624	 0.035137
H	 0.475158	 1.060484	 -0.977307
H	 0.469181	 1.234488	 0.755973
H	 2.103292	 -0.853109	 -0.774172
H	 2.742821	 0.599562	 -0.030094
H	 2.083613	 -0.679371	 0.971560

	symmetry c1
}
set optking {
	frozen_dihedral = ("
		6 3 5 9
	")
}

ee = optimize('scf')
oeprop('DIPOLE', 'QUADRUPOLE', 'MULLIKEN_CHARGES')
f=open( 'psi4out.xyz', 'w' )
f.write( "13  " )
f.write( str(ee) + "\n" )
f.write( MOL.save_string_xyz() )
f.close()
--------------------------------------------------------------------------

    Molecular point group: c1
  Charge       = 0
  Multiplicity = 1
  Basis Set: 6-31G*
  Basis Set:
  @DF-RHF Final Energy:  -173.27705804539147
    Total Energy =                       -173.2770580453914704
    Molecular point group: c1
  Basis Set: 6-31G*
  Basis Set:
  Basis Set: 6-31G*
  Basis Set:
  @DF-RHF Final Energy:  -173.27741860322797
    Total Energy =                       -173.2774186032279715
  Basis Set: 6-31G*
  Basis Set:
  Basis Set: 6-31G*
  Basis Set:
  @DF-RHF Final Energy:  -173.27753505605170
    Total Energy =                       -173.2775350560516188
  Basis Set: 6-31G*
  Basis Set:
  Basis Set: 6-31G*
  Basis Set:
  @DF-RHF Final Energy:  -173.27753633962379
    Total Energy =                       -173.2775363396237651
  Basis Set: 6-31G*
  Basis Set:
  Charge       = 0
  Multiplicity = 1
  Basis Set: 6-31G*
  Basis Set:

    Orbital Energies (a.u.)
    -----------------------

    Doubly Occupied:

       1A    -15.532540     2A    -11.240437     3A    -11.212127
       4A    -11.209001     5A     -1.175580     6A     -1.033039
       7A     -0.898012     8A     -0.799360     9A     -0.666872
      10A     -0.618809    11A     -0.604817    12A     -0.565535
      13A     -0.535503    14A     -0.489235    15A     -0.477496
      16A     -0.465599    17A     -0.380553

  @DF-RHF Final Energy:  -173.27753683884507

   => Energetics <=

    Nuclear Repulsion Energy =            131.6992782507706181
    One-Electron Energy =                -494.1446019969104668
    Two-Electron Energy =                 189.1677869072947544
    DFT Exchange-Correlation Energy =       0.0000000000000000
    Empirical Dispersion Energy =           0.0000000000000000
    PCM Polarization Energy =               0.0000000000000000
    EFP Energy =                            0.0000000000000000
    Total Energy =                       -173.2775368388450659
    Molecular point group: c1
  Basis Set: 6-31G*
  Basis Set:

  -Total Gradient:
     Atom            X                  Y                   Z
    ------   -----------------  -----------------  -----------------
       1       -0.000024299641     0.000013340524     0.000019968810
       2       -0.000008778877    -0.000037297216    -0.000037573656
       3        0.004087818935    -0.004584868001    -0.001156276780
       4        0.000018238619    -0.000022204928    -0.000041921645
       5       -0.003699894343     0.004319621827     0.002553752536
       6       -0.002831235571     0.003217276433     0.000599943869
       7        0.000007879385     0.000041997063    -0.000005109689
       8        0.000005355644     0.000005523687     0.000048708913
       9        0.002427925028    -0.002927746706    -0.001986046253
      10        0.000004503983    -0.000032649290     0.000012456627
      11       -0.000028153298    -0.000003573995     0.000002457771
      12        0.000014609572     0.000003066567    -0.000007392135
      13        0.000026030562     0.000007514036    -0.000002968368

  **** Optimization is complete! (in 5 steps) ****
    Final optimized geometry and variables:
    Molecular point group: c1

    Geometry (in Angstrom), charge = 0, multiplicity = 1:

    H           -2.505744798138    -0.569650940185     0.587626227664
    N           -1.725726700542     0.059037735865     0.604358846067
    C           -0.621494069087    -0.466150659222    -0.190590907908
    H           -1.452729101166     0.156866686004     1.563961405749
    C            0.522834456748     0.558808709003    -0.271687239179
    H           -1.022858658275    -0.644284841152    -1.182239126765
    H           -0.243034661768    -1.418158524897     0.185904932274
    C            1.908070119834    -0.089649115922    -0.229630607336
    H            0.439042282702     1.120526378855    -1.196679076466
    H            0.426406936581     1.270021387309     0.542456773729
    H            2.032928911034    -0.803227291879    -1.039770011759
    H            2.692894122254     0.654399924011    -0.324000085668
    H            2.066605280292    -0.622610619206     0.704004469870

  Mulliken Charges: (a.u.)
   Center  Symbol    Alpha    Beta     Spin     Total
       1     H     0.33347  0.33347  0.00000  0.33305
       2     N     3.92159  3.92159  0.00000 -0.84319
       3     C     3.06350  3.06350  0.00000 -0.12700
       4     H     0.33595  0.33595  0.00000  0.32810
       5     C     3.15310  3.15310  0.00000 -0.30620
       6     H     0.41850  0.41850  0.00000  0.16299
       7     H     0.43168  0.43168  0.00000  0.13664
       8     C     3.24400  3.24400  0.00000 -0.48800
       9     H     0.41674  0.41674  0.00000  0.16653
      10     H     0.41717  0.41717  0.00000  0.16566
      11     H     0.42203  0.42203  0.00000  0.15595
      12     H     0.41911  0.41911  0.00000  0.16179
      13     H     0.42316  0.42316  0.00000  0.15367

   Total alpha = 17.00000, Total beta = 17.00000, Total charge =  0.00000
