  ==> Input File <==

--------------------------------------------------------------------------
set {
	reference rhf
	basis 6-31G*
}

set_num_threads( 4 )
memory 2 gb

molecule MOL {
0 1

H	 -1.142640	 0.023414	 0.948585
C	 -0.790252	 0.431209	 0.000000
N	 0.538815	 0.649616	 0.000000
O	 -1.533642	 0.645243	 -0.911466
C	 1.521968	 -0.411503	 0.000000
H	 0.852804	 1.592852	 0.000000
H	 2.150599	 -0.357004	 -0.881901
H	 0.999455	 -1.354525	 0.000000
H	 2.150599	 -0.357004	 0.881901

	symmetry c1
}
set optking {
	frozen_dihedral = ("
		1 2 3 6
	")
}

ee = optimize('scf')
oeprop('DIPOLE', 'QUADRUPOLE', 'MULLIKEN_CHARGES')
f=open( 'psi4out.xyz', 'w' )
f.write( "9  " )
f.write( str(ee) + "\n" )
f.write( MOL.save_string_xyz() )
f.close()
--------------------------------------------------------------------------

    Molecular point group: c1
  Charge       = 0
  Multiplicity = 1
  Basis Set: 6-31G*
  Basis Set:
  @DF-RHF Final Energy:  -207.92246671548963
    Total Energy =                       -207.9224667154896053
    Molecular point group: c1
  Basis Set: 6-31G*
  Basis Set:
  Basis Set: 6-31G*
  Basis Set:
  @DF-RHF Final Energy:  -207.92748040261796
    Total Energy =                       -207.9274804026179027
  Basis Set: 6-31G*
  Basis Set:
  Basis Set: 6-31G*
  Basis Set:
  @DF-RHF Final Energy:  -207.93177776812280
    Total Energy =                       -207.9317777681227710
  Basis Set: 6-31G*
  Basis Set:
  Basis Set: 6-31G*
  Basis Set:
  @DF-RHF Final Energy:  -207.93776186391142
    Total Energy =                       -207.9377618639114189
  Basis Set: 6-31G*
  Basis Set:
  @DF-RHF Final Energy:  -207.93905457753834
    Total Energy =                       -207.9390545775382861
  @DF-RHF Final Energy:  -207.93963816808861
    Total Energy =                       -207.9396381680886066
  @DF-RHF Final Energy:  -207.94024625706575
    Total Energy =                       -207.9402462570658372
  @DF-RHF Final Energy:  -207.94035800799332
    Total Energy =                       -207.9403580079932681
  @DF-RHF Final Energy:  -207.94044386636921
    Total Energy =                       -207.9404438663692076
  @DF-RHF Final Energy:  -207.93921075496471
    Total Energy =                       -207.9392107549647051
  @DF-RHF Final Energy:  -207.94065057605798
    Total Energy =                       -207.9406505760579194
  @DF-RHF Final Energy:  -207.94074024659346
    Total Energy =                       -207.9407402465934638
  @DF-RHF Final Energy:  -207.94090745759974
    Total Energy =                       -207.9409074575997352
  @DF-RHF Final Energy:  -207.94103602543413
    Total Energy =                       -207.9410360254341299
  @DF-RHF Final Energy:  -207.94113659438125
    Total Energy =                       -207.9411365943811916
  @DF-RHF Final Energy:  -207.94120389922978
    Total Energy =                       -207.9412038992298335
  @DF-RHF Final Energy:  -207.94123553823181
    Total Energy =                       -207.9412355382317514
  @DF-RHF Final Energy:  -207.94123810500020
    Total Energy =                       -207.9412381050003091
  @DF-RHF Final Energy:  -207.94123804326682
    Total Energy =                       -207.9412380432667646
  @DF-RHF Final Energy:  -207.94123793942526
    Total Energy =                       -207.9412379394252639
  @DF-RHF Final Energy:  -207.94123862421043
    Total Energy =                       -207.9412386242103423
  @DF-RHF Final Energy:  -207.94123862423612
    Total Energy =                       -207.9412386242361208
  @DF-RHF Final Energy:  -207.94123860339556
    Total Energy =                       -207.9412386033955045
  @DF-RHF Final Energy:  -207.94123856191754
    Total Energy =                       -207.9412385619175154
  @DF-RHF Final Energy:  -207.94123849975165
    Total Energy =                       -207.9412384997516199
  @DF-RHF Final Energy:  -207.94123863418341
    Total Energy =                       -207.9412386341834349
  @DF-RHF Final Energy:  -207.93348617885260
    Total Energy =                       -207.9334861788526325
  @DF-RHF Final Energy:  -207.92933325899935
    Total Energy =                       -207.9293332589994066
  @DF-RHF Final Energy:  -207.94076922000477
    Total Energy =                       -207.9407692200047677
  @DF-RHF Final Energy:  -207.94122725703158
    Total Energy =                       -207.9412272570315849
  @DF-RHF Final Energy:  -207.94123738811157
    Total Energy =                       -207.9412373881116025
  @DF-RHF Final Energy:  -207.94123809441470
    Total Energy =                       -207.9412380944147003
  @DF-RHF Final Energy:  -207.94123832261386
    Total Energy =                       -207.9412383226137422
  @DF-RHF Final Energy:  -207.94123852069052
    Total Energy =                       -207.9412385206906038
  @DF-RHF Final Energy:  -207.92930737694837
    Total Energy =                       -207.9293073769483726
  @DF-RHF Final Energy:  -207.89072848033521
    Total Energy =                       -207.8907284803352127
  Basis Set: 6-31G*
  Basis Set:
  @DF-RHF Final Energy:  -207.93558713568785
    Total Energy =                       -207.9355871356878538
  Basis Set: 6-31G*
  Basis Set:
  Basis Set: 6-31G*
  Basis Set:
  @DF-RHF Final Energy:  -207.94095386764025
    Total Energy =                       -207.9409538676402462
  Basis Set: 6-31G*
  Basis Set:
  Basis Set: 6-31G*
  Basis Set:
  @DF-RHF Final Energy:  -207.94115118490885
    Total Energy =                       -207.9411511849088470
  Basis Set: 6-31G*
  Basis Set:
  Charge       = 0
  Multiplicity = 1
  Basis Set: 6-31G*
  Basis Set:

    Orbital Energies (a.u.)
    -----------------------

    Doubly Occupied:

       1A    -20.554175     2A    -15.579702     3A    -11.352660
       4A    -11.267474     5A     -1.410674     6A     -1.234576
       7A     -0.950180     8A     -0.833211     9A     -0.703917
      10A     -0.674825    11A     -0.643410    12A     -0.582142
      13A     -0.564546    14A     -0.532897    15A     -0.439915
      16A     -0.403106

  @DF-RHF Final Energy:  -207.94117628833959

   => Energetics <=

    Nuclear Repulsion Energy =            120.1149498248505125
    One-Electron Energy =                -520.6574305434938879
    Two-Electron Energy =                 192.6013044303037702
    DFT Exchange-Correlation Energy =       0.0000000000000000
    Empirical Dispersion Energy =           0.0000000000000000
    PCM Polarization Energy =               0.0000000000000000
    EFP Energy =                            0.0000000000000000
    Total Energy =                       -207.9411762883396193
    Molecular point group: c1
  Basis Set: 6-31G*
  Basis Set:

  -Total Gradient:
     Atom            X                  Y                   Z
    ------   -----------------  -----------------  -----------------
       1        0.002100184282     0.010069583697     0.006369508210
       2       -0.002680298893    -0.012968266729    -0.006209156903
       3       -0.005752079924     0.006407566631    -0.011384063549
       4        0.000930504663    -0.000646756499     0.000483007055
       5       -0.000832787307     0.000722681450    -0.000950469793
       6        0.005021221023    -0.003152086241     0.010963431593
       7        0.000825307362     0.000295130353     0.000279989719
       8       -0.000106364888    -0.000341934770    -0.000119272116
       9        0.000494313686    -0.000385917893     0.000567025783

    Molecular point group: c1

    Geometry (in Angstrom), charge = 0, multiplicity = 1:

    H           -0.722486902956    -0.489832284867     1.190093589589
    C           -0.660130136926     0.058180484275     0.242141575704
    N            0.615617107198     0.123921938595    -0.311390453705
    O           -1.598758851631     0.639868272036    -0.187074073123
    C            1.585702238081    -0.829633640709     0.209718247392
    H            0.976012593708     1.055611220210    -0.256401529402
    H            2.548431644162    -0.627214996158    -0.241087243776
    H            1.297404404076    -1.835082542442    -0.070746615695
    H            1.699873265670    -0.794909464545     1.293493627403

  Mulliken Charges: (a.u.)
   Center  Symbol    Alpha    Beta     Spin     Total
       1     H     0.43049  0.43049  0.00000  0.13903
       2     C     2.75776  2.75776  0.00000  0.48447
       3     N     3.85743  3.85743  0.00000 -0.71486
       4     O     4.24821  4.24821  0.00000 -0.49643
       5     C     3.16185  3.16185  0.00000 -0.32370
       6     H     0.31034  0.31034  0.00000  0.37933
       7     H     0.40538  0.40538  0.00000  0.18924
       8     H     0.40609  0.40609  0.00000  0.18781
       9     H     0.42245  0.42245  0.00000  0.15510

   Total alpha = 16.00000, Total beta = 16.00000, Total charge = -0.00000
