  ==> Input File <==

--------------------------------------------------------------------------
set {
	reference rhf
	basis 6-31G*
}

set_num_threads( 1 )
memory 2 gb

molecule MOL {
0 1

O	 1.164204	 4.022535	 -1.274998
C	 0.226442	 4.272108	 -1.968593
C	 -1.041090	 3.436726	 -1.947717
C	 0.241601	 5.448952	 -2.922514
C	 -0.998069	 2.265877	 -0.970222
H	 -1.873619	 4.100194	 -1.717297
H	 -1.225092	 3.084909	 -2.962001
C	 -2.291064	 1.448638	 -0.977018
H	 -0.805205	 2.643531	 0.028933
H	 -0.156114	 1.626945	 -1.217258
C	 -2.259874	 0.272531	 0.000494
H	 -3.131682	 2.096199	 -0.731916
H	 -2.479290	 1.074325	 -1.982268
C	 -3.549786	 -0.549746	 -0.000374
H	 -2.072480	 0.645612	 1.005836
H	 -1.420447	 -0.375951	 -0.244108
C	 -4.809590	 0.315458	 -0.000369
H	 -3.560515	 -1.202009	 -0.871156
H	 -3.561123	 -1.202955	 0.869711
H	 -4.844746	 0.956611	 -0.876632
H	 -5.706986	 -0.295590	 -0.001609
H	 -4.845960	 0.954827	 0.877144
H	 -0.566483	 6.136188	 -2.689434
H	 1.188034	 5.966290	 -2.848622
H	 0.092263	 5.110578	 -3.943707

	symmetry c1
}
set optking {
	frozen_dihedral = ("
		9 5 8 12,
		15 11 8 12,
		1 2 3 6,
		9 5 3 6
	")
}

ee = energy('scf')
oeprop('DIPOLE', 'QUADRUPOLE', 'MULLIKEN_CHARGES')
f=open( 'psi4out.xyz', 'w' )
f.write( "25  " )
f.write( str(ee) + "\n" )
f.write( MOL.save_string_xyz() )
f.close()
--------------------------------------------------------------------------

    Molecular point group: c1

    Geometry (in Angstrom), charge = 0, multiplicity = 1:

       Center              X                  Y                   Z               Mass
    ------------   -----------------  -----------------  -----------------  -----------------
           O          2.650300841637     1.690103334153    -0.156758047113    15.994914619560
           C          1.712538841637     1.939676334153    -0.850353047113    12.000000000000
           C          0.445006841637     1.104294334153    -0.829477047113    12.000000000000
           C          1.727697841637     3.116520334153    -1.804274047113    12.000000000000
           C          0.488027841637    -0.066554665847     0.148017952887    12.000000000000
           H         -0.387522158363     1.767762334153    -0.599057047113     1.007825032070
           H          0.261004841637     0.752477334153    -1.843761047113     1.007825032070
           C         -0.804967158363    -0.883793665847     0.141221952887    12.000000000000
           H          0.680891841637     0.311099334153     1.147172952887     1.007825032070
           H          1.329982841637    -0.705486665847    -0.099018047113     1.007825032070
           C         -0.773777158363    -2.059900665847     1.118733952887    12.000000000000
           H         -1.645585158363    -0.236232665847     0.386323952887     1.007825032070
           H         -0.993193158363    -1.258106665847    -0.864028047113     1.007825032070
           C         -2.063689158363    -2.882177665847     1.117865952887    12.000000000000
           H         -0.586383158363    -1.686819665847     2.124075952887     1.007825032070
           H          0.065649841637    -2.708382665847     0.874131952887     1.007825032070
           C         -3.323493158363    -2.016973665847     1.117870952887    12.000000000000
           H         -2.074418158363    -3.534440665847     0.247083952887     1.007825032070
           H         -2.075026158363    -3.535386665847     1.987950952887     1.007825032070
           H         -3.358649158363    -1.375820665847     0.241607952887     1.007825032070
           H         -4.220889158363    -2.628021665847     1.116630952887     1.007825032070
           H         -3.359863158363    -1.377604665847     1.995383952887     1.007825032070
           H          0.919613841637     3.803756334153    -1.571194047113     1.007825032070
           H          2.674130841637     3.633858334153    -1.730382047113     1.007825032070
           H          1.578359841637     2.778146334153    -2.825467047113     1.007825032070

  Charge       = 0
  Multiplicity = 1
  Basis Set: 6-31G*
  Basis Set:

    Orbital Energies (a.u.)
    -----------------------

    Doubly Occupied:

       1A    -20.550352     2A    -11.326193     3A    -11.231720
       4A    -11.228276     5A    -11.216482     6A    -11.215625
       7A    -11.215306     8A    -11.213315     9A    -11.208452
      10A     -1.395650    11A     -1.095154    12A     -1.056856
      13A     -1.012774    14A     -0.965080    15A     -0.897417
      16A     -0.826789    17A     -0.774310    18A     -0.729307
      19A     -0.659215    20A     -0.652876    21A     -0.627160
      22A     -0.623482    23A     -0.607698    24A     -0.591408
      25A     -0.564145    26A     -0.555818    27A     -0.547231
      28A     -0.521327    29A     -0.510463    30A     -0.494018
      31A     -0.489159    32A     -0.476210    33A     -0.458711
      34A     -0.455643    35A     -0.451586    36A     -0.399419

  @DF-RHF Final Energy:  -387.13155399442940

   => Energetics <=

    Nuclear Repulsion Energy =            445.1144162623650118
    One-Electron Energy =               -1406.8027151731739650
    Two-Electron Energy =                 574.5567449163814899
    DFT Exchange-Correlation Energy =       0.0000000000000000
    Empirical Dispersion Energy =           0.0000000000000000
    PCM Polarization Energy =               0.0000000000000000
    EFP Energy =                            0.0000000000000000
    Total Energy =                       -387.1315539944274633

  Mulliken Charges: (a.u.)
   Center  Symbol    Alpha    Beta     Spin     Total
       1     O     4.26117  4.26117  0.00000 -0.52235
       2     C     2.73571  2.73571  0.00000  0.52858
       3     C     3.21080  3.21080  0.00000 -0.42160
       4     C     3.28662  3.28662  0.00000 -0.57325
       5     C     3.14662  3.14662  0.00000 -0.29323
       6     H     0.41015  0.41015  0.00000  0.17970
       7     H     0.41016  0.41016  0.00000  0.17969
       8     C     3.15982  3.15982  0.00000 -0.31965
       9     H     0.41227  0.41227  0.00000  0.17545
      10     H     0.41251  0.41251  0.00000  0.17499
      11     C     3.15213  3.15213  0.00000 -0.30426
      12     H     0.42058  0.42058  0.00000  0.15883
      13     H     0.42534  0.42534  0.00000  0.14931
      14     C     3.15160  3.15160  0.00000 -0.30320
      15     H     0.42236  0.42236  0.00000  0.15528
      16     H     0.42018  0.42018  0.00000  0.15964
      17     C     3.24513  3.24513  0.00000 -0.49025
      18     H     0.42303  0.42303  0.00000  0.15395
      19     H     0.41995  0.41995  0.00000  0.16011
      20     H     0.41912  0.41912  0.00000  0.16176
      21     H     0.41871  0.41871  0.00000  0.16258
      22     H     0.42209  0.42209  0.00000  0.15582
      23     H     0.40876  0.40876  0.00000  0.18248
      24     H     0.39647  0.39647  0.00000  0.20706
      25     H     0.40872  0.40872  0.00000  0.18256

   Total alpha = 36.00000, Total beta = 36.00000, Total charge =  0.00000
