  ==> Input File <==

--------------------------------------------------------------------------
set {
	reference rhf
	basis 6-31G*
}

set_num_threads( 1 )
memory 2 gb

molecule MOL {
0 1

H	 -3.654266	 1.363636	 0.002584
C	 -3.055204	 0.564864	 0.394692
C	 -1.953678	 0.208335	 -0.224605
H	 -3.378281	 0.074374	 1.293554
O	 -1.180634	 -0.819263	 0.215062
H	 -1.609032	 0.691433	 -1.121840
C	 0.051604	 -1.018856	 -0.387932
C	 1.043764	 0.054862	 -0.001873
H	 -0.017620	 -1.041351	 -1.469781
H	 0.437898	 -1.966374	 -0.042284
F	 2.212596	 -0.199467	 -0.571921
F	 0.652529	 1.252447	 -0.405055
F	 1.230877	 0.110694	 1.300533

	symmetry c1
}
set optking {
	frozen_dihedral = ("
		11 8 7 9,
		6 3 2 1,
		6 3 5 7
	")
}

ee = energy('scf')
oeprop('DIPOLE', 'QUADRUPOLE', 'MULLIKEN_CHARGES')
f=open( 'psi4out.xyz', 'w' )
f.write( "13  " )
f.write( str(ee) + "\n" )
f.write( MOL.save_string_xyz() )
f.close()
--------------------------------------------------------------------------

    Molecular point group: c1

    Geometry (in Angstrom), charge = 0, multiplicity = 1:

       Center              X                  Y                   Z               Mass
    ------------   -----------------  -----------------  -----------------  -----------------
           H         -3.683509660876     1.317383153317    -0.041866900363     1.007825032070
           C         -3.084447660876     0.518611153317     0.350241099637    12.000000000000
           C         -1.982921660876     0.162082153317    -0.269055900363    12.000000000000
           H         -3.407524660876     0.028121153317     1.249103099637     1.007825032070
           O         -1.209877660876    -0.865515846683     0.170611099637    15.994914619560
           H         -1.638275660876     0.645180153317    -1.166290900363     1.007825032070
           C          0.022360339124    -1.065108846683    -0.432382900363    12.000000000000
           C          1.014520339124     0.008609153317    -0.046323900363    12.000000000000
           H         -0.046863660876    -1.087603846683    -1.514231900363     1.007825032070
           H          0.408654339124    -2.012626846683    -0.086734900363     1.007825032070
           F          2.183352339124    -0.245719846683    -0.616371900363    18.998403224000
           F          0.623285339124     1.206194153317    -0.449505900363    18.998403224000
           F          1.201633339124     0.064441153317     1.256082099637    18.998403224000

  Charge       = 0
  Multiplicity = 1
  Basis Set: 6-31G*
  Basis Set:

    Orbital Energies (a.u.)
    -----------------------

    Doubly Occupied:

       1A    -26.347080     2A    -26.345863     3A    -26.342240
       4A    -20.607383     5A    -11.504928     6A    -11.319051
       7A    -11.296998     8A    -11.214413     9A     -1.744040
      10A     -1.642528    11A     -1.640199    12A     -1.437714
      13A     -1.083585    14A     -1.016463    15A     -0.927089
      16A     -0.837936    17A     -0.832880    18A     -0.827472
      19A     -0.784677    20A     -0.724189    21A     -0.712185
      22A     -0.697706    23A     -0.676175    24A     -0.661622
      25A     -0.656428    26A     -0.645294    27A     -0.634983
      28A     -0.587391    29A     -0.561981    30A     -0.524260
      31A     -0.509118    32A     -0.350408

  @DF-RHF Final Energy:  -527.53469652249714

   => Energetics <=

    Nuclear Repulsion Energy =            416.2771886750720682
    One-Electron Energy =               -1556.2352154464911109
    Two-Electron Energy =                 612.4233302489210473
    DFT Exchange-Correlation Energy =       0.0000000000000000
    Empirical Dispersion Energy =           0.0000000000000000
    PCM Polarization Energy =               0.0000000000000000
    EFP Energy =                            0.0000000000000000
    Total Energy =                       -527.5346965224980522

  Mulliken Charges: (a.u.)
   Center  Symbol    Alpha    Beta     Spin     Total
       1     H     0.40720  0.40720  0.00000  0.18560
       2     C     3.23588  3.23588  0.00000 -0.47177
       3     C     2.89776  2.89776  0.00000  0.20447
       4     H     0.40263  0.40263  0.00000  0.19475
       5     O     4.30235  4.30235  0.00000 -0.60469
       6     H     0.40364  0.40364  0.00000  0.19273
       7     C     3.06302  3.06302  0.00000 -0.12604
       8     C     2.45819  2.45819  0.00000  1.08363
       9     H     0.40492  0.40492  0.00000  0.19016
      10     H     0.38816  0.38816  0.00000  0.22367
      11     F     4.68272  4.68272  0.00000 -0.36543
      12     F     4.67945  4.67945  0.00000 -0.35891
      13     F     4.67408  4.67408  0.00000 -0.34817

   Total alpha = 32.00000, Total beta = 32.00000, Total charge = -0.00000
