  ==> Input File <==

--------------------------------------------------------------------------
set {
	reference rhf
	basis 6-31G*
}

set_num_threads( 1 )
memory 2 gb

molecule MOL {
0 1

O	 -0.682937	 1.318834	 -0.186099
C	 -0.860635	 0.152188	 -0.042321
C	 -2.173363	 -0.477127	 0.338347
O	 0.083258	 -0.765189	 -0.202595
H	 -2.477673	 -1.180929	 -0.427595
H	 -2.923125	 0.290956	 0.455536
H	 -2.058825	 -1.029004	 1.264191
C	 -0.263307	 -1.989660	 -0.845527
C	 -0.210155	 -1.859294	 -2.356429
H	 -1.241925	 -2.300615	 -0.512729
H	 0.471293	 -2.698757	 -0.491913
H	 -0.403792	 -2.824033	 -2.815247
H	 -0.956433	 -1.158879	 -2.709778
H	 0.769474	 -1.520590	 -2.675838

	symmetry c1
}
set optking {
	frozen_dihedral = ("
		10 8 4 2
	")
}

ee = energy('scf')
oeprop('DIPOLE', 'QUADRUPOLE', 'MULLIKEN_CHARGES')
f=open( 'psi4out.xyz', 'w' )
f.write( "14  " )
f.write( str(ee) + "\n" )
f.write( MOL.save_string_xyz() )
f.close()
--------------------------------------------------------------------------

    Molecular point group: c1

    Geometry (in Angstrom), charge = 0, multiplicity = 1:

       Center              X                  Y                   Z               Mass
    ------------   -----------------  -----------------  -----------------  -----------------
           O          0.004964122160     1.929268762400     0.371109733724    15.994914619560
           C         -0.172733877840     0.762622762400     0.514887733724    12.000000000000
           C         -1.485461877840     0.133307762400     0.895555733724    12.000000000000
           O          0.771159122160    -0.154754237600     0.354613733724    15.994914619560
           H         -1.789771877840    -0.570494237600     0.129613733724     1.007825032070
           H         -2.235223877840     0.901390762400     1.012744733724     1.007825032070
           H         -1.370923877840    -0.418569237600     1.821399733724     1.007825032070
           C          0.424594122160    -1.379225237600    -0.288318266276    12.000000000000
           C          0.477746122160    -1.248859237600    -1.799220266276    12.000000000000
           H         -0.554023877840    -1.690180237600     0.044479733724     1.007825032070
           H          1.159194122160    -2.088322237600     0.065295733724     1.007825032070
           H          0.284109122160    -2.213598237600    -2.258038266276     1.007825032070
           H         -0.268531877840    -0.548444237600    -2.152569266276     1.007825032070
           H          1.457375122160    -0.910155237600    -2.118629266276     1.007825032070

  Charge       = 0
  Multiplicity = 1
  Basis Set: 6-31G*
  Basis Set:

    Orbital Energies (a.u.)
    -----------------------

    Doubly Occupied:

       1A    -20.597910     2A    -20.547876     3A    -11.377314
       4A    -11.300121     5A    -11.237617     6A    -11.232629
       7A     -1.464527     8A     -1.368777     9A     -1.051392
      10A     -1.021557    11A     -0.898266    12A     -0.772792
      13A     -0.701477    14A     -0.692261    15A     -0.669996
      16A     -0.617083    17A     -0.596208    18A     -0.587022
      19A     -0.553951    20A     -0.543212    21A     -0.528674
      22A     -0.494630    23A     -0.451194    24A     -0.434345

  @DF-RHF Final Energy:  -305.84705817273561

   => Energetics <=

    Nuclear Repulsion Energy =            250.3996601670980624
    One-Electron Energy =                -913.0116518402593329
    Two-Electron Energy =                 356.7649335004255136
    DFT Exchange-Correlation Energy =       0.0000000000000000
    Empirical Dispersion Energy =           0.0000000000000000
    PCM Polarization Energy =               0.0000000000000000
    EFP Energy =                            0.0000000000000000
    Total Energy =                       -305.8470581727357285

  Mulliken Charges: (a.u.)
   Center  Symbol    Alpha    Beta     Spin     Total
       1     O     4.26412  4.26412  0.00000 -0.52824
       2     C     2.61324  2.61324  0.00000  0.77352
       3     C     3.31279  3.31279  0.00000 -0.62557
       4     O     4.30104  4.30104  0.00000 -0.60207
       5     H     0.40405  0.40405  0.00000  0.19191
       6     H     0.39174  0.39174  0.00000  0.21652
       7     H     0.39799  0.39799  0.00000  0.20401
       8     C     3.01700  3.01700  0.00000 -0.03401
       9     C     3.24830  3.24830  0.00000 -0.49660
      10     H     0.41469  0.41469  0.00000  0.17061
      11     H     0.40311  0.40311  0.00000  0.19377
      12     H     0.41579  0.41579  0.00000  0.16842
      13     H     0.41397  0.41397  0.00000  0.17206
      14     H     0.40217  0.40217  0.00000  0.19566

   Total alpha = 24.00000, Total beta = 24.00000, Total charge = -0.00000
