  ==> Input File <==

--------------------------------------------------------------------------
set {
	reference rhf
	basis cc-pvtz
}

set_num_threads( 4 )
memory 2 gb

molecule MOL {
0 1

H	 -1.752232	 -2.214755	 -0.011938
C	 -1.343852	 -1.221619	 -0.018179
N	 -0.058800	 -1.097635	 -0.261688
C	 -2.148159	 -0.124236	 0.219734
C	 0.449026	 0.119242	 -0.273393
H	 -3.196988	 -0.237571	 0.417076
N	 -1.655094	 1.094230	 0.209506
C	 -0.370318	 1.215445	 -0.035100
C	 1.924033	 0.265863	 -0.538106
H	 0.033214	 2.210441	 -0.046812
C	 2.618160	 1.172376	 0.479673
H	 2.372400	 -0.719901	 -0.506498
H	 2.072691	 0.654754	 -1.538545
H	 3.681181	 1.225752	 0.277011
H	 2.481708	 0.792373	 1.483644
H	 2.218000	 2.179358	 0.442190

	symmetry c1
}
set optking {
	frozen_dihedral = ("
		12 9 5 3
	")
}

ee = optimize('scf')
oeprop('DIPOLE', 'QUADRUPOLE', 'MULLIKEN_CHARGES')
f=open( 'psi4out.xyz', 'w' )
f.write( "16  " )
f.write( str(ee) + "\n" )
f.write( MOL.save_string_xyz() )
f.close()
--------------------------------------------------------------------------

    Molecular point group: c1
  Charge       = 0
  Multiplicity = 1
  Basis Set: CC-PVTZ
  Basis Set:
  @DF-RHF Final Energy:  -340.86988980112073
    Total Energy =                       -340.8698898011206211
    Molecular point group: c1
  Basis Set: CC-PVTZ
  Basis Set:
  Basis Set: CC-PVTZ
  Basis Set:
  @DF-RHF Final Energy:  -340.87012620298140
    Total Energy =                       -340.8701262029811687
  Basis Set: CC-PVTZ
  Basis Set:
  Basis Set: CC-PVTZ
  Basis Set:
  @DF-RHF Final Energy:  -340.87034183773432
    Total Energy =                       -340.8703418377344860
  Basis Set: CC-PVTZ
  Basis Set:
  Basis Set: CC-PVTZ
  Basis Set:
  @DF-RHF Final Energy:  -340.87035993478753
    Total Energy =                       -340.8703599347869613
  Basis Set: CC-PVTZ
  Basis Set:
  Basis Set: CC-PVTZ
  Basis Set:
  @DF-RHF Final Energy:  -340.87036460308468
    Total Energy =                       -340.8703646030846244
  Basis Set: CC-PVTZ
  Basis Set:
  Basis Set: CC-PVTZ
  Basis Set:
  @DF-RHF Final Energy:  -340.87036603396706
    Total Energy =                       -340.8703660339668318
  Basis Set: CC-PVTZ
  Basis Set:
  Charge       = 0
  Multiplicity = 1
  Basis Set: CC-PVTZ
  Basis Set:

    Orbital Energies (a.u.)
    -----------------------

    Doubly Occupied:

       1A    -15.580250     2A    -15.575349     3A    -11.279332
       4A    -11.270813     5A    -11.268878     6A    -11.266718
       7A    -11.231638     8A    -11.221593     9A     -1.315424
      10A     -1.223307    11A     -1.086524    12A     -1.016535
      13A     -0.907175    14A     -0.895707    15A     -0.831699
      16A     -0.716744    17A     -0.713669    18A     -0.656422
      19A     -0.620745    20A     -0.608680    21A     -0.579332
      22A     -0.565686    23A     -0.523046    24A     -0.512135
      25A     -0.506107    26A     -0.483314    27A     -0.433557
      28A     -0.397484    29A     -0.346396

  @DF-RHF Final Energy:  -340.87036640105435

   => Energetics <=

    Nuclear Repulsion Energy =            350.0065225404717353
    One-Electron Energy =               -1154.4852639890600585
    Two-Electron Energy =                 463.6083750475337411
    DFT Exchange-Correlation Energy =       0.0000000000000000
    Empirical Dispersion Energy =           0.0000000000000000
    PCM Polarization Energy =               0.0000000000000000
    EFP Energy =                            0.0000000000000000
    Total Energy =                       -340.8703664010546390
    Molecular point group: c1
  Basis Set: CC-PVTZ
  Basis Set:

  -Total Gradient:
     Atom            X                  Y                   Z
    ------   -----------------  -----------------  -----------------
       1        0.000003652795    -0.000000406943     0.000002390946
       2        0.000004271335     0.000000655132    -0.000049971063
       3       -0.000185670715     0.000067455068    -0.000921813848
       4        0.000017242779     0.000007307157     0.000046372757
       5        0.000303705069    -0.000088050354     0.001546669232
       6       -0.000000535706     0.000001248309    -0.000003634811
       7       -0.000002537564     0.000001746566    -0.000016083429
       8       -0.000003312813     0.000005722531    -0.000017189016
       9       -0.000303506190    -0.000062020673    -0.001646129237
      10       -0.000003022477    -0.000002527380     0.000020330463
      11       -0.000013769665    -0.000018748729    -0.000028194320
      12        0.000186875070     0.000079471113     0.001070609192
      13        0.000000375664    -0.000008473533    -0.000016142547
      14       -0.000008372570     0.000003343243     0.000007423538
      15        0.000001226502     0.000002822152    -0.000002058040
      16        0.000003378484     0.000010456342     0.000007420182

  **** Optimization is complete! (in 7 steps) ****
    Final optimized geometry and variables:
    Molecular point group: c1

    Geometry (in Angstrom), charge = 0, multiplicity = 1:

    H           -1.721086683769    -2.418669873273    -0.004628055391
    C           -1.323931387418    -1.421280638333    -0.005425410258
    N           -0.030472830053    -1.286684468579    -0.221701822130
    C           -2.139494407449    -0.334152483123     0.210755970120
    C            0.469778068453    -0.070520156864    -0.221976628465
    H           -3.191402504972    -0.452807283557     0.385983093628
    N           -1.653872884421     0.891736191018     0.206442998644
    C           -0.368581148649     1.022593879790    -0.006729965008
    C            1.946153032992     0.083659680644    -0.497660753254
    H            0.021290444238     2.022216092215    -0.013253374581
    C            2.690840212531     0.984194031181     0.488514758518
    H            2.375438280621    -0.907904778172    -0.477283814068
    H            2.075994321455     0.466349630377    -1.505714414598
    H            3.747820661604     0.998846590559     0.252227598734
    H            2.579976720980     0.623182563964     1.504303519068
    H            2.336457118582     2.007048287976     0.457611105384

  Mulliken Charges: (a.u.)
   Center  Symbol    Alpha    Beta     Spin     Total
       1     H     0.41385  0.41385  0.00000  0.17231
       2     C     3.04092  3.04092  0.00000 -0.08185
       3     N     3.58959  3.58959  0.00000 -0.17919
       4     C     3.04811  3.04811  0.00000 -0.09622
       5     C     2.95163  2.95163  0.00000  0.09673
       6     H     0.41360  0.41360  0.00000  0.17279
       7     N     3.58784  3.58784  0.00000 -0.17567
       8     C     3.07455  3.07455  0.00000 -0.14910
       9     C     3.07969  3.07969  0.00000 -0.15938
      10     H     0.41454  0.41454  0.00000  0.17092
      11     C     3.14864  3.14864  0.00000 -0.29728
      12     H     0.44044  0.44044  0.00000  0.11911
      13     H     0.44659  0.44659  0.00000  0.10682
      14     H     0.44645  0.44645  0.00000  0.10711
      15     H     0.44845  0.44845  0.00000  0.10310
      16     H     0.45510  0.45510  0.00000  0.08980

   Total alpha = 29.00000, Total beta = 29.00000, Total charge =  0.00000
