  ==> Input File <==

--------------------------------------------------------------------------
set {
	reference rhf
	basis 6-31G*
}

set_num_threads( 1 )
memory 2 gb

molecule MOL {
0 1

H	 3.895441	 0.352904	 -0.047622
N	 3.092854	 -0.246221	 -0.068770
C	 1.865559	 0.531981	 0.018834
H	 3.172920	 -0.865036	 0.715760
C	 0.645745	 -0.382037	 -0.029944
H	 1.841966	 1.207024	 -0.831236
H	 1.815756	 1.155410	 0.915079
C	 -0.679275	 0.379305	 0.025956
H	 0.698998	 -0.976915	 -0.937203
H	 0.693479	 -1.083846	 0.802235
C	 -1.903357	 -0.536963	 -0.023547
H	 -0.726309	 1.082987	 -0.803784
H	 -0.717680	 0.977832	 0.934877
C	 -3.225172	 0.228290	 0.028445
H	 -1.867824	 -1.134999	 -0.931459
H	 -1.860449	 -1.239604	 0.805977
H	 -3.313397	 0.915643	 -0.808262
H	 -4.073500	 -0.448134	 -0.008893
H	 -3.306061	 0.809945	 0.942516

	symmetry c1
}
set optking {
	frozen_dihedral = ("
		6 3 5 9,
		12 8 5 9,
		12 8 11 15
	")
}

ee = energy('scf')
oeprop('DIPOLE', 'QUADRUPOLE', 'MULLIKEN_CHARGES')
f=open( 'psi4out.xyz', 'w' )
f.write( "19  " )
f.write( str(ee) + "\n" )
f.write( MOL.save_string_xyz() )
f.close()
--------------------------------------------------------------------------

    Molecular point group: c1

    Geometry (in Angstrom), charge = 0, multiplicity = 1:

       Center              X                  Y                   Z               Mass
    ------------   -----------------  -----------------  -----------------  -----------------
           H          3.895722434397     0.353384271863    -0.047940864259     1.007825032070
           N          3.093135434397    -0.245740728137    -0.069088864259    14.003074004780
           C          1.865840434397     0.532461271863     0.018515135741    12.000000000000
           H          3.173201434397    -0.864555728137     0.715441135741     1.007825032070
           C          0.646026434397    -0.381556728137    -0.030262864259    12.000000000000
           H          1.842247434397     1.207504271863    -0.831554864259     1.007825032070
           H          1.816037434397     1.155890271863     0.914760135741     1.007825032070
           C         -0.678993565603     0.379785271863     0.025637135741    12.000000000000
           H          0.699279434397    -0.976434728137    -0.937521864259     1.007825032070
           H          0.693760434397    -1.083365728137     0.801916135741     1.007825032070
           C         -1.903075565603    -0.536482728137    -0.023865864259    12.000000000000
           H         -0.726027565603     1.083467271863    -0.804102864259     1.007825032070
           H         -0.717398565603     0.978312271863     0.934558135741     1.007825032070
           C         -3.224890565603     0.228770271863     0.028126135741    12.000000000000
           H         -1.867542565603    -1.134518728137    -0.931777864259     1.007825032070
           H         -1.860167565603    -1.239123728137     0.805658135741     1.007825032070
           H         -3.313115565603     0.916123271863    -0.808580864259     1.007825032070
           H         -4.073218565603    -0.447653728137    -0.009211864259     1.007825032070
           H         -3.305779565603     0.810425271863     0.942197135741     1.007825032070

  Charge       = 0
  Multiplicity = 1
  Basis Set: 6-31G*
  Basis Set:

    Orbital Energies (a.u.)
    -----------------------

    Doubly Occupied:

       1A    -15.532362     2A    -11.239678     3A    -11.214206
       4A    -11.213088     5A    -11.210125     6A    -11.207681
       7A     -1.176608     8A     -1.073213     9A     -0.998588
      10A     -0.900297    11A     -0.813339    12A     -0.789727
      13A     -0.663578    14A     -0.642821    15A     -0.616883
      16A     -0.589311    17A     -0.564737    18A     -0.547712
      19A     -0.531227    20A     -0.498492    21A     -0.481373
      22A     -0.465369    23A     -0.461424    24A     -0.449477
      25A     -0.380976

  @DF-RHF Final Energy:  -251.35171101942279

   => Energetics <=

    Nuclear Repulsion Energy =            245.6683838286521677
    One-Electron Energy =                -825.5156195824322367
    Two-Electron Energy =                 328.4955247343570477
    DFT Exchange-Correlation Energy =       0.0000000000000000
    Empirical Dispersion Energy =           0.0000000000000000
    PCM Polarization Energy =               0.0000000000000000
    EFP Energy =                            0.0000000000000000
    Total Energy =                       -251.3517110194230213

  Mulliken Charges: (a.u.)
   Center  Symbol    Alpha    Beta     Spin     Total
       1     H     0.33258  0.33258  0.00000  0.33484
       2     N     3.92205  3.92205  0.00000 -0.84410
       3     C     3.05918  3.05918  0.00000 -0.11837
       4     H     0.33549  0.33549  0.00000  0.32901
       5     C     3.15283  3.15283  0.00000 -0.30565
       6     H     0.42066  0.42066  0.00000  0.15867
       7     H     0.43495  0.43495  0.00000  0.13010
       8     C     3.15472  3.15472  0.00000 -0.30944
       9     H     0.41295  0.41295  0.00000  0.17410
      10     H     0.42779  0.42779  0.00000  0.14442
      11     C     3.15091  3.15091  0.00000 -0.30182
      12     H     0.42339  0.42339  0.00000  0.15321
      13     H     0.42471  0.42471  0.00000  0.15058
      14     C     3.23934  3.23934  0.00000 -0.47867
      15     H     0.42184  0.42184  0.00000  0.15631
      16     H     0.42331  0.42331  0.00000  0.15339
      17     H     0.42172  0.42172  0.00000  0.15655
      18     H     0.41932  0.41932  0.00000  0.16135
      19     H     0.42224  0.42224  0.00000  0.15552

   Total alpha = 25.00000, Total beta = 25.00000, Total charge =  0.00000
