  ==> Input File <==

--------------------------------------------------------------------------
set {
	reference rhf
	basis 6-31G*
}

set_num_threads( 1 )
memory 2 gb

molecule MOL {
0 1

H	 3.276176	 0.174363	 -0.109463
N	 2.434251	 -0.367735	 -0.081097
C	 1.267428	 0.496480	 0.024474
H	 2.501951	 -0.965776	 0.720575
C	 -0.016086	 -0.325158	 -0.029487
H	 1.288818	 1.183521	 -0.816092
H	 1.267576	 1.109062	 0.929528
C	 -1.282277	 0.529072	 0.046735
H	 -0.012495	 -0.908639	 -0.945788
H	 -0.015903	 -1.041248	 0.791956
C	 -1.988392	 0.426005	 1.398208
H	 -1.968968	 0.226614	 -0.741276
H	 -1.031956	 1.569603	 -0.149710
H	 -2.283281	 -0.597981	 1.608477
H	 -2.883267	 1.040107	 1.422700
H	 -1.339535	 0.754390	 2.205283

	symmetry c1
}
set optking {
	frozen_dihedral = ("
		6 3 5 9,
		1 2 3 6
	")
}

ee = energy('scf')
oeprop('DIPOLE', 'QUADRUPOLE', 'MULLIKEN_CHARGES')
f=open( 'psi4out.xyz', 'w' )
f.write( "16  " )
f.write( str(ee) + "\n" )
f.write( MOL.save_string_xyz() )
f.close()
--------------------------------------------------------------------------

    Molecular point group: c1

    Geometry (in Angstrom), charge = 0, multiplicity = 1:

       Center              X                  Y                   Z               Mass
    ------------   -----------------  -----------------  -----------------  -----------------
           H          3.157898635721     0.024801940886    -0.398127079926     1.007825032070
           N          2.315973635721    -0.517296059114    -0.369761079926    14.003074004780
           C          1.149150635721     0.346918940886    -0.264190079926    12.000000000000
           H          2.383673635721    -1.115337059114     0.431910920074     1.007825032070
           C         -0.134363364279    -0.474719059114    -0.318151079926    12.000000000000
           H          1.170540635721     1.033959940886    -1.104756079926     1.007825032070
           H          1.149298635721     0.959500940886     0.640863920074     1.007825032070
           C         -1.400554364279     0.379510940886    -0.241929079926    12.000000000000
           H         -0.130772364279    -1.058200059114    -1.234452079926     1.007825032070
           H         -0.134180364279    -1.190809059114     0.503291920074     1.007825032070
           C         -2.106669364279     0.276443940886     1.109543920074    12.000000000000
           H         -2.087245364279     0.077052940886    -1.029940079926     1.007825032070
           H         -1.150233364279     1.420041940886    -0.438374079926     1.007825032070
           H         -2.401558364279    -0.747542059114     1.319812920074     1.007825032070
           H         -3.001544364279     0.890545940886     1.134035920074     1.007825032070
           H         -1.457812364279     0.604828940886     1.916618920074     1.007825032070

  Charge       = 0
  Multiplicity = 1
  Basis Set: 6-31G*
  Basis Set:

    Orbital Energies (a.u.)
    -----------------------

    Doubly Occupied:

       1A    -15.532508     2A    -11.240400     3A    -11.213848
       4A    -11.208709     5A    -11.208164     6A     -1.176775
       7A     -1.060030     8A     -0.957037     9A     -0.848922
      10A     -0.789171    11A     -0.659608    12A     -0.637075
      13A     -0.608531    14A     -0.581142    15A     -0.561936
      16A     -0.524316    17A     -0.505494    18A     -0.470468
      19A     -0.459868    20A     -0.458934    21A     -0.381163

  @DF-RHF Final Energy:  -212.31205337690935

   => Energetics <=

    Nuclear Repulsion Energy =            187.6342839946836136
    One-Electron Energy =                -657.7246054171523610
    Two-Electron Energy =                 257.7782680455596847
    DFT Exchange-Correlation Energy =       0.0000000000000000
    Empirical Dispersion Energy =           0.0000000000000000
    PCM Polarization Energy =               0.0000000000000000
    EFP Energy =                            0.0000000000000000
    Total Energy =                       -212.3120533769090343

  Mulliken Charges: (a.u.)
   Center  Symbol    Alpha    Beta     Spin     Total
       1     H     0.33258  0.33258  0.00000  0.33484
       2     N     3.92178  3.92178  0.00000 -0.84356
       3     C     3.06298  3.06298  0.00000 -0.12596
       4     H     0.33525  0.33525  0.00000  0.32949
       5     C     3.15343  3.15343  0.00000 -0.30686
       6     H     0.42024  0.42024  0.00000  0.15952
       7     H     0.43468  0.43468  0.00000  0.13063
       8     C     3.15866  3.15866  0.00000 -0.31732
       9     H     0.41086  0.41086  0.00000  0.17828
      10     H     0.42540  0.42540  0.00000  0.14920
      11     C     3.23990  3.23990  0.00000 -0.47979
      12     H     0.41860  0.41860  0.00000  0.16280
      13     H     0.42145  0.42145  0.00000  0.15710
      14     H     0.42093  0.42093  0.00000  0.15814
      15     H     0.42030  0.42030  0.00000  0.15940
      16     H     0.42295  0.42295  0.00000  0.15411

   Total alpha = 21.00000, Total beta = 21.00000, Total charge = -0.00000
