                              Psi4 1.0.54 Driver

  ==> Input File <==

--------------------------------------------------------------------------
set {
	reference rhf
	basis cc-pvtz
}

set_num_threads( 4 )
memory 2 gb

molecule MOL {
0 1

O	 -2.817697	 1.304178	 0.001046
C	 -2.664672	 0.129869	 0.003507
C	 -3.797908	 -0.860100	 -0.001145
O	 -1.481217	 -0.452708	 0.001092
H	 -4.408836	 -0.679689	 -0.875387
H	 -3.443486	 -1.878443	 -0.002770
H	 -4.412123	 -0.683688	 0.871605
C	 -0.332055	 0.384012	 -0.000250
C	 0.892252	 -0.506059	 -0.000295
H	 -0.360822	 1.020205	 -0.874146
H	 -0.359817	 1.021310	 0.872861
C	 1.752329	 -0.300136	 1.243178
H	 1.475537	 -0.302035	 -0.892384
H	 0.574400	 -1.541723	 -0.063828
C	 2.993315	 -1.188159	 1.265366
H	 2.057567	 0.741521	 1.304478
H	 1.157442	 -0.495724	 2.131901
C	 3.852440	 -0.983543	 2.508365
H	 3.589491	 -0.992362	 0.378633
H	 2.689537	 -2.229350	 1.204317
H	 4.200466	 0.041492	 2.579263
H	 4.723717	 -1.627863	 2.493101
H	 3.293426	 -1.204771	 3.411368

	symmetry c1
}
set optking {
	frozen_dihedral = ("
		13 9 8 10
	")
}

ee,wfn = optimize('scf', return_wfn=True)
oeprop( wfn, 'DIPOLE', 'QUADRUPOLE', 'MULLIKEN_CHARGES')
f=open( 'psi4out.xyz', 'w' )
f.write( "23  " )
f.write( str(ee) + "\n" )
f.write( MOL.save_string_xyz() )
f.close()
--------------------------------------------------------------------------

    Molecular point group: c1
  Charge       = 0
  Multiplicity = 1
  Basis Set: CC-PVTZ
  Basis Set:
  @DF-RHF Final Energy:  -423.12864017575595
    Total Energy =                       -423.1286401757560043
    Molecular point group: c1
  Basis Set: CC-PVTZ
  Basis Set:
  Basis Set: CC-PVTZ
  Basis Set:
  @DF-RHF Final Energy:  -423.12880725640673
    Total Energy =                       -423.1288072564068443
  Basis Set: CC-PVTZ
  Basis Set:
  Basis Set: CC-PVTZ
  Basis Set:
  @DF-RHF Final Energy:  -423.12741381475689
    Total Energy =                       -423.1274138147570056
  Basis Set: CC-PVTZ
  Basis Set:
  Basis Set: CC-PVTZ
  Basis Set:
  @DF-RHF Final Energy:  -423.12905963632278
    Total Energy =                       -423.1290596363227223
  Basis Set: CC-PVTZ
  Basis Set:
  Basis Set: CC-PVTZ
  Basis Set:
  @DF-RHF Final Energy:  -423.12907612805378
    Total Energy =                       -423.1290761280540664
  Basis Set: CC-PVTZ
  Basis Set:
  Charge       = 0
  Multiplicity = 1
  Basis Set: CC-PVTZ
  Basis Set:

    Orbital Energies (a.u.)
    -----------------------

    Doubly Occupied:

       1A    -20.596025     2A    -20.529464     3A    -11.366155
       4A    -11.279755     5A    -11.230787     6A    -11.222096
       7A    -11.219918     8A    -11.218410     9A    -11.210479
      10A     -1.470866    11A     -1.363702    12A     -1.092769
      13A     -1.041898    14A     -1.003258    15A     -0.931647
      16A     -0.843440    17A     -0.800823    18A     -0.781723
      19A     -0.691013    20A     -0.684525    21A     -0.670082
      22A     -0.646260    23A     -0.608846    24A     -0.584476
      25A     -0.581734    26A     -0.572450    27A     -0.559521
      28A     -0.536238    29A     -0.527765    30A     -0.502183
      31A     -0.499255    32A     -0.475128    33A     -0.471215
      34A     -0.466616    35A     -0.447634    36A     -0.439038

  @DF-RHF Final Energy:  -423.12907632322850

   => Energetics <=

    Nuclear Repulsion Energy =            452.4021744985736291
    One-Electron Energy =               -1472.7280999509691810
    Two-Electron Energy =                 597.1968491291670489
    DFT Exchange-Correlation Energy =       0.0000000000000000
    Empirical Dispersion Energy =           0.0000000000000000
    PCM Polarization Energy =               0.0000000000000000
    EFP Energy =                            0.0000000000000000
    Total Energy =                       -423.1290763232284462
    Molecular point group: c1
  Basis Set: CC-PVTZ
  Basis Set:

  -Total Gradient:
     Atom            X                  Y                   Z
    ------   -----------------  -----------------  -----------------
       1        0.000051664492    -0.000048952074    -0.000025088855
       2        0.000030526673    -0.000061272024     0.000083499850
       3       -0.000021931027     0.000017497031    -0.000032384651
       4       -0.000077119457     0.000050133986     0.000002277290
       5        0.000011244723    -0.000007915528     0.000033111080
       6       -0.000008400988    -0.000003523401    -0.000001268586
       7        0.000036381010     0.000002225206    -0.000036478704
       8       -0.000524521132    -0.000762667093    -0.000675547289
       9        0.000570292260     0.000821647127     0.000581090085
      10        0.000420305210     0.000551462867     0.000404064511
      11        0.000012728537     0.000001611578     0.000016154763
      12       -0.000061647614    -0.000030831649     0.000042413237
      13       -0.000421440016    -0.000541954264    -0.000406018658
      14       -0.000024205737    -0.000007059176     0.000018351172
      15       -0.000004910472     0.000012989979    -0.000024867528
      16       -0.000013376660     0.000027602197     0.000016462780
      17       -0.000008985405    -0.000030791026     0.000022615210
      18        0.000005288203     0.000023198318    -0.000018427069
      19        0.000019614621    -0.000010751676    -0.000016643893
      20       -0.000011408601    -0.000003935952     0.000010823492
      21        0.000008661249     0.000019900459     0.000005573390
      22        0.000025135643    -0.000010980223    -0.000000418393
      23       -0.000013895509    -0.000007634659     0.000000706766

  **** Optimization is complete! (in 6 steps) ****
    Final optimized geometry and variables:
    Molecular point group: c1

    Geometry (in Angstrom), charge = 0, multiplicity = 1:

    O           -2.616323582260     1.611019391488    -0.550239497159
    C           -2.477714607926     0.434763292425    -0.549002293641
    C           -3.623998647562    -0.540450522038    -0.540845557508
    O           -1.302113205787    -0.162714815091    -0.555255839922
    H           -4.239126107662    -0.355308873039    -1.411146203425
    H           -3.283430543036    -1.563571180093    -0.541166518599
    H           -4.229062533466    -0.352390765925     0.335848416204
    C           -0.141737304432     0.662736110459    -0.565374059943
    C            1.096482517694    -0.235777744892    -0.557594302119
    H           -0.176939874540     1.298956022900    -1.437025437750
    H           -0.172368894218     1.305581184306     0.302751980500
    C            1.965244917543    -0.064220548418     0.685922166747
    H            1.689601813624    -0.041899612227    -1.444728304432
    H            0.768059215108    -1.265238670498    -0.631837828615
    C            3.199172781912    -0.960799208191     0.684308107150
    H            2.277107004775     0.974291752539     0.768605558078
    H            1.367356503384    -0.273905973831     1.569555407586
    C            4.067444802418    -0.786051447688     1.925700424597
    H            3.792279498086    -0.753151383017    -0.202204049798
    H            2.887376884117    -1.998642310295     0.605285018439
    H            4.423302796211     0.235034666338     2.013964764485
    H            4.934027288904    -1.436182511252     1.892926442260
    H            3.512113792546    -1.020422795356     2.827725371644

  Mulliken Charges: (a.u.)
   Center  Symbol    Alpha    Beta     Spin     Total
       1     O     4.20261  4.20261  0.00000 -0.40522
       2     C     2.81119  2.81119  0.00000  0.37762
       3     C     3.13892  3.13892  0.00000 -0.27784
       4     O     4.14664  4.14664  0.00000 -0.29328
       5     H     0.44203  0.44203  0.00000  0.11594
       6     H     0.44227  0.44227  0.00000  0.11545
       7     H     0.44224  0.44224  0.00000  0.11552
       8     C     2.98472  2.98472  0.00000  0.03056
       9     C     3.09247  3.09247  0.00000 -0.18494
      10     H     0.45013  0.45013  0.00000  0.09974
      11     H     0.45370  0.45370  0.00000  0.09259
      12     C     3.09351  3.09351  0.00000 -0.18701
      13     H     0.44886  0.44886  0.00000  0.10228
      14     H     0.44569  0.44569  0.00000  0.10861
      15     C     3.08638  3.08638  0.00000 -0.17276
      16     H     0.45293  0.45293  0.00000  0.09414
      17     H     0.45148  0.45148  0.00000  0.09703
      18     C     3.14949  3.14949  0.00000 -0.29898
      19     H     0.45406  0.45406  0.00000  0.09188
      20     H     0.45349  0.45349  0.00000  0.09302
      21     H     0.45468  0.45468  0.00000  0.09063
      22     H     0.44791  0.44791  0.00000  0.10418
      23     H     0.45459  0.45459  0.00000  0.09082

   Total alpha = 36.00000, Total beta = 36.00000, Total charge =  0.00000

*** Psi4 exiting successfully. Buy a developer a beer!
