                              Psi4 1.0.54 Driver

  ==> Input File <==

--------------------------------------------------------------------------
set {
	reference rhf
	basis cc-pvtz
}

set_num_threads( 4 )
memory 2 gb

molecule MOL {
0 1

H	 0.395136	 3.540761	 -1.852900
O	 -0.067968	 2.949236	 -1.289263
C	 0.803130	 1.958494	 -0.807978
C	 0.027642	 1.012027	 0.090274
H	 1.609712	 2.409673	 -0.235589
H	 1.255289	 1.417152	 -1.634394
C	 -1.138737	 0.285728	 -0.581921
H	 -0.350894	 1.583555	 0.931447
H	 0.728474	 0.285268	 0.493844
C	 -1.933983	 -0.631436	 0.343653
H	 -0.763151	 -0.285569	 -1.422081
H	 -1.808359	 1.035291	 -0.992333
H	 -2.789188	 -1.049673	 -0.174718
H	 -1.335629	 -1.461368	 0.700418
H	 -2.305435	 -0.092167	 1.209725

	symmetry c1
}
set optking {
	frozen_dihedral = ("
		8 4 7 11
	")
}

ee,wfn = optimize('scf', return_wfn=True)
oeprop( wfn, 'DIPOLE', 'QUADRUPOLE', 'MULLIKEN_CHARGES')
f=open( 'psi4out.xyz', 'w' )
f.write( "15  " )
f.write( str(ee) + "\n" )
f.write( MOL.save_string_xyz() )
f.close()
--------------------------------------------------------------------------

    Molecular point group: c1
  Charge       = 0
  Multiplicity = 1
  Basis Set: CC-PVTZ
  Basis Set:
  @DF-RHF Final Energy:  -232.23857944819844
    Total Energy =                       -232.2385794481984362
    Molecular point group: c1
  Basis Set: CC-PVTZ
  Basis Set:
  Basis Set: CC-PVTZ
  Basis Set:
  @DF-RHF Final Energy:  -232.23901305440444
    Total Energy =                       -232.2390130544044382
  Basis Set: CC-PVTZ
  Basis Set:
  Basis Set: CC-PVTZ
  Basis Set:
  @DF-RHF Final Energy:  -232.23909672654273
    Total Energy =                       -232.2390967265425843
  Basis Set: CC-PVTZ
  Basis Set:
  Basis Set: CC-PVTZ
  Basis Set:
  @DF-RHF Final Energy:  -232.23909943467586
    Total Energy =                       -232.2390994346758362
  Basis Set: CC-PVTZ
  Basis Set:
  Charge       = 0
  Multiplicity = 1
  Basis Set: CC-PVTZ
  Basis Set:

    Orbital Energies (a.u.)
    -----------------------

    Doubly Occupied:

       1A    -20.546356     2A    -11.266058     3A    -11.210645
       4A    -11.207373     5A    -11.203108     6A     -1.364267
       7A     -1.066425     8A     -0.975111     9A     -0.857208
      10A     -0.787401    11A     -0.708396    12A     -0.639660
      13A     -0.611853    14A     -0.593668    15A     -0.547915
      16A     -0.529485    17A     -0.515002    18A     -0.476528
      19A     -0.465974    20A     -0.458513    21A     -0.432919

  @DF-RHF Final Energy:  -232.23909989701656

   => Energetics <=

    Nuclear Repulsion Energy =            188.8466201398034627
    One-Electron Energy =                -689.2437089431342656
    Two-Electron Energy =                 268.1579889063141309
    DFT Exchange-Correlation Energy =       0.0000000000000000
    Empirical Dispersion Energy =           0.0000000000000000
    PCM Polarization Energy =               0.0000000000000000
    EFP Energy =                            0.0000000000000000
    Total Energy =                       -232.2390998970166720
    Molecular point group: c1
  Basis Set: CC-PVTZ
  Basis Set:

  -Total Gradient:
     Atom            X                  Y                   Z
    ------   -----------------  -----------------  -----------------
       1       -0.000005367954     0.000001447678     0.000009162271
       2       -0.000029096973     0.000018527539    -0.000008244008
       3        0.000055046961     0.000002943184    -0.000012125152
       4        0.000031691695    -0.000093518858     0.000053846203
       5       -0.000023640079    -0.000015708142    -0.000010821077
       6        0.000008608949    -0.000009290121     0.000016253772
       7        0.000002055509    -0.000059031783     0.000101786076
       8       -0.000017927190     0.000079543577    -0.000070077955
       9       -0.000005988002    -0.000000097918     0.000003668871
      10       -0.000004354166    -0.000046387164    -0.000020209809
      11       -0.000019384010     0.000085383950    -0.000049282565
      12       -0.000004399658     0.000014368633    -0.000013652103
      13        0.000017082558     0.000006699633     0.000016987770
      14       -0.000009839012     0.000010056139    -0.000001185047
      15        0.000005511372     0.000005063654    -0.000016107244

  **** Optimization is complete! (in 5 steps) ****
    Final optimized geometry and variables:
    Molecular point group: c1

    Geometry (in Angstrom), charge = 0, multiplicity = 1:

    H            0.856303696391     2.385959032475    -1.358792302360
    O            0.395512279552     1.814112739361    -0.773515288564
    C            1.238760020862     0.774537919766    -0.349353850887
    C            0.460095481245    -0.153921656475     0.562176735875
    H            2.093761607119     1.177877460336     0.187211092324
    H            1.618588531795     0.220218732457    -1.205410865347
    C           -0.694339074688    -0.873573204797    -0.129481898662
    H            0.082378857072     0.425657412961     1.399244554525
    H            1.153732830725    -0.884065952493     0.971504287190
    C           -1.460741271926    -1.798161177196     0.810283893771
    H           -0.305640764217    -1.450261565676    -0.965147417120
    H           -1.369825035385    -0.139033161473    -0.550535058175
    H           -2.271070256028    -2.298664654322     0.292838583307
    H           -0.812647742897    -2.562580405782     1.226896039556
    H           -1.890457552457    -1.244080491933     1.638201687017

  Mulliken Charges: (a.u.)
   Center  Symbol    Alpha    Beta     Spin     Total
       1     H     0.39555  0.39555  0.00000  0.20890
       2     O     4.19904  4.19904  0.00000 -0.39808
       3     C     2.97293  2.97293  0.00000  0.05413
       4     C     3.08783  3.08783  0.00000 -0.17565
       5     H     0.46563  0.46563  0.00000  0.06874
       6     H     0.47387  0.47387  0.00000  0.05226
       7     C     3.08360  3.08360  0.00000 -0.16720
       8     H     0.45265  0.45265  0.00000  0.09469
       9     H     0.45500  0.45500  0.00000  0.09001
      10     C     3.14964  3.14964  0.00000 -0.29927
      11     H     0.45905  0.45905  0.00000  0.08189
      12     H     0.44447  0.44447  0.00000  0.11107
      13     H     0.44891  0.44891  0.00000  0.10219
      14     H     0.45732  0.45732  0.00000  0.08537
      15     H     0.45452  0.45452  0.00000  0.09096

   Total alpha = 21.00000, Total beta = 21.00000, Total charge = -0.00000

*** Psi4 exiting successfully. Buy a developer a beer!
