  ==> Input File <==

--------------------------------------------------------------------------
set {
	reference rhf
	basis 6-31G*
}

set_num_threads( 4 )
memory 2 gb

molecule MOL {
0 1

H	 -3.161837	 0.500524	 -0.000234
C	 -2.367097	 -0.232926	 -0.000000
O	 -1.158440	 0.455814	 -0.000122
H	 -2.468853	 -0.861886	 -0.882833
H	 -2.468942	 -0.861421	 0.883154
C	 -0.652141	 0.727246	 1.271829
C	 0.660571	 1.477254	 1.127132
H	 -0.498404	 -0.202648	 1.820975
H	 -1.367327	 1.322189	 1.841443
C	 1.290850	 1.817919	 2.476790
H	 1.340960	 0.869830	 0.538261
H	 0.478172	 2.384035	 0.558644
H	 1.504146	 0.921417	 3.052299
H	 2.225268	 2.352731	 2.343807
H	 0.634865	 2.445887	 3.073232

	symmetry c1
}
set optking {
	frozen_dihedral = ("
		6 3 2 4
	")
}

ee = optimize('scf')
oeprop('DIPOLE', 'QUADRUPOLE', 'MULLIKEN_CHARGES')
f=open( 'psi4out.xyz', 'w' )
f.write( "15  " )
f.write( str(ee) + "\n" )
f.write( MOL.save_string_xyz() )
f.close()
--------------------------------------------------------------------------

    Molecular point group: c1
  Charge       = 0
  Multiplicity = 1
  Basis Set: 6-31G*
  Basis Set:
  @DF-RHF Final Energy:  -232.13643317771471
    Total Energy =                       -232.1364331777145367
    Molecular point group: c1
  Basis Set: 6-31G*
  Basis Set:
  Basis Set: 6-31G*
  Basis Set:
  @DF-RHF Final Energy:  -232.13729642353545
    Total Energy =                       -232.1372964235354175
  Basis Set: 6-31G*
  Basis Set:
  Basis Set: 6-31G*
  Basis Set:
  @DF-RHF Final Energy:  -232.13749621520031
    Total Energy =                       -232.1374962152003150
  Basis Set: 6-31G*
  Basis Set:
  Charge       = 0
  Multiplicity = 1
  Basis Set: 6-31G*
  Basis Set:

    Orbital Energies (a.u.)
    -----------------------

    Doubly Occupied:

       1A    -20.551458     2A    -11.266515     3A    -11.263662
       4A    -11.213966     5A    -11.212794     6A     -1.375675
       7A     -1.057072     8A     -0.955302     9A     -0.877322
      10A     -0.808929    11A     -0.673158    12A     -0.652724
      13A     -0.629394    14A     -0.608114    15A     -0.564365
      16A     -0.544112    17A     -0.502317    18A     -0.487883
      19A     -0.478503    20A     -0.460843    21A     -0.411290

  @DF-RHF Final Energy:  -232.13749677730712

   => Energetics <=

    Nuclear Repulsion Energy =            189.5674530615345077
    One-Electron Energy =                -690.2191049119976469
    Two-Electron Energy =                 268.5141550731560187
    DFT Exchange-Correlation Energy =       0.0000000000000000
    Empirical Dispersion Energy =           0.0000000000000000
    PCM Polarization Energy =               0.0000000000000000
    EFP Energy =                            0.0000000000000000
    Total Energy =                       -232.1374967773071489
    Molecular point group: c1
  Basis Set: 6-31G*
  Basis Set:

  -Total Gradient:
     Atom            X                  Y                   Z
    ------   -----------------  -----------------  -----------------
       1        0.000014427611     0.000017220317    -0.000008565144
       2       -0.001109923909     0.001974829968    -0.001831997637
       3       -0.001481949538     0.002591820724     0.000303211084
       4        0.001344477928    -0.002293545522     0.001526581709
       5        0.000032806583     0.000003947502     0.000015672312
       6        0.001248802936    -0.002333932412     0.000052445292
       7       -0.000018083305     0.000004476338    -0.000040241832
       8       -0.000004436932     0.000002338530     0.000042938444
       9       -0.000001169326     0.000000732143    -0.000064791519
      10       -0.000027348980     0.000022907108     0.000009617410
      11       -0.000027480530    -0.000012303652     0.000001826469
      12        0.000031484073     0.000020766499    -0.000005579490
      13        0.000002212102    -0.000002025824    -0.000011694616
      14       -0.000006035655     0.000005001564    -0.000003771380
      15        0.000002216944    -0.000002233282     0.000014348900

  **** Optimization is complete! (in 4 steps) ****
    Final optimized geometry and variables:
    Molecular point group: c1

    Geometry (in Angstrom), charge = 0, multiplicity = 1:

    H           -2.743129697171    -0.369199970629    -0.970288921870
    C           -1.903663749152    -1.059914500252    -0.976378594178
    O           -0.686512436809    -0.380567660796    -0.960434698434
    H           -1.938602712813    -1.667108765586    -1.871734268788
    H           -2.000215993552    -1.725564020163    -0.121452796617
    C           -0.179444973055    -0.099466836303     0.309988970651
    C            1.138127011007     0.639696475232     0.155240212436
    H           -0.031492595670    -1.025346411471     0.866142406145
    H           -0.887032512514     0.507532623763     0.876313906807
    C            1.776219151297     0.984204820666     1.500336222711
    H            1.810945099187     0.022863054161    -0.432606047680
    H            0.960952206046     1.544283146246    -0.418319949370
    H            1.985894993659     0.089659439430     2.080233078029
    H            2.713744611051     1.511827395379     1.360502484702
    H            1.126985369029     1.619978880790     2.095927840950

  Mulliken Charges: (a.u.)
   Center  Symbol    Alpha    Beta     Spin     Total
       1     H     0.42640  0.42640  0.00000  0.14720
       2     C     3.07719  3.07719  0.00000 -0.15438
       3     O     4.30826  4.30826  0.00000 -0.61653
       4     H     0.41481  0.41481  0.00000  0.17038
       5     H     0.43154  0.43154  0.00000  0.13691
       6     C     2.98147  2.98147  0.00000  0.03706
       7     C     3.15994  3.15994  0.00000 -0.31988
       8     H     0.43273  0.43273  0.00000  0.13454
       9     H     0.43375  0.43375  0.00000  0.13250
      10     C     3.24793  3.24793  0.00000 -0.49586
      11     H     0.41437  0.41437  0.00000  0.17126
      12     H     0.41434  0.41434  0.00000  0.17133
      13     H     0.42096  0.42096  0.00000  0.15809
      14     H     0.41543  0.41543  0.00000  0.16914
      15     H     0.42088  0.42088  0.00000  0.15824

   Total alpha = 21.00000, Total beta = 21.00000, Total charge = -0.00000
