                              Psi4 1.0.54 Driver

  ==> Input File <==

--------------------------------------------------------------------------
set {
	reference rhf
	basis cc-pvtz
}

set_num_threads( 4 )
memory 2 gb

molecule MOL {
0 1

O	 3.219313	 0.959291	 -0.614106
C	 2.698710	 0.058177	 -0.050237
C	 1.246364	 -0.005813	 0.348416
O	 3.344101	 -1.038700	 0.312317
C	 0.453207	 1.232821	 -0.049003
H	 0.839270	 -0.907818	 -0.092281
H	 1.216683	 -0.160521	 1.422434
C	 -0.998367	 1.217982	 0.432195
H	 0.481498	 1.345443	 -1.127236
H	 0.951413	 2.105557	 0.354893
C	 -1.882951	 0.151251	 -0.211235
H	 -1.429490	 2.193659	 0.228843
H	 -1.019755	 1.099323	 1.513279
C	 -3.342450	 0.243269	 0.226009
H	 -1.826223	 0.246578	 -1.293162
H	 -1.508033	 -0.839650	 0.027695
C	 -4.175466	 -0.969974	 -0.177601
H	 -3.788146	 1.140015	 -0.197714
H	 -3.386885	 0.364015	 1.305968
C	 -5.632618	 -0.869820	 0.261094
H	 -4.132197	 -1.091795	 -1.256493
H	 -3.732905	 -1.866824	 0.247435
H	 -6.195094	 -1.745974	 -0.040501
H	 -6.114052	 -0.001370	 -0.176085
H	 -5.711480	 -0.781511	 1.339607
C	 4.720529	 -1.114346	 0.001449
H	 4.874321	 -1.055557	 -1.065852
H	 5.057824	 -2.067950	 0.373977
H	 5.264321	 -0.313596	 0.480350

	symmetry c1
}
set optking {
	frozen_dihedral = ("
		17 14 11 15
	")
}

ee,wfn = optimize('scf', return_wfn=True)
oeprop( wfn, 'DIPOLE', 'QUADRUPOLE', 'MULLIKEN_CHARGES')
f=open( 'psi4out.xyz', 'w' )
f.write( "29  " )
f.write( str(ee) + "\n" )
f.write( MOL.save_string_xyz() )
f.close()
--------------------------------------------------------------------------

    Molecular point group: c1
  Charge       = 0
  Multiplicity = 1
  Basis Set: CC-PVTZ
  Basis Set:
  @DF-RHF Final Energy:  -501.22446971558691
    Total Energy =                       -501.2244697155858830
    Molecular point group: c1
  Basis Set: CC-PVTZ
  Basis Set:
  Basis Set: CC-PVTZ
  Basis Set:
  @DF-RHF Final Energy:  -501.22440569061916
    Total Energy =                       -501.2244056906193919
  Basis Set: CC-PVTZ
  Basis Set:
  Basis Set: CC-PVTZ
  Basis Set:
  @DF-RHF Final Energy:  -501.22453349853856
    Total Energy =                       -501.2245334985391310
  Basis Set: CC-PVTZ
  Basis Set:
  Basis Set: CC-PVTZ
  Basis Set:
  @DF-RHF Final Energy:  -501.22443828377232
    Total Energy =                       -501.2244382837726562
  Basis Set: CC-PVTZ
  Basis Set:
  Basis Set: CC-PVTZ
  Basis Set:
  @DF-RHF Final Energy:  -501.22453853372531
    Total Energy =                       -501.2245385337249672
  Basis Set: CC-PVTZ
  Basis Set:
  Charge       = 0
  Multiplicity = 1
  Basis Set: CC-PVTZ
  Basis Set:

    Orbital Energies (a.u.)
    -----------------------

    Doubly Occupied:

       1A    -20.595984     2A    -20.533838     3A    -11.364249
       4A    -11.278253     5A    -11.232932     6A    -11.216974
       7A    -11.215484     8A    -11.214047     9A    -11.213767
      10A    -11.212328    11A    -11.207176    12A     -1.471845
      13A     -1.365461    14A     -1.099317    15A     -1.067923
      16A     -1.020573    17A     -0.978088    18A     -0.929045
      19A     -0.862280    20A     -0.799832    21A     -0.790925
      22A     -0.765557    23A     -0.702800    24A     -0.685435
      25A     -0.676076    26A     -0.651305    27A     -0.629874
      28A     -0.606597    29A     -0.595350    30A     -0.582125
      31A     -0.568034    32A     -0.550355    33A     -0.532665
      34A     -0.531388    35A     -0.518359    36A     -0.511909
      37A     -0.496702    38A     -0.478333    39A     -0.471083
      40A     -0.462321    41A     -0.460664    42A     -0.458225
      43A     -0.443555    44A     -0.437247

  @DF-RHF Final Energy:  -501.22453807733086

   => Energetics <=

    Nuclear Repulsion Energy =            611.4222620951902627
    One-Electron Energy =               -1894.3210360984226099
    Two-Electron Energy =                 781.6742359259008026
    DFT Exchange-Correlation Energy =       0.0000000000000000
    Empirical Dispersion Energy =           0.0000000000000000
    PCM Polarization Energy =               0.0000000000000000
    EFP Energy =                            0.0000000000000000
    Total Energy =                       -501.2245380773315446
    Molecular point group: c1
  Basis Set: CC-PVTZ
  Basis Set:

  -Total Gradient:
     Atom            X                  Y                   Z
    ------   -----------------  -----------------  -----------------
       1       -0.000028930715     0.000032705205    -0.000090348375
       2        0.000045105559     0.000074169408     0.000161120506
       3       -0.000016440137    -0.000042162739    -0.000067701821
       4       -0.000007209988    -0.000083190578    -0.000021572768
       5        0.000015575253     0.000031673673     0.000055815718
       6       -0.000045188275    -0.000045649827    -0.000004729791
       7        0.000017997286     0.000006443717     0.000010898852
       8       -0.000003452905     0.000032234903    -0.000018647272
       9       -0.000008099686     0.000019188680    -0.000020369144
      10        0.000008630187     0.000001191815     0.000013593612
      11       -0.000099663397    -0.002859129454     0.000410109163
      12       -0.000009488674     0.000021065603    -0.000022740181
      13        0.000000890767     0.000034135039     0.000032423833
      14       -0.000416371458     0.001313088689    -0.001905401467
      15        0.000178711068     0.002110114820     0.000034962875
      16        0.000034150135    -0.000041524872     0.000011845795
      17        0.000337090079    -0.000620279087     0.001399673362
      18        0.000020785533     0.000022046927    -0.000014422726
      19       -0.000011633552     0.000010200613     0.000050225770
      20       -0.000004594510     0.000002969636    -0.000012315958
      21        0.000013501006    -0.000014602960    -0.000069444295
      22        0.000049998169    -0.000043988671     0.000030035145
      23       -0.000001031165    -0.000018867356    -0.000009652931
      24       -0.000047360365     0.000056645465    -0.000030800928
      25       -0.000019353569     0.000004467774     0.000075707481
      26       -0.000006574647     0.000011300710    -0.000001477318
      27       -0.000001083618    -0.000003220739    -0.000019078893
      28        0.000000143583    -0.000023907268     0.000011274478
      29        0.000003898045     0.000012880869     0.000011017277

  **** Optimization is complete! (in 6 steps) ****
    Final optimized geometry and variables:
    Molecular point group: c1

    Geometry (in Angstrom), charge = 0, multiplicity = 1:

    O            3.195828010738     0.994791411459    -0.699339537987
    C            2.690048706468     0.114942145536    -0.090164449532
    C            1.239201538232     0.048060919320     0.313491085346
    O            3.352686783584    -0.952933222965     0.324338211254
    C            0.426534684783     1.253749530600    -0.141825511524
    H            0.845453980856    -0.880144074689    -0.082948299361
    H            1.212693924173    -0.055513531393     1.393754752346
    C           -1.024303155743     1.237676647744     0.341029366038
    H            0.452714801936     1.314834197266    -1.224289876260
    H            0.910592869572     2.152886772677     0.219204863997
    C           -1.886961609320     0.115071192922    -0.236137657979
    H           -1.475929030764     2.190356138736     0.080000086337
    H           -1.043385799614     1.183695121455     1.427254675480
    C           -3.355786489481     0.232603098324     0.166671688196
    H           -1.810152550645     0.143891528289    -1.320565667366
    H           -1.506435678142    -0.850713318892     0.081461243648
    C           -4.182810039700    -1.003136131710    -0.176977491482
    H           -3.790703035240     1.107523499379    -0.309585751385
    H           -3.419793221291     0.408309853810     1.238329635634
    C           -5.654225272957    -0.864014254202     0.199251608043
    H           -4.101609546963    -1.207887807257    -1.241466440042
    H           -3.761026111767    -1.865891661192     0.331257611936
    H           -6.210406321591    -1.760132630623    -0.051141119768
    H           -6.115060295789    -0.032185947923    -0.323210764968
    H           -5.771046111436    -0.689114669720     1.263832096135
    C            4.729614815646    -1.022953206840     0.014354410447
    H            4.880787925653    -1.014260099173    -1.054931915964
    H            5.081974744101    -1.951984438925     0.432375590917
    H            5.261949105889    -0.191552877288     0.452204109235

  Mulliken Charges: (a.u.)
   Center  Symbol    Alpha    Beta     Spin     Total
       1     O     4.19699  4.19699  0.00000 -0.39397
       2     C     2.80500  2.80500  0.00000  0.39001
       3     C     3.10162  3.10162  0.00000 -0.20324
       4     O     4.14721  4.14721  0.00000 -0.29443
       5     C     3.09251  3.09251  0.00000 -0.18503
       6     H     0.43898  0.43898  0.00000  0.12204
       7     H     0.43989  0.43989  0.00000  0.12022
       8     C     3.10374  3.10374  0.00000 -0.20748
       9     H     0.44622  0.44622  0.00000  0.10755
      10     H     0.43962  0.43962  0.00000  0.12077
      11     C     3.09335  3.09335  0.00000 -0.18669
      12     H     0.44550  0.44550  0.00000  0.10900
      13     H     0.45389  0.45389  0.00000  0.09222
      14     C     3.08637  3.08637  0.00000 -0.17274
      15     H     0.45256  0.45256  0.00000  0.09487
      16     H     0.45417  0.45417  0.00000  0.09167
      17     C     3.08347  3.08347  0.00000 -0.16694
      18     H     0.45268  0.45268  0.00000  0.09463
      19     H     0.45567  0.45567  0.00000  0.08867
      20     C     3.15047  3.15047  0.00000 -0.30095
      21     H     0.45460  0.45460  0.00000  0.09080
      22     H     0.45499  0.45499  0.00000  0.09001
      23     H     0.44838  0.44838  0.00000  0.10324
      24     H     0.45489  0.45489  0.00000  0.09022
      25     H     0.45525  0.45525  0.00000  0.08951
      26     C     3.03812  3.03812  0.00000 -0.07625
      27     H     0.45435  0.45435  0.00000  0.09130
      28     H     0.44528  0.44528  0.00000  0.10945
      29     H     0.45424  0.45424  0.00000  0.09152

   Total alpha = 44.00000, Total beta = 44.00000, Total charge =  0.00000

*** Psi4 exiting successfully. Buy a developer a beer!
