                              Psi4 1.0.54 Driver

  ==> Input File <==

--------------------------------------------------------------------------
set {
	reference rhf
	basis cc-pvtz
}

set_num_threads( 4 )
memory 2 gb

molecule MOL {
0 1

H	 -2.975608	 2.158822	 -0.606712
C	 -3.098642	 1.124592	 -0.956162
C	 -2.055459	 0.658186	 -1.935001
O	 -4.006133	 0.473519	 -0.569028
C	 -0.626804	 0.896208	 -1.437038
H	 -2.232440	 -0.386564	 -2.155251
H	 -2.213766	 1.224273	 -2.850309
C	 -0.247837	 0.040196	 -0.230469
H	 0.058802	 0.693193	 -2.252555
H	 -0.501559	 1.948201	 -1.192462
C	 1.181757	 0.280428	 0.247371
H	 -0.372135	 -1.008640	 -0.486593
H	 -0.936387	 0.232661	 0.588240
C	 2.151032	 -0.811012	 -0.202643
H	 1.515939	 1.247397	 -0.115449
H	 1.191514	 0.341223	 1.333422
C	 3.580021	 -0.656538	 0.320835
H	 2.170545	 -0.847575	 -1.289412
H	 1.766632	 -1.772905	 0.124928
C	 4.327657	 0.562694	 -0.213579
H	 4.138806	 -1.549270	 0.057813
H	 3.561991	 -0.620783	 1.406976
H	 4.355973	 0.557257	 -1.298551
H	 3.867136	 1.491650	 0.100501
H	 5.351524	 0.571613	 0.142204

	symmetry c1
}
set optking {
	frozen_dihedral = ("
		12 8 11 14
	")
}

ee,wfn = optimize('scf', return_wfn=True)
oeprop( wfn, 'DIPOLE', 'QUADRUPOLE', 'MULLIKEN_CHARGES')
f=open( 'psi4out.xyz', 'w' )
f.write( "25  " )
f.write( str(ee) + "\n" )
f.write( MOL.save_string_xyz() )
f.close()
--------------------------------------------------------------------------

    Molecular point group: c1
  Charge       = 0
  Multiplicity = 1
  Basis Set: CC-PVTZ
  Basis Set:
  @DF-RHF Final Energy:  -387.25565522610714
    Total Energy =                       -387.2556552261070237
    Molecular point group: c1
  Basis Set: CC-PVTZ
  Basis Set:
  Basis Set: CC-PVTZ
  Basis Set:
  @DF-RHF Final Energy:  -387.25594057437365
    Total Energy =                       -387.2559405743742218
  Basis Set: CC-PVTZ
  Basis Set:
  Basis Set: CC-PVTZ
  Basis Set:
  @DF-RHF Final Energy:  -387.25590622766629
    Total Energy =                       -387.2559062276662871
  Basis Set: CC-PVTZ
  Basis Set:
  Basis Set: CC-PVTZ
  Basis Set:
  @DF-RHF Final Energy:  -387.25594654771089
    Total Energy =                       -387.2559465477113463
  Basis Set: CC-PVTZ
  Basis Set:
  Basis Set: CC-PVTZ
  Basis Set:
  @DF-RHF Final Energy:  -387.25602298325441
    Total Energy =                       -387.2560229832547520
  Basis Set: CC-PVTZ
  Basis Set:
  Basis Set: CC-PVTZ
  Basis Set:
  @DF-RHF Final Energy:  -387.25602541423996
    Total Energy =                       -387.2560254142405256
  Basis Set: CC-PVTZ
  Basis Set:
  Basis Set: CC-PVTZ
  Basis Set:
  @DF-RHF Final Energy:  -387.25602765336043
    Total Energy =                       -387.2560276533603201
  Basis Set: CC-PVTZ
  Basis Set:
  Charge       = 0
  Multiplicity = 1
  Basis Set: CC-PVTZ
  Basis Set:

    Orbital Energies (a.u.)
    -----------------------

    Doubly Occupied:

       1A    -20.551256     2A    -11.320896     3A    -11.233563
       4A    -11.232845     5A    -11.221684     6A    -11.217713
       7A    -11.217068     8A    -11.216437     9A    -11.209832
      10A     -1.406280    11A     -1.104707    12A     -1.070817
      13A     -1.013575    14A     -0.943137    15A     -0.878087
      16A     -0.822673    17A     -0.788682    18A     -0.782377
      19A     -0.669031    20A     -0.653387    21A     -0.636609
      22A     -0.624741    23A     -0.610719    24A     -0.600288
      25A     -0.571128    26A     -0.558160    27A     -0.529556
      28A     -0.523438    29A     -0.522234    30A     -0.503343
      31A     -0.485400    32A     -0.479794    33A     -0.461056
      34A     -0.456295    35A     -0.445509    36A     -0.411629

  @DF-RHF Final Energy:  -387.25602772985104

   => Energetics <=

    Nuclear Repulsion Energy =            441.8737454494408325
    One-Electron Energy =               -1400.3116538995327574
    Two-Electron Energy =                 571.1818807202408834
    DFT Exchange-Correlation Energy =       0.0000000000000000
    Empirical Dispersion Energy =           0.0000000000000000
    PCM Polarization Energy =               0.0000000000000000
    EFP Energy =                            0.0000000000000000
    Total Energy =                       -387.2560277298510982
    Molecular point group: c1
  Basis Set: CC-PVTZ
  Basis Set:

  -Total Gradient:
     Atom            X                  Y                   Z
    ------   -----------------  -----------------  -----------------
       1        0.000005373656    -0.000004528438     0.000014084598
       2       -0.000032478942     0.000018403178    -0.000040098416
       3        0.000004949331    -0.000019472488     0.000003100367
       4        0.000025514743     0.000005251845     0.000004391299
       5       -0.000011697590     0.000020270260     0.000012684258
       6       -0.000002488087    -0.000000199775     0.000007197317
       7        0.000003146084    -0.000008352900     0.000000978456
       8       -0.001208314372    -0.001230156786     0.004078640454
       9       -0.000007003699     0.000005070568    -0.000003438578
      10       -0.000001841055     0.000001603638     0.000006945627
      11        0.000811085657     0.001739046601    -0.003097284260
      12        0.000839129284     0.000631631687    -0.002752515812
      13        0.000006707061    -0.000000713044    -0.000000542987
      14       -0.000430041581    -0.001145281544     0.001772456939
      15       -0.000011803104    -0.000013056224     0.000000327315
      16        0.000000453506    -0.000001890353     0.000000103264
      17        0.000003731158     0.000005424834    -0.000003235569
      18        0.000002737476    -0.000001330696     0.000001403514
      19        0.000009645076    -0.000000409440     0.000005614728
      20        0.000001410385     0.000010382505     0.000004637084
      21       -0.000007412387     0.000006695680     0.000001518068
      22       -0.000008299816    -0.000000376590    -0.000014674724
      23       -0.000003478964    -0.000000095918     0.000001902082
      24        0.000013920674    -0.000017407018    -0.000001877570
      25       -0.000002944504    -0.000000509580    -0.000002317455

  **** Optimization is complete! (in 8 steps) ****
    Final optimized geometry and variables:
    Molecular point group: c1

    Geometry (in Angstrom), charge = 0, multiplicity = 1:

    H           -3.134872429135     1.872763402851    -0.054209482907
    C           -3.234216737088     0.846413257204    -0.433227726711
    C           -2.151580550440     0.414675401410    -1.384895237782
    O           -4.147974252415     0.176977823480    -0.095303061961
    C           -0.744903703436     0.657503189482    -0.830927163212
    H           -2.308252348755    -0.626569076205    -1.635168955894
    H           -2.284605900185     1.000123756436    -2.292060336789
    C           -0.401502082516    -0.215621471360     0.377462788552
    H           -0.027737776618     0.475164660399    -1.624155374534
    H           -0.639107654952     1.705943656597    -0.563897398382
    C            1.045707895735    -0.024064931135     0.864728524514
    H           -0.555566073707    -1.252236794131     0.093907187724
    H           -1.097632408264    -0.007635027817     1.182707253984
    C            1.993419020265    -1.126052465941     0.389579315112
    H            1.406595796869     0.947797387771     0.546742437254
    H            1.063271248433    -0.009493964134     1.950216032729
    C            3.441875609942    -0.971947244547     0.855669211101
    H            1.973190929145    -1.182972008933    -0.697050248806
    H            1.613918084476    -2.078038447205     0.748663620708
    C            4.185985039905     0.215085262800     0.248601344809
    H            3.979706349342    -1.881687230900     0.607539324851
    H            3.462688542431    -0.895002443593     1.939584888835
    H            4.178224412681     0.165821628711    -0.835640684545
    H            3.748171000891     1.162189493133     0.539795508783
    H            5.221199129307     0.224164756518     0.569767374666

  Mulliken Charges: (a.u.)
   Center  Symbol    Alpha    Beta     Spin     Total
       1     H     0.46428  0.46428  0.00000  0.07144
       2     C     2.90444  2.90444  0.00000  0.19112
       3     C     3.08917  3.08917  0.00000 -0.17834
       4     O     4.16650  4.16650  0.00000 -0.33300
       5     C     3.11532  3.11532  0.00000 -0.23064
       6     H     0.44261  0.44261  0.00000  0.11478
       7     H     0.44073  0.44073  0.00000  0.11853
       8     C     3.10096  3.10096  0.00000 -0.20192
       9     H     0.44245  0.44245  0.00000  0.11510
      10     H     0.44968  0.44968  0.00000  0.10064
      11     C     3.10227  3.10227  0.00000 -0.20453
      12     H     0.45003  0.45003  0.00000  0.09994
      13     H     0.43930  0.43930  0.00000  0.12140
      14     C     3.09304  3.09304  0.00000 -0.18607
      15     H     0.45202  0.45202  0.00000  0.09596
      16     H     0.44560  0.44560  0.00000  0.10881
      17     C     3.09100  3.09100  0.00000 -0.18200
      18     H     0.45446  0.45446  0.00000  0.09108
      19     H     0.44688  0.44688  0.00000  0.10624
      20     C     3.15265  3.15265  0.00000 -0.30531
      21     H     0.44776  0.44776  0.00000  0.10449
      22     H     0.45409  0.45409  0.00000  0.09183
      23     H     0.45492  0.45492  0.00000  0.09016
      24     H     0.45425  0.45425  0.00000  0.09150
      25     H     0.44561  0.44561  0.00000  0.10878

   Total alpha = 36.00000, Total beta = 36.00000, Total charge =  0.00000

*** Psi4 exiting successfully. Buy a developer a beer!
