  ==> Input File <==

--------------------------------------------------------------------------
set {
	reference rhf
	basis 6-31G*
}

set_num_threads( 1 )
memory 2 gb

molecule MOL {
0 1

O	 -0.291628	 1.323815	 -0.000732
C	 -0.449655	 0.146360	 0.000961
C	 -1.783294	 -0.549321	 -0.000296
O	 0.550821	 -0.724572	 0.000672
H	 -1.863538	 -1.185371	 -0.874187
H	 -2.574672	 0.185258	 -0.002793
H	 -1.866414	 -1.182381	 0.875436
C	 1.320072	 -0.818728	 1.186281
H	 1.785932	 0.129461	 1.412708
H	 2.071463	 -1.567857	 0.991434
H	 0.699343	 -1.117853	 2.018485

	symmetry c1
}
set optking {
	frozen_dihedral = ("
		2 4 8 9
	")
}

ee = energy('scf')
oeprop('DIPOLE', 'QUADRUPOLE', 'MULLIKEN_CHARGES')
f=open( 'psi4out.xyz', 'w' )
f.write( "11  " )
f.write( str(ee) + "\n" )
f.write( MOL.save_string_xyz() )
f.close()
--------------------------------------------------------------------------

    Molecular point group: c1

    Geometry (in Angstrom), charge = 0, multiplicity = 1:

       Center              X                  Y                   Z               Mass
    ------------   -----------------  -----------------  -----------------  -----------------
           O         -0.175870434303     1.456873883304    -0.253283104531    15.994914619560
           C         -0.333897434303     0.279418883304    -0.251590104531    12.000000000000
           C         -1.667536434303    -0.416262116696    -0.252847104531    12.000000000000
           O          0.666578565697    -0.591513116696    -0.251879104531    15.994914619560
           H         -1.747780434303    -1.052312116696    -1.126738104531     1.007825032070
           H         -2.458914434303     0.318316883304    -0.255344104531     1.007825032070
           H         -1.750656434303    -1.049322116696     0.622884895469     1.007825032070
           C          1.435829565697    -0.685669116696     0.933729895469    12.000000000000
           H          1.901689565697     0.262519883304     1.160156895469     1.007825032070
           H          2.187220565697    -1.434798116696     0.738882895469     1.007825032070
           H          0.815100565697    -0.984794116696     1.765933895469     1.007825032070

  Charge       = 0
  Multiplicity = 1
  Basis Set: 6-31G*
  Basis Set:

    Orbital Energies (a.u.)
    -----------------------

    Doubly Occupied:

       1A    -20.590261     2A    -20.554524     3A    -11.377510
       4A    -11.293400     5A    -11.235293     6A     -1.466545
       7A     -1.367461     8A     -1.030093     9A     -0.964039
      10A     -0.780838    11A     -0.694980    12A     -0.683703
      13A     -0.672867    14A     -0.607854    15A     -0.591829
      16A     -0.572805    17A     -0.542291    18A     -0.496815
      19A     -0.458409    20A     -0.440934

  @DF-RHF Final Energy:  -266.81826572402167

   => Energetics <=

    Nuclear Repulsion Energy =            183.0718798629328035
    One-Electron Energy =                -726.9354004229554675
    Two-Electron Energy =                 277.0452548360006517
    DFT Exchange-Correlation Energy =       0.0000000000000000
    Empirical Dispersion Energy =           0.0000000000000000
    PCM Polarization Energy =               0.0000000000000000
    EFP Energy =                            0.0000000000000000
    Total Energy =                       -266.8182657240219555

  Mulliken Charges: (a.u.)
   Center  Symbol    Alpha    Beta     Spin     Total
       1     O     4.26000  4.26000  0.00000 -0.52000
       2     C     2.62912  2.62912  0.00000  0.74176
       3     C     3.28372  3.28372  0.00000 -0.56743
       4     O     4.30372  4.30372  0.00000 -0.60745
       5     H     0.39821  0.39821  0.00000  0.20358
       6     H     0.39860  0.39860  0.00000  0.20280
       7     H     0.40637  0.40637  0.00000  0.18726
       8     C     3.09332  3.09332  0.00000 -0.18664
       9     H     0.40407  0.40407  0.00000  0.19186
      10     H     0.40280  0.40280  0.00000  0.19440
      11     H     0.42007  0.42007  0.00000  0.15987

   Total alpha = 20.00000, Total beta = 20.00000, Total charge =  0.00000
