  ==> Input File <==

--------------------------------------------------------------------------
set {
	reference rhf
	basis cc-pvtz
}

set_num_threads( 4 )
memory 2 gb

molecule MOL {
0 1

H	 -2.802625	 0.218443	 0.719794
C	 -2.464508	 1.154494	 0.281195
O	 -1.088677	 1.161023	 0.095215
H	 -2.929578	 1.272854	 -0.686580
H	 -2.785023	 1.971479	 0.925159
C	 -0.350988	 1.025955	 1.265346
C	 1.118133	 0.940811	 0.935529
H	 -0.517195	 1.883454	 1.917298
H	 -0.648392	 0.130449	 1.806687
O	 1.401606	 -0.295166	 0.366636
H	 1.378822	 1.747325	 0.253615
H	 1.693782	 1.075699	 1.851174
C	 2.714315	 -0.441627	 -0.061017
H	 2.765292	 -0.641548	 -1.128869
H	 3.305661	 0.447341	 0.150952
H	 3.143725	 -1.278506	 0.470147

	symmetry c1
}
set optking {
	frozen_dihedral = ("
		7 10 13 14
	")
}

ee = optimize('scf')
oeprop('DIPOLE', 'QUADRUPOLE', 'MULLIKEN_CHARGES')
f=open( 'psi4out.xyz', 'w' )
f.write( "16  " )
f.write( str(ee) + "\n" )
f.write( MOL.save_string_xyz() )
f.close()
--------------------------------------------------------------------------

    Molecular point group: c1
  Charge       = 0
  Multiplicity = 1
  Basis Set: CC-PVTZ
  Basis Set:
  @DF-RHF Final Energy:  -307.09378382696207
    Total Energy =                       -307.0937838269620102
    Molecular point group: c1
  Basis Set: CC-PVTZ
  Basis Set:
  Basis Set: CC-PVTZ
  Basis Set:
  @DF-RHF Final Energy:  -307.09418749988629
    Total Energy =                       -307.0941874998862318
  Basis Set: CC-PVTZ
  Basis Set:
  Basis Set: CC-PVTZ
  Basis Set:
  @DF-RHF Final Energy:  -307.09427832701346
    Total Energy =                       -307.0942783270130576
  Basis Set: CC-PVTZ
  Basis Set:
  Charge       = 0
  Multiplicity = 1
  Basis Set: CC-PVTZ
  Basis Set:

    Orbital Energies (a.u.)
    -----------------------

    Doubly Occupied:

       1A    -20.547402     2A    -20.544058     3A    -11.267822
       4A    -11.266545     5A    -11.261310     6A    -11.261069
       7A     -1.389441     8A     -1.371352     9A     -1.031689
      10A     -0.937245    11A     -0.892175    12A     -0.823937
      13A     -0.684832    14A     -0.680950    15A     -0.658642
      16A     -0.636212    17A     -0.630276    18A     -0.597287
      19A     -0.554699    20A     -0.538242    21A     -0.508718
      22A     -0.479053    23A     -0.463827    24A     -0.420856
      25A     -0.410055

  @DF-RHF Final Energy:  -307.09427915128271

   => Energetics <=

    Nuclear Repulsion Energy =            258.6087050819500632
    One-Electron Energy =                -931.6905865718526911
    Two-Electron Energy =                 365.9876023386202064
    DFT Exchange-Correlation Energy =       0.0000000000000000
    Empirical Dispersion Energy =           0.0000000000000000
    PCM Polarization Energy =               0.0000000000000000
    EFP Energy =                            0.0000000000000000
    Total Energy =                       -307.0942791512823646
    Molecular point group: c1
  Basis Set: CC-PVTZ
  Basis Set:

  -Total Gradient:
     Atom            X                  Y                   Z
    ------   -----------------  -----------------  -----------------
       1       -0.000001923403    -0.000000076559    -0.000000768637
       2        0.000002295689    -0.000001522240     0.000020588855
       3        0.000025425178    -0.000016980351     0.000006020649
       4        0.000008496635    -0.000001115973    -0.000001159622
       5        0.000001383757    -0.000000794300    -0.000000809124
       6       -0.000020339009     0.000060581635     0.000037594231
       7       -0.000047829667     0.000004198332     0.000069950394
       8       -0.000042191928     0.000019477905     0.000020059444
       9        0.000008384056     0.000011222025    -0.000026473235
      10        0.000080854369    -0.000045466051    -0.000125410685
      11        0.000002755409     0.000001639257     0.000000466937
      12       -0.000009927995    -0.000029434625    -0.000036172742
      13       -0.000026002902     0.000083855800     0.000038637610
      14        0.000002403559    -0.000073514356     0.000009019501
      15        0.000006063875    -0.000002427548    -0.000009850641
      16        0.000010152378    -0.000009642951    -0.000001692937

  **** Optimization is complete! (in 4 steps) ****
    Final optimized geometry and variables:
    Molecular point group: c1

    Geometry (in Angstrom), charge = 0, multiplicity = 1:

    H           -3.017658729221    -0.384066552997     0.229180309056
    C           -2.684140209792     0.556065229310    -0.204163369063
    O           -1.307284460057     0.574161461177    -0.381063955686
    H           -3.143818583239     0.673916723534    -1.174582621526
    H           -3.015431051126     1.368369389536     0.440319366776
    C           -0.576287420247     0.441051742411     0.793457093069
    C            0.895550698571     0.366565298895     0.473240072107
    H           -0.752144825871     1.296135454721     1.446296622220
    H           -0.871446633455    -0.457569526612     1.330653334202
    O            1.185609585045    -0.866480552689    -0.101469826132
    H            1.153297906999     1.179208189665    -0.201319693599
    H            1.461032489031     0.499968568597     1.394830205483
    C            2.496087451641    -1.046757851052    -0.542770138856
    H            2.499855080894    -1.248263955652    -1.607663369184
    H            3.111497453862    -0.171970369005    -0.359442408051
    H            2.943584270654    -1.889976578188    -0.028847284747

  Mulliken Charges: (a.u.)
   Center  Symbol    Alpha    Beta     Spin     Total
       1     H     0.47016  0.47016  0.00000  0.05967
       2     C     3.03201  3.03201  0.00000 -0.06401
       3     O     4.17034  4.17034  0.00000 -0.34069
       4     H     0.44646  0.44646  0.00000  0.10708
       5     H     0.47375  0.47375  0.00000  0.05250
       6     C     2.96360  2.96360  0.00000  0.07280
       7     C     2.95847  2.95847  0.00000  0.08305
       8     H     0.47621  0.47621  0.00000  0.04759
       9     H     0.47119  0.47119  0.00000  0.05762
      10     O     4.17528  4.17528  0.00000 -0.35057
      11     H     0.47052  0.47052  0.00000  0.05895
      12     H     0.47622  0.47622  0.00000  0.04756
      13     C     3.02697  3.02697  0.00000 -0.05395
      14     H     0.45606  0.45606  0.00000  0.08788
      15     H     0.47369  0.47369  0.00000  0.05262
      16     H     0.45905  0.45905  0.00000  0.08190

   Total alpha = 25.00000, Total beta = 25.00000, Total charge = -0.00000
