  ==> Input File <==

--------------------------------------------------------------------------
set {
	reference rhf
	basis 6-31G*
}

set_num_threads( 4 )
memory 2 gb

molecule MOL {
0 1

H	 -1.591170	 -0.692431	 -3.342959
C	 -2.282207	 -0.696481	 -2.490860
C	 -1.879181	 -1.592881	 -1.347773
O	 -3.263590	 -0.027098	 -2.514629
C	 -0.442476	 -1.332686	 -0.874029
H	 -2.593770	 -1.463496	 -0.543204
H	 -1.958684	 -2.619576	 -1.703064
C	 -0.252658	 0.041456	 -0.226725
H	 -0.169133	 -2.107039	 -0.163435
H	 0.240337	 -1.439603	 -1.715511
C	 1.180775	 0.282413	 0.250794
H	 -0.936436	 0.136192	 0.614298
H	 -0.532037	 0.822891	 -0.930889
C	 2.148627	 -0.814315	 -0.201312
H	 1.516199	 1.249228	 -0.115937
H	 1.192670	 0.346017	 1.338083
C	 3.580890	 -0.659131	 0.322722
H	 2.166869	 -0.852443	 -1.289387
H	 1.762857	 -1.776509	 0.128956
C	 4.324889	 0.564933	 -0.213704
H	 4.142010	 -1.551473	 0.056605
H	 3.564836	 -0.624694	 1.410140
H	 4.342616	 0.565491	 -1.300421
H	 3.866655	 1.493402	 0.110242
H	 5.353900	 0.572371	 0.132816

	symmetry c1
}
set optking {
	frozen_dihedral = ("
		12 8 11 14
	")
}

ee = optimize('scf')
oeprop('DIPOLE', 'QUADRUPOLE', 'MULLIKEN_CHARGES')
f=open( 'psi4out.xyz', 'w' )
f.write( "25  " )
f.write( str(ee) + "\n" )
f.write( MOL.save_string_xyz() )
f.close()
--------------------------------------------------------------------------

    Molecular point group: c1
  Charge       = 0
  Multiplicity = 1
  Basis Set: 6-31G*
  Basis Set:
  @DF-RHF Final Energy:  -387.10676899941205
    Total Energy =                       -387.1067689994118837
    Molecular point group: c1
  Basis Set: 6-31G*
  Basis Set:
  Basis Set: 6-31G*
  Basis Set:
  @DF-RHF Final Energy:  -387.10627723586350
    Total Energy =                       -387.1062772358628763
  Basis Set: 6-31G*
  Basis Set:
  Basis Set: 6-31G*
  Basis Set:
  @DF-RHF Final Energy:  -387.11110544222538
    Total Energy =                       -387.1111054422254938
  Basis Set: 6-31G*
  Basis Set:
  Basis Set: 6-31G*
  Basis Set:
  @DF-RHF Final Energy:  -387.11189899160513
    Total Energy =                       -387.1118989916051305
  Basis Set: 6-31G*
  Basis Set:
  @DF-RHF Final Energy:  -387.10881532374435
    Total Energy =                       -387.1088153237436700
  @DF-RHF Final Energy:  -387.11172149827854
    Total Energy =                       -387.1117214982775749
  @DF-RHF Final Energy:  -387.11205458963695
    Total Energy =                       -387.1120545896369549
  @DF-RHF Final Energy:  -387.11202959864545
    Total Energy =                       -387.1120295986457904
  @DF-RHF Final Energy:  -387.11205298877127
    Total Energy =                       -387.1120529887714383
  Basis Set: 6-31G*
  Basis Set:
  @DF-RHF Final Energy:  -387.11205722439149
    Total Energy =                       -387.1120572243912648
  Basis Set: 6-31G*
  Basis Set:
  Basis Set: 6-31G*
  Basis Set:
  @DF-RHF Final Energy:  -387.11205470078954
    Total Energy =                       -387.1120547007885762
  Basis Set: 6-31G*
  Basis Set:
  Basis Set: 6-31G*
  Basis Set:
  @DF-RHF Final Energy:  -387.11205783862442
    Total Energy =                       -387.1120578386239686
  Basis Set: 6-31G*
  Basis Set:
  Charge       = 0
  Multiplicity = 1
  Basis Set: 6-31G*
  Basis Set:

    Orbital Energies (a.u.)
    -----------------------

    Doubly Occupied:

       1A    -20.561782     2A    -11.325996     3A    -11.234749
       4A    -11.234165     5A    -11.224913     6A    -11.220389
       7A    -11.219639     8A    -11.219036     9A    -11.211393
      10A     -1.401748    11A     -1.101937    12A     -1.069031
      13A     -1.009756    14A     -0.940459    15A     -0.885537
      16A     -0.823990    17A     -0.793352    18A     -0.766027
      19A     -0.663427    20A     -0.658984    21A     -0.632376
      22A     -0.628895    23A     -0.604629    24A     -0.588417
      25A     -0.579244    26A     -0.550355    27A     -0.540817
      28A     -0.524334    29A     -0.515702    30A     -0.501020
      31A     -0.484434    32A     -0.479053    33A     -0.452892
      34A     -0.451971    35A     -0.448500    36A     -0.408899

  @DF-RHF Final Energy:  -387.11205800938211

   => Energetics <=

    Nuclear Repulsion Energy =            443.6702692851787901
    One-Electron Energy =               -1403.6489622436668014
    Two-Electron Energy =                 572.8666349491056735
    DFT Exchange-Correlation Energy =       0.0000000000000000
    Empirical Dispersion Energy =           0.0000000000000000
    PCM Polarization Energy =               0.0000000000000000
    EFP Energy =                            0.0000000000000000
    Total Energy =                       -387.1120580093822809
    Molecular point group: c1
  Basis Set: 6-31G*
  Basis Set:

  -Total Gradient:
     Atom            X                  Y                   Z
    ------   -----------------  -----------------  -----------------
       1       -0.000001403467    -0.000001683208    -0.000001154948
       2        0.000003993240    -0.000001491121     0.000004224390
       3       -0.000014379154    -0.000005850947    -0.000002618539
       4        0.000000390986     0.000004965456     0.000000004470
       5        0.000003397388     0.000005431397     0.000000031168
       6        0.000000255068    -0.000000205832     0.000000489085
       7        0.000006159785     0.000001434593     0.000000044909
       8       -0.000516602551     0.002926772842     0.000127142535
       9       -0.000001982538     0.000000908072     0.000000411788
      10        0.000001743092    -0.000000292844    -0.000000505504
      11        0.000674418053     0.000972871805    -0.002505964699
      12        0.000266482170    -0.002797774420     0.000559613109
      13       -0.000001294501    -0.000001904320    -0.000000064020
      14       -0.000421692354    -0.001107181347     0.001818537125
      15       -0.000001297123    -0.000000278804     0.000001216766
      16       -0.000000232813    -0.000001902951     0.000000271635
      17        0.000000445907     0.000006168970    -0.000001559729
      18       -0.000006188157    -0.000001037588    -0.000003062024
      19        0.000005357833     0.000002679523     0.000000825348
      20        0.000001900920    -0.000002549561     0.000001227800
      21        0.000002090071     0.000001493137     0.000000323138
      22       -0.000001805175     0.000001182264    -0.000000506882
      23       -0.000003702914     0.000000000811     0.000001049290
      24        0.000001579964    -0.000000634373     0.000002145382
      25        0.000002366280    -0.000001121555    -0.000002121595

  **** Optimization is complete! (in 13 steps) ****
    Final optimized geometry and variables:
    Molecular point group: c1

    Geometry (in Angstrom), charge = 0, multiplicity = 1:

    H           -2.052477353395    -0.237958942021    -2.537735550356
    C           -2.715297953143    -0.173692152663    -1.665682164555
    C           -2.359533670289    -1.094355695616    -0.526022935576
    O           -3.637599388589     0.575454640541    -1.671087113273
    C           -0.888266724750    -0.971462270052    -0.102871504681
    H           -3.031973222902    -0.891921021280     0.299678126530
    H           -2.548374617808    -2.111331571448    -0.867827746946
    C           -0.577599390677     0.388453037060     0.537658119651
    H           -0.670577113936    -1.771674742777     0.596470437480
    H           -0.254750459682    -1.142514216615    -0.969204293053
    C            0.881125483374     0.623965533044     1.021359257349
    H           -1.246127134681     0.494910131250     1.387042493623
    H           -0.852532338236     1.173227296249    -0.161465823110
    C            1.929614551249    -0.424873153200     0.628892508876
    H            1.203148521475     1.598012045841     0.669966925439
    H            0.878377528808     0.690437551500     2.106598715926
    C            3.323999398469    -0.143342396595     1.203457136328
    H            2.005226384516    -0.495088647443    -0.454488762870
    H            1.613033979917    -1.403180646510     0.977995429591
    C            4.009079441468     1.103826234919     0.641372527591
    H            3.955393882935    -1.005467236122     1.003063235969
    H            3.257268301785    -0.062512468764     2.286527669704
    H            4.073938217531     1.058137439411    -0.442500714530
    H            3.480408047775     2.013990622050     0.903410628814
    H            5.019613324249     1.193395839178     1.027825983203

  Mulliken Charges: (a.u.)
   Center  Symbol    Alpha    Beta     Spin     Total
       1     H     0.43276  0.43276  0.00000  0.13449
       2     C     2.83092  2.83092  0.00000  0.33817
       3     C     3.20827  3.20827  0.00000 -0.41655
       4     O     4.23794  4.23794  0.00000 -0.47588
       5     C     3.16935  3.16935  0.00000 -0.33870
       6     H     0.39998  0.39998  0.00000  0.20005
       7     H     0.40632  0.40632  0.00000  0.18736
       8     C     3.15852  3.15852  0.00000 -0.31704
       9     H     0.41226  0.41226  0.00000  0.17548
      10     H     0.41785  0.41785  0.00000  0.16429
      11     C     3.15849  3.15849  0.00000 -0.31699
      12     H     0.41590  0.41590  0.00000  0.16820
      13     H     0.41618  0.41618  0.00000  0.16764
      14     C     3.15618  3.15618  0.00000 -0.31236
      15     H     0.41603  0.41603  0.00000  0.16794
      16     H     0.42032  0.42032  0.00000  0.15937
      17     C     3.15259  3.15259  0.00000 -0.30518
      18     H     0.42430  0.42430  0.00000  0.15139
      19     H     0.42108  0.42108  0.00000  0.15784
      20     C     3.24157  3.24157  0.00000 -0.48315
      21     H     0.42043  0.42043  0.00000  0.15915
      22     H     0.42271  0.42271  0.00000  0.15458
      23     H     0.42219  0.42219  0.00000  0.15562
      24     H     0.41945  0.41945  0.00000  0.16110
      25     H     0.41841  0.41841  0.00000  0.16318

   Total alpha = 36.00000, Total beta = 36.00000, Total charge =  0.00000
