                              Psi4 1.0.54 Driver

  ==> Input File <==

--------------------------------------------------------------------------
set {
	reference rhf
	basis cc-pvtz
}

set_num_threads( 4 )
memory 2 gb

molecule MOL {
0 1

H	 1.616058	 -1.768661	 -0.973640
C	 0.729863	 -1.189689	 -1.171834
O	 0.462329	 -0.453336	 -0.000137
H	 -0.087603	 -1.859725	 -1.406401
H	 0.915135	 -0.532124	 -2.011786
C	 -0.590565	 0.341382	 0.000062
O	 -1.693898	 -0.053880	 0.000252
H	 -0.340426	 1.403822	 0.000200

	symmetry c1
}
set optking {
	frozen_dihedral = ("
		2 3 6 7
	")
}

ee,wfn = optimize('scf', return_wfn=True)
oeprop( wfn, 'DIPOLE', 'QUADRUPOLE', 'MULLIKEN_CHARGES')
f=open( 'psi4out.xyz', 'w' )
f.write( "8  " )
f.write( str(ee) + "\n" )
f.write( MOL.save_string_xyz() )
f.close()
--------------------------------------------------------------------------

    Molecular point group: c1
  Charge       = 0
  Multiplicity = 1
  Basis Set: CC-PVTZ
  Basis Set:
  @DF-RHF Final Energy:  -227.86094998289272
    Total Energy =                       -227.8609499828926914
    Molecular point group: c1
  Basis Set: CC-PVTZ
  Basis Set:
  Basis Set: CC-PVTZ
  Basis Set:
  @DF-RHF Final Energy:  -227.85630198625230
    Total Energy =                       -227.8563019862523049
  Basis Set: CC-PVTZ
  Basis Set:
  Basis Set: CC-PVTZ
  Basis Set:
  @DF-RHF Final Energy:  -227.86078550175097
    Total Energy =                       -227.8607855017509110
  Basis Set: CC-PVTZ
  Basis Set:
  Basis Set: CC-PVTZ
  Basis Set:
  @DF-RHF Final Energy:  -227.86175177557868
    Total Energy =                       -227.8617517755787389
  Basis Set: CC-PVTZ
  Basis Set:
  Basis Set: CC-PVTZ
  Basis Set:
  @DF-RHF Final Energy:  -227.86177118246169
    Total Energy =                       -227.8617711824616947
  Basis Set: CC-PVTZ
  Basis Set:
  Basis Set: CC-PVTZ
  Basis Set:
  @DF-RHF Final Energy:  -227.86177679086376
    Total Energy =                       -227.8617767908637290
  Basis Set: CC-PVTZ
  Basis Set:
  Charge       = 0
  Multiplicity = 1
  Basis Set: CC-PVTZ
  Basis Set:

    Orbital Energies (a.u.)
    -----------------------

    Doubly Occupied:

       1A    -20.591454     2A    -20.560784     3A    -11.375715
       4A    -11.294024     5A     -1.473179     6A     -1.382925
       7A     -0.989315     8A     -0.829087     9A     -0.741770
      10A     -0.689357    11A     -0.669444    12A     -0.624609
      13A     -0.562678    14A     -0.518494    15A     -0.474265
      16A     -0.459090

  @DF-RHF Final Energy:  -227.86177702849164

   => Energetics <=

    Nuclear Repulsion Energy =            122.4007427064880886
    One-Electron Energy =                -554.0526586464898173
    Two-Electron Energy =                 203.7901389115100415
    DFT Exchange-Correlation Energy =       0.0000000000000000
    Empirical Dispersion Energy =           0.0000000000000000
    PCM Polarization Energy =               0.0000000000000000
    EFP Energy =                            0.0000000000000000
    Total Energy =                       -227.8617770284917015
    Molecular point group: c1
  Basis Set: CC-PVTZ
  Basis Set:

  -Total Gradient:
     Atom            X                  Y                   Z
    ------   -----------------  -----------------  -----------------
       1       -0.000000883565    -0.000007544057    -0.000015806110
       2        0.002906152568     0.003957575315    -0.001710211086
       3       -0.004403523632    -0.005958015733     0.005913505854
       4        0.000001335118     0.000008205137     0.000006861208
       5       -0.000008176892     0.000018698834     0.000027938689
       6        0.001650866432     0.002034059287    -0.011053945848
       7       -0.000134203199    -0.000043240591     0.006825639375
       8       -0.000011566831    -0.000009738192     0.000006017919

  **** Optimization is complete! (in 7 steps) ****
    Final optimized geometry and variables:
    Molecular point group: c1

    Geometry (in Angstrom), charge = 0, multiplicity = 1:

    H            1.896464650850    -1.428402646539    -0.622477306364
    C            1.045970588640    -0.809205777613    -0.854456406600
    O            0.733543573370    -0.093301651774     0.326103419320
    H            0.213963837838    -1.428665890025    -1.158000480547
    H            1.306832045428    -0.124939005133    -1.652786930457
    C           -0.357561480868     0.675322791221     0.306222102455
    O           -1.457982399558     0.272525621561     0.276177311801
    H           -0.116659960745     1.731714864174     0.402364388089

  Mulliken Charges: (a.u.)
   Center  Symbol    Alpha    Beta     Spin     Total
       1     H     0.44535  0.44535  0.00000  0.10931
       2     C     3.02332  3.02332  0.00000 -0.04665
       3     O     4.15596  4.15596  0.00000 -0.31192
       4     H     0.45143  0.45143  0.00000  0.09714
       5     H     0.46405  0.46405  0.00000  0.07191
       6     C     2.83012  2.83012  0.00000  0.33976
       7     O     4.16853  4.16853  0.00000 -0.33706
       8     H     0.46124  0.46124  0.00000  0.07751

   Total alpha = 16.00000, Total beta = 16.00000, Total charge =  0.00000

*** Psi4 exiting successfully. Buy a developer a beer!
