  ==> Input File <==

--------------------------------------------------------------------------
set {
	reference rhf
	basis cc-pvtz
}

set_num_threads( 4 )
memory 2 gb

molecule MOL {
0 1

H	 -1.835082	 1.385983	 0.000069
C	 -1.300516	 0.441153	 -0.000028
O	 -0.006604	 0.654344	 -0.000106
O	 -1.828920	 -0.612308	 0.000113
C	 0.441974	 2.006602	 -0.000277
C	 1.952097	 1.991458	 -0.000749
H	 0.048104	 2.505321	 0.873853
H	 0.047556	 2.505308	 -0.874171
H	 2.332826	 1.485875	 0.877546
H	 2.326551	 3.008138	 -0.000884
H	 2.332279	 1.485836	 -0.879257

	symmetry c1
}
set optking {
	frozen_dihedral = ("
		5 3 2 4
	")
}

ee = optimize('scf')
oeprop('DIPOLE', 'QUADRUPOLE', 'MULLIKEN_CHARGES')
f=open( 'psi4out.xyz', 'w' )
f.write( "11  " )
f.write( str(ee) + "\n" )
f.write( MOL.save_string_xyz() )
f.close()
--------------------------------------------------------------------------

    Molecular point group: c1
  Charge       = 0
  Multiplicity = 1
  Basis Set: CC-PVTZ
  Basis Set:
  @DF-RHF Final Energy:  -266.92259531583505
    Total Energy =                       -266.9225953158349967
    Molecular point group: c1
  Basis Set: CC-PVTZ
  Basis Set:
  Basis Set: CC-PVTZ
  Basis Set:
  @DF-RHF Final Energy:  -266.92359072389058
    Total Energy =                       -266.9235907238908112
  Basis Set: CC-PVTZ
  Basis Set:
  Basis Set: CC-PVTZ
  Basis Set:
  @DF-RHF Final Energy:  -266.92373240868801
    Total Energy =                       -266.9237324086880108
  Basis Set: CC-PVTZ
  Basis Set:
  Basis Set: CC-PVTZ
  Basis Set:
  @DF-RHF Final Energy:  -266.92372443823996
    Total Energy =                       -266.9237244382402423
  Basis Set: CC-PVTZ
  Basis Set:
  Basis Set: CC-PVTZ
  Basis Set:
  @DF-RHF Final Energy:  -266.92373571623654
    Total Energy =                       -266.9237357162365356
  Basis Set: CC-PVTZ
  Basis Set:
  Charge       = 0
  Multiplicity = 1
  Basis Set: CC-PVTZ
  Basis Set:

    Orbital Energies (a.u.)
    -----------------------

    Doubly Occupied:

       1A    -20.605568     2A    -20.543961     3A    -11.371561
       4A    -11.304593     5A    -11.232148     6A     -1.476982
       7A     -1.382986     8A     -1.056809     9A     -0.889354
      10A     -0.848756    11A     -0.739370    12A     -0.699777
      13A     -0.672112    14A     -0.599339    15A     -0.581316
      16A     -0.566332    17A     -0.530376    18A     -0.525129
      19A     -0.459509    20A     -0.453729

  @DF-RHF Final Energy:  -266.92373770326930

   => Energetics <=

    Nuclear Repulsion Energy =            176.6740579341779380
    One-Electron Energy =                -714.1161801933596962
    Two-Electron Energy =                 270.5183845559123483
    DFT Exchange-Correlation Energy =       0.0000000000000000
    Empirical Dispersion Energy =           0.0000000000000000
    PCM Polarization Energy =               0.0000000000000000
    EFP Energy =                            0.0000000000000000
    Total Energy =                       -266.9237377032694667
    Molecular point group: c1
  Basis Set: CC-PVTZ
  Basis Set:

  -Total Gradient:
     Atom            X                  Y                   Z
    ------   -----------------  -----------------  -----------------
       1        0.000012387066     0.000008333302     0.000001507075
       2        0.000068298404     0.000025542878    -0.000004512170
       3       -0.000097704344    -0.000038886752     0.000001614263
       4       -0.000005817947    -0.000030010032     0.000001496043
       5       -0.000007979427     0.000004372764    -0.000000044791
       6        0.000015622350     0.000026744103    -0.000000071097
       7        0.000009790272     0.000002754015    -0.000008401031
       8        0.000009719583     0.000002760180     0.000008388484
       9       -0.000005888320    -0.000000916471     0.000000027240
      10        0.000007463427     0.000000285526     0.000000048411
      11       -0.000005891066    -0.000000979514    -0.000000052426

  **** Optimization is complete! (in 6 steps) ****
    Final optimized geometry and variables:
    Molecular point group: c1

    Geometry (in Angstrom), charge = 0, multiplicity = 1:

    H           -1.767917122515     0.465746870289     0.000411615763
    C           -1.170304940122    -0.447261824566     0.000262239754
    O            0.129815006371    -0.233596880624    -0.000012094087
    O           -1.646747234448    -1.518972420839     0.000366396670
    C            0.586244792841     1.108324579434    -0.000110880967
    C            2.096466678446     1.089891724694    -0.000505481709
    H            0.209079988240     1.618222256778     0.878923216752
    H            0.208621339654     1.618251021349    -0.878931361304
    H            2.470532545788     0.579785710272     0.877379531855
    H            2.476458485142     2.104406770207    -0.000584647214
    H            2.470074567180     0.579818972443    -0.878604913994

  Mulliken Charges: (a.u.)
   Center  Symbol    Alpha    Beta     Spin     Total
       1     H     0.47530  0.47530  0.00000  0.04940
       2     C     2.84609  2.84609  0.00000  0.30782
       3     O     4.12359  4.12359  0.00000 -0.24717
       4     O     4.17628  4.17628  0.00000 -0.35256
       5     C     2.97812  2.97812  0.00000  0.04375
       6     C     3.13387  3.13387  0.00000 -0.26774
       7     H     0.45919  0.45919  0.00000  0.08161
       8     H     0.45920  0.45920  0.00000  0.08161
       9     H     0.44654  0.44654  0.00000  0.10692
      10     H     0.45528  0.45528  0.00000  0.08945
      11     H     0.44654  0.44654  0.00000  0.10692

   Total alpha = 20.00000, Total beta = 20.00000, Total charge = -0.00000
