  ==> Input File <==

--------------------------------------------------------------------------
set {
	reference rhf
	basis 6-31G*
}

set_num_threads( 4 )
memory 2 gb

molecule MOL {
0 1

H	 -2.321325	 -0.430721	 -2.278649
C	 -1.838952	 -0.299331	 -1.328159
C	 -2.575701	 -0.020991	 -0.189443
C	 -0.468363	 -0.407193	 -1.229171
H	 -3.645755	 0.066952	 -0.245946
C	 -1.941509	 0.145664	 1.027419
H	 0.129577	 -0.621583	 -2.090148
C	 0.154804	 -0.237046	 -0.000077
H	 -2.530922	 0.360931	 1.899399
C	 -0.559021	 0.044964	 1.169518
N	 1.611208	 -0.370857	 -0.000034
C	 0.028695	 0.245814	 2.549077
O	 2.274126	 0.622059	 -0.008063
O	 2.068510	 -1.474748	 0.007823
H	 0.721750	 1.075518	 2.568932
H	 -0.772269	 0.445461	 3.249772
H	 0.570389	 -0.628881	 2.881639

	symmetry c1
}
set optking {
	frozen_dihedral = ("
		4 8 11 13
	")
}

ee = optimize('scf')
oeprop('DIPOLE', 'QUADRUPOLE', 'MULLIKEN_CHARGES')
f=open( 'psi4out.xyz', 'w' )
f.write( "17  " )
f.write( str(ee) + "\n" )
f.write( MOL.save_string_xyz() )
f.close()
--------------------------------------------------------------------------

    Molecular point group: c1
  Charge       = 0
  Multiplicity = 1
  Basis Set: 6-31G*
  Basis Set:
  @DF-RHF Final Energy:  -473.19857718723091
    Total Energy =                       -473.1985771872309670
    Molecular point group: c1
  Basis Set: 6-31G*
  Basis Set:
  Basis Set: 6-31G*
  Basis Set:
  @DF-RHF Final Energy:  -473.19767448117204
    Total Energy =                       -473.1976744811722710
  Basis Set: 6-31G*
  Basis Set:
  Basis Set: 6-31G*
  Basis Set:
  @DF-RHF Final Energy:  -473.19857450688562
    Total Energy =                       -473.1985745068852793
  Basis Set: 6-31G*
  Basis Set:
  Basis Set: 6-31G*
  Basis Set:
  @DF-RHF Final Energy:  -473.20094852096162
    Total Energy =                       -473.2009485209616741
  Basis Set: 6-31G*
  Basis Set:
  @DF-RHF Final Energy:  -473.20122686207401
    Total Energy =                       -473.2012268620740087
  Basis Set: 6-31G*
  Basis Set:
  @DF-RHF Final Energy:  -473.20125171856688
    Total Energy =                       -473.2012517185671641
  Basis Set: 6-31G*
  Basis Set:
  Basis Set: 6-31G*
  Basis Set:
  @DF-RHF Final Energy:  -473.20126837495349
    Total Energy =                       -473.2012683749532016
  Basis Set: 6-31G*
  Basis Set:
  Basis Set: 6-31G*
  Basis Set:
  @DF-RHF Final Energy:  -473.20127654085593
    Total Energy =                       -473.2012765408555879
  Basis Set: 6-31G*
  Basis Set:
  Charge       = 0
  Multiplicity = 1
  Basis Set: 6-31G*
  Basis Set:

    Orbital Energies (a.u.)
    -----------------------

    Doubly Occupied:

       1A    -20.606145     2A    -20.605671     3A    -15.853303
       4A    -11.302265     5A    -11.276246     6A    -11.267468
       7A    -11.258306     8A    -11.256289     9A    -11.255314
      10A    -11.240356    11A     -1.636805    12A     -1.420569
      13A     -1.202467    14A     -1.092203    15A     -1.072993
      16A     -0.979379    17A     -0.936112    18A     -0.853802
      19A     -0.819766    20A     -0.772639    21A     -0.734242
      22A     -0.730116    23A     -0.695943    24A     -0.652647
      25A     -0.636493    26A     -0.600196    27A     -0.599145
      28A     -0.570815    29A     -0.542587    30A     -0.529091
      31A     -0.520657    32A     -0.492897    33A     -0.478549
      34A     -0.450725    35A     -0.363913    36A     -0.353374

  @DF-RHF Final Energy:  -473.20127736291499

   => Energetics <=

    Nuclear Repulsion Energy =            509.7838814944758496
    One-Electron Energy =               -1654.6513438058959764
    Two-Electron Energy =                 671.6661849485050197
    DFT Exchange-Correlation Energy =       0.0000000000000000
    Empirical Dispersion Energy =           0.0000000000000000
    PCM Polarization Energy =               0.0000000000000000
    EFP Energy =                            0.0000000000000000
    Total Energy =                       -473.2012773629152207
    Molecular point group: c1
  Basis Set: 6-31G*
  Basis Set:

  -Total Gradient:
     Atom            X                  Y                   Z
    ------   -----------------  -----------------  -----------------
       1        0.000005617228     0.000003313730    -0.000007066868
       2       -0.000141263392     0.000032867693     0.000068874648
       3        0.000017221153    -0.000007516215    -0.000164909188
       4        0.000266141766     0.001916252694    -0.000242129262
       5       -0.000001778820    -0.000009541788     0.000004712864
       6        0.000143399313     0.000006478212     0.000081834592
       7       -0.000009656939     0.000008904495    -0.000006376871
       8       -0.000140533501    -0.002828170059    -0.000497186900
       9       -0.000004764121     0.000001077733    -0.000006907837
      10       -0.000171357663    -0.000001792199     0.000068416658
      11       -0.000142567903     0.000802309072     0.002990835344
      12        0.000018715144     0.000013659464    -0.000010573005
      13        0.000171459853     0.000019514626    -0.002283590646
      14       -0.000013701108     0.000054182090     0.000002434243
      15        0.000001747952    -0.000003135051     0.000000126017
      16       -0.000000409727    -0.000003462728    -0.000006191257
      17        0.000001730766    -0.000004941765     0.000007697469

  **** Optimization is complete! (in 9 steps) ****
    Final optimized geometry and variables:
    Molecular point group: c1

    Geometry (in Angstrom), charge = 0, multiplicity = 1:

    H           -2.276022703878    -0.238925867001    -2.538912012719
    C           -1.801776089069    -0.113632112286    -1.583313057955
    C           -2.551571571430     0.176276397469    -0.456676758037
    C           -0.428537133113    -0.245438817498    -1.471321198826
    H           -3.619041037930     0.275913890033    -0.533384524447
    C           -1.936296385533     0.339050574917     0.774486045782
    H            0.180448723952    -0.477955221574    -2.325021211380
    C            0.151410800413    -0.076454252951    -0.233425332097
    H           -2.533150355463     0.561948602877     1.640375909056
    C           -0.559358050582     0.224650799754     0.917624282175
    N            1.609864340982    -0.192357222281    -0.153329136559
    C            0.123086622959     0.418806794640     2.251067016503
    O            2.237049256946     0.821459423058    -0.125114991125
    O            2.071047330921    -1.291760387794    -0.142709182316
    H            0.733347005204     1.314754841419     2.246656986921
    H           -0.611002664421     0.509467855249     3.041107582663
    H            0.768801889332    -0.420233458329     2.487347025727

  Mulliken Charges: (a.u.)
   Center  Symbol    Alpha    Beta     Spin     Total
       1     H     0.38986  0.38986  0.00000  0.22029
       2     C     3.10872  3.10872  0.00000 -0.21744
       3     C     3.08844  3.08844  0.00000 -0.17687
       4     C     3.08296  3.08296  0.00000 -0.16591
       5     H     0.39118  0.39118  0.00000  0.21765
       6     C     3.11917  3.11917  0.00000 -0.23834
       7     H     0.37703  0.37703  0.00000  0.24595
       8     C     2.90804  2.90804  0.00000  0.18392
       9     H     0.39272  0.39272  0.00000  0.21457
      10     C     2.96846  2.96846  0.00000  0.06307
      11     N     3.26409  3.26409  0.00000  0.47181
      12     C     3.25994  3.25994  0.00000 -0.51987
      13     O     4.22504  4.22504  0.00000 -0.45009
      14     O     4.22411  4.22411  0.00000 -0.44822
      15     H     0.39333  0.39333  0.00000  0.21333
      16     H     0.40723  0.40723  0.00000  0.18555
      17     H     0.39970  0.39970  0.00000  0.20060

   Total alpha = 36.00000, Total beta = 36.00000, Total charge =  0.00000
