                              Psi4 1.0.54 Driver

  ==> Input File <==

--------------------------------------------------------------------------
set {
	reference rhf
	basis cc-pvtz
}

set_num_threads( 4 )
memory 2 gb

molecule MOL {
0 1

H	 2.342730	 0.877684	 -1.045694
C	 2.360424	 0.000000	 -0.411793
C	 1.173749	 0.000000	 0.526870
H	 3.286567	 0.000000	 0.151574
H	 2.342730	 -0.877684	 -1.045694
O	 0.000000	 0.000000	 -0.223739
H	 1.203779	 0.876757	 1.172538
H	 1.203779	 -0.876757	 1.172538
C	 -1.173749	 0.000000	 0.526870
C	 -1.216955	 1.251366	 1.376283
H	 -1.212452	 -0.886248	 1.158976
H	 -2.039084	 -0.037367	 -0.133653
H	 -0.366131	 1.285425	 2.045171
H	 -2.123631	 1.272669	 1.970090
H	 -1.193637	 2.135204	 0.751175

	symmetry c1
}
set optking {
	frozen_dihedral = ("
		11 9 6 3
	")
}

ee,wfn = optimize('scf', return_wfn=True)
oeprop( wfn, 'DIPOLE', 'QUADRUPOLE', 'MULLIKEN_CHARGES')
f=open( 'psi4out.xyz', 'w' )
f.write( "15  " )
f.write( str(ee) + "\n" )
f.write( MOL.save_string_xyz() )
f.close()
--------------------------------------------------------------------------

    Molecular point group: c1
  Charge       = 0
  Multiplicity = 1
  Basis Set: CC-PVTZ
  Basis Set:
  @DF-RHF Final Energy:  -232.22482573288445
    Total Energy =                       -232.2248257328844829
    Molecular point group: c1
  Basis Set: CC-PVTZ
  Basis Set:
  Basis Set: CC-PVTZ
  Basis Set:
  @DF-RHF Final Energy:  -231.93842252380213
    Total Energy =                       -231.9384225238021600
  Basis Set: CC-PVTZ
  Basis Set:
  Basis Set: CC-PVTZ
  Basis Set:
  @DF-RHF Final Energy:  -232.08260974629209
    Total Energy =                       -232.0826097462919506
  Basis Set: CC-PVTZ
  Basis Set:
  Basis Set: CC-PVTZ
  Basis Set:
  @DF-RHF Final Energy:  -232.15083672756583
    Total Energy =                       -232.1508367275658316
  Basis Set: CC-PVTZ
  Basis Set:
  @DF-RHF Final Energy:  -232.20191948592364
    Total Energy =                       -232.2019194859238382
  @DF-RHF Final Energy:  -232.22858081613202
    Total Energy =                       -232.2285808161321938
  Basis Set: CC-PVTZ
  Basis Set:
  @DF-RHF Final Energy:  -232.23012683604435
    Total Energy =                       -232.2301268360442350
  Basis Set: CC-PVTZ
  Basis Set:
  Basis Set: CC-PVTZ
  Basis Set:
  @DF-RHF Final Energy:  -232.23034046466790
    Total Energy =                       -232.2303404646680747
  Basis Set: CC-PVTZ
  Basis Set:
  Basis Set: CC-PVTZ
  Basis Set:
  @DF-RHF Final Energy:  -232.23035932382061
    Total Energy =                       -232.2303593238206076
  Basis Set: CC-PVTZ
  Basis Set:
  Charge       = 0
  Multiplicity = 1
  Basis Set: CC-PVTZ
  Basis Set:

    Orbital Energies (a.u.)
    -----------------------

    Doubly Occupied:

       1A    -20.543894     2A    -11.266327     3A    -11.265249
       4A    -11.210606     5A    -11.206396     6A     -1.378021
       7A     -1.041181     8A     -0.988413     9A     -0.866996
      10A     -0.807741    11A     -0.675674    12A     -0.654625
      13A     -0.636642    14A     -0.584099    15A     -0.547497
      16A     -0.542842    17A     -0.524828    18A     -0.504361
      19A     -0.488003    20A     -0.455662    21A     -0.411424

  @DF-RHF Final Energy:  -232.23036071575049

   => Energetics <=

    Nuclear Repulsion Energy =            193.1366250864030292
    One-Electron Energy =                -697.5330182250493181
    Two-Electron Energy =                 272.1660324228957961
    DFT Exchange-Correlation Energy =       0.0000000000000000
    Empirical Dispersion Energy =           0.0000000000000000
    PCM Polarization Energy =               0.0000000000000000
    EFP Energy =                            0.0000000000000000
    Total Energy =                       -232.2303607157505212
    Molecular point group: c1
  Basis Set: CC-PVTZ
  Basis Set:

  -Total Gradient:
     Atom            X                  Y                   Z
    ------   -----------------  -----------------  -----------------
       1        0.000007571593     0.000001381120     0.000007781846
       2       -0.000011893675    -0.000034152846    -0.000063804029
       3        0.000543947792     0.001041868462     0.000704551402
       4        0.000004123349     0.000009156132    -0.000002801694
       5        0.000018405325     0.000010935893     0.000017995713
       6       -0.001204764977    -0.001465803906    -0.001107969470
       7        0.000012574277    -0.000006643830     0.000019772150
       8        0.000000039859     0.000013290222    -0.000005442048
       9        0.002150553128     0.000329129702     0.001013953948
      10       -0.000033316161    -0.000023920146    -0.000041880955
      11       -0.001513415712     0.000142591238    -0.000540887566
      12       -0.000011942646    -0.000009142136     0.000019925859
      13        0.000033598634    -0.000004805795     0.000000761473
      14        0.000005752668     0.000010218232    -0.000021824564
      15       -0.000001233454    -0.000014102342    -0.000000132065

  **** Optimization is complete! (in 10 steps) ****
    Final optimized geometry and variables:
    Molecular point group: c1

    Geometry (in Angstrom), charge = 0, multiplicity = 1:

    H            0.934120280623     1.341305410858    -2.147327502175
    C            0.987076940973     0.260594739297    -2.101845310538
    C            0.743045380465    -0.220691305483    -0.687578641473
    H            1.968439323792    -0.050378745570    -2.442234214011
    H            0.242638669994    -0.144505910593    -2.775688440672
    O           -0.520367571577     0.209145514083    -0.282027752610
    H            1.513640305363     0.168359209020    -0.027852897487
    H            0.798254978341    -1.308234596503    -0.646029157215
    C           -1.009904135185    -0.319952108368     0.913137731251
    C           -0.217501278578     0.071073002843     2.150658273816
    H           -1.082328762597    -1.404246444688     0.835657955557
    H           -2.019924680303     0.057788065083     1.002236391103
    H            0.772677082237    -0.367145713321     2.162013146742
    H           -0.738731644197    -0.272363480677     3.037289159558
    H           -0.115938666956     1.148368646867     2.211019623687

  Mulliken Charges: (a.u.)
   Center  Symbol    Alpha    Beta     Spin     Total
       1     H     0.45118  0.45118  0.00000  0.09765
       2     C     3.13515  3.13515  0.00000 -0.27029
       3     C     2.96705  2.96705  0.00000  0.06591
       4     H     0.45952  0.45952  0.00000  0.08097
       5     H     0.45158  0.45158  0.00000  0.09683
       6     O     4.18059  4.18059  0.00000 -0.36118
       7     H     0.47068  0.47068  0.00000  0.05864
       8     H     0.47430  0.47430  0.00000  0.05140
       9     C     2.98342  2.98342  0.00000  0.03317
      10     C     3.15169  3.15169  0.00000 -0.30338
      11     H     0.46974  0.46974  0.00000  0.06052
      12     H     0.45070  0.45070  0.00000  0.09860
      13     H     0.45493  0.45493  0.00000  0.09014
      14     H     0.44987  0.44987  0.00000  0.10027
      15     H     0.44962  0.44962  0.00000  0.10076

   Total alpha = 21.00000, Total beta = 21.00000, Total charge = -0.00000

*** Psi4 exiting successfully. Buy a developer a beer!
