  ==> Input File <==

--------------------------------------------------------------------------
set {
	reference rhf
	basis cc-pvtz
}

set_num_threads( 4 )
memory 2 gb

molecule MOL {
0 1

H	 -2.451241	 -0.726122	 0.698166
O	 -2.313989	 -0.142475	 -0.025864
C	 -0.943808	 -0.065018	 -0.330000
H	 -0.812293	 -0.225641	 -1.398673
C	 -0.231030	 -1.182113	 0.407592
C	 -0.353797	 1.300461	 0.050970
H	 -0.312800	 -0.992012	 1.473041
H	 -0.738841	 -2.119564	 0.220514
C	 1.246176	 -1.268044	 -0.015480
H	 -0.539537	 2.008579	 -0.751815
H	 -0.889989	 1.662858	 0.920677
C	 1.153605	 1.231851	 0.356834
H	 1.823096	 -1.684665	 0.802361
H	 1.352335	 -1.958223	 -0.845114
C	 1.826409	 0.100723	 -0.416008
H	 1.622968	 2.181508	 0.128734
H	 1.301983	 1.066493	 1.419367
H	 2.897299	 0.112407	 -0.249665
H	 1.683458	 0.265621	 -1.480024

	symmetry c1
}
set optking {
	frozen_dihedral = ("
		1 2 3 4
	")
}

ee = optimize('scf')
oeprop('DIPOLE', 'QUADRUPOLE', 'MULLIKEN_CHARGES')
f=open( 'psi4out.xyz', 'w' )
f.write( "19  " )
f.write( str(ee) + "\n" )
f.write( MOL.save_string_xyz() )
f.close()
--------------------------------------------------------------------------

    Molecular point group: c1
  Charge       = 0
  Multiplicity = 1
  Basis Set: CC-PVTZ
  Basis Set:
  @DF-RHF Final Energy:  -309.15991550657401
    Total Energy =                       -309.1599155065738955
    Molecular point group: c1
  Basis Set: CC-PVTZ
  Basis Set:
  Basis Set: CC-PVTZ
  Basis Set:
  @DF-RHF Final Energy:  -309.16110824398771
    Total Energy =                       -309.1611082439877691
  Basis Set: CC-PVTZ
  Basis Set:
  Basis Set: CC-PVTZ
  Basis Set:
  @DF-RHF Final Energy:  -309.16141909517228
    Total Energy =                       -309.1614190951725618
  Basis Set: CC-PVTZ
  Basis Set:
  Basis Set: CC-PVTZ
  Basis Set:
  @DF-RHF Final Energy:  -309.16142414205473
    Total Energy =                       -309.1614241420543294
  Basis Set: CC-PVTZ
  Basis Set:
  Charge       = 0
  Multiplicity = 1
  Basis Set: CC-PVTZ
  Basis Set:

    Orbital Energies (a.u.)
    -----------------------

    Doubly Occupied:

       1A    -20.540792     2A    -11.267222     3A    -11.219303
       4A    -11.218369     5A    -11.215312     6A    -11.213907
       7A    -11.207067     8A     -1.361214     9A     -1.111890
      10A     -1.005700    11A     -0.990052    12A     -0.852748
      13A     -0.835528    14A     -0.748250    15A     -0.678137
      16A     -0.668494    17A     -0.623939    18A     -0.600897
      19A     -0.579894    20A     -0.555119    21A     -0.532838
      22A     -0.521995    23A     -0.501198    24A     -0.493032
      25A     -0.465891    26A     -0.449903    27A     -0.428654
      28A     -0.413187

  @DF-RHF Final Energy:  -309.16142457400701

   => Energetics <=

    Nuclear Repulsion Energy =            331.8466082957113485
    One-Electron Energy =               -1077.4150061892146368
    Two-Electron Energy =                 436.4069733194962737
    DFT Exchange-Correlation Energy =       0.0000000000000000
    Empirical Dispersion Energy =           0.0000000000000000
    PCM Polarization Energy =               0.0000000000000000
    EFP Energy =                            0.0000000000000000
    Total Energy =                       -309.1614245740070146
    Molecular point group: c1
  Basis Set: CC-PVTZ
  Basis Set:

  -Total Gradient:
     Atom            X                  Y                   Z
    ------   -----------------  -----------------  -----------------
       1       -0.000089372459    -0.000715465575    -0.000614374511
       2        0.000115988473     0.000694910999     0.000776082879
       3       -0.000086210707     0.000793002108    -0.000256562014
       4        0.000047432096    -0.000787153162     0.000130514769
       5        0.000004416897    -0.000002965891    -0.000027010258
       6        0.000043153783    -0.000002366144     0.000007278163
       7        0.000002039241    -0.000004075435    -0.000017385651
       8        0.000001931733    -0.000003532782     0.000006890851
       9       -0.000020098017    -0.000014320877     0.000047932372
      10        0.000015410626     0.000017281865    -0.000009082517
      11        0.000005777475    -0.000009407685    -0.000007750030
      12       -0.000013672642     0.000024252982    -0.000025216565
      13        0.000018081551    -0.000020272619     0.000000193819
      14       -0.000010710113     0.000003832288    -0.000000062185
      15       -0.000013293804     0.000021113265    -0.000021415390
      16       -0.000007822813     0.000013173641     0.000013126422
      17       -0.000005776441    -0.000000412408     0.000001897212
      18       -0.000011167409    -0.000013130955     0.000001780607
      19        0.000003892526     0.000005536382    -0.000006837973

  **** Optimization is complete! (in 5 steps) ****
    Final optimized geometry and variables:
    Molecular point group: c1

    Geometry (in Angstrom), charge = 0, multiplicity = 1:

    H           -2.543620984938    -0.659725496844     0.623717897533
    O           -2.335595388825    -0.080867313478    -0.085569779099
    C           -0.947081180695    -0.067414877972    -0.319294758397
    H           -0.820607382959    -0.229675067510    -1.384775551712
    C           -0.218151862386    -1.184443862276     0.411440934712
    C           -0.360466269932     1.298255116011     0.060229997291
    H           -0.286358058772    -1.001099113678     1.481588370766
    H           -0.712385239347    -2.131542769858     0.222475027239
    C            1.257691456458    -1.260872012996    -0.020173544826
    H           -0.568382265533     2.003381575585    -0.736659771439
    H           -0.890833715045     1.656673182060     0.934624226837
    C            1.151156084330     1.238679681749     0.345879347685
    H            1.843579524727    -1.667402543421     0.796337304173
    H            1.361182501287    -1.955924103035    -0.845670839089
    C            1.821132509829     0.110527576104    -0.433657937948
    H            1.612322500850     2.190193317935     0.109364777069
    H            1.318216046375     1.076585686298     1.406743186889
    H            2.894202219081     0.127809708707    -0.282953005138
    H            1.660871119471     0.269922247631    -1.495686548422

  Mulliken Charges: (a.u.)
   Center  Symbol    Alpha    Beta     Spin     Total
       1     H     0.39191  0.39191  0.00000  0.21619
       2     O     4.21071  4.21071  0.00000 -0.42142
       3     C     2.92773  2.92773  0.00000  0.14454
       4     H     0.45149  0.45149  0.00000  0.09702
       5     C     3.11662  3.11662  0.00000 -0.23324
       6     C     3.10645  3.10645  0.00000 -0.21289
       7     H     0.45486  0.45486  0.00000  0.09027
       8     H     0.44224  0.44224  0.00000  0.11553
       9     C     3.11287  3.11287  0.00000 -0.22575
      10     H     0.44728  0.44728  0.00000  0.10545
      11     H     0.44917  0.44917  0.00000  0.10166
      12     C     3.10159  3.10159  0.00000 -0.20318
      13     H     0.44725  0.44725  0.00000  0.10550
      14     H     0.44579  0.44579  0.00000  0.10842
      15     C     3.10196  3.10196  0.00000 -0.20391
      16     H     0.44192  0.44192  0.00000  0.11615
      17     H     0.45464  0.45464  0.00000  0.09072
      18     H     0.44272  0.44272  0.00000  0.11457
      19     H     0.45281  0.45281  0.00000  0.09438

   Total alpha = 28.00000, Total beta = 28.00000, Total charge =  0.00000
