  ==> Input File <==

--------------------------------------------------------------------------
set {
	reference rhf
	basis 6-31G*
}

set_num_threads( 4 )
memory 2 gb

molecule MOL {
0 1

O	 1.049463	 -0.223792	 0.530196
C	 0.028650	 0.075053	 -0.000277
C	 -1.233602	 -0.752807	 0.000328
O	 -0.135800	 1.203100	 -0.678781
C	 -2.501530	 0.091881	 0.000126
H	 -1.193807	 -1.406641	 -0.865785
H	 -1.193516	 -1.405779	 0.867015
H	 -2.545121	 0.729328	 -0.874513
H	 -3.377167	 -0.548497	 0.000561
H	 -2.544818	 0.730135	 0.874258
C	 0.978243	 2.073908	 -0.757455
H	 1.281781	 2.392294	 0.229413
H	 0.650023	 2.920993	 -1.339332
H	 1.809438	 1.584415	 -1.244263

	symmetry c1
}
set optking {
	frozen_dihedral = ("
		4 2 3 6
	")
}

ee = optimize('scf')
oeprop('DIPOLE', 'QUADRUPOLE', 'MULLIKEN_CHARGES')
f=open( 'psi4out.xyz', 'w' )
f.write( "14  " )
f.write( str(ee) + "\n" )
f.write( MOL.save_string_xyz() )
f.close()
--------------------------------------------------------------------------

    Molecular point group: c1
  Charge       = 0
  Multiplicity = 1
  Basis Set: 6-31G*
  Basis Set:
  @DF-RHF Final Energy:  -305.86943058235352
    Total Energy =                       -305.8694305823534592
    Molecular point group: c1
  Basis Set: 6-31G*
  Basis Set:
  Basis Set: 6-31G*
  Basis Set:
  @DF-RHF Final Energy:  -305.86967919993049
    Total Energy =                       -305.8696791999305447
  Basis Set: 6-31G*
  Basis Set:
  Basis Set: 6-31G*
  Basis Set:
  @DF-RHF Final Energy:  -305.86900399732394
    Total Energy =                       -305.8690039973239436
  Basis Set: 6-31G*
  Basis Set:
  Basis Set: 6-31G*
  Basis Set:
  @DF-RHF Final Energy:  -305.87008736011200
    Total Energy =                       -305.8700873601119383
  Basis Set: 6-31G*
  Basis Set:
  Basis Set: 6-31G*
  Basis Set:
  @DF-RHF Final Energy:  -305.87010664340170
    Total Energy =                       -305.8701066434016980
  Basis Set: 6-31G*
  Basis Set:
  Charge       = 0
  Multiplicity = 1
  Basis Set: 6-31G*
  Basis Set:

    Orbital Energies (a.u.)
    -----------------------

    Doubly Occupied:

       1A    -20.606430     2A    -20.543057     3A    -11.372739
       4A    -11.282056     5A    -11.238722     6A    -11.222360
       7A     -1.470679     8A     -1.362198     9A     -1.066620
      10A     -0.975083    11A     -0.887070    12A     -0.775023
      13A     -0.695464    14A     -0.681399    15A     -0.672162
      16A     -0.620940    17A     -0.586177    18A     -0.563118
      19A     -0.545935    20A     -0.521370    21A     -0.515974
      22A     -0.498620    23A     -0.455566    24A     -0.433915

  @DF-RHF Final Energy:  -305.87010782229464

   => Energetics <=

    Nuclear Repulsion Energy =            248.4110997770472409
    One-Electron Energy =                -909.3770587120068285
    Two-Electron Energy =                 355.0958511126648318
    DFT Exchange-Correlation Energy =       0.0000000000000000
    Empirical Dispersion Energy =           0.0000000000000000
    PCM Polarization Energy =               0.0000000000000000
    EFP Energy =                            0.0000000000000000
    Total Energy =                       -305.8701078222948126
    Molecular point group: c1
  Basis Set: 6-31G*
  Basis Set:

  -Total Gradient:
     Atom            X                  Y                   Z
    ------   -----------------  -----------------  -----------------
       1       -0.000061051241     0.000036518321    -0.000017550416
       2        0.000401376929    -0.000612726871    -0.000571099797
       3       -0.000493637289     0.000755607132    -0.000306072322
       4       -0.000198434440     0.000391903452     0.000495398579
       5        0.000025234948    -0.000024215189     0.000007371290
       6        0.000342420795    -0.000504671511     0.000381058928
       7       -0.000024399332     0.000006328768     0.000005464464
       8        0.000016960413    -0.000017587460    -0.000000057606
       9       -0.000000366407    -0.000005237731     0.000002222440
      10        0.000004816479     0.000007486989     0.000009389871
      11       -0.000031101863    -0.000059644237    -0.000014024318
      12        0.000005026006     0.000007231869     0.000006856199
      13        0.000000861500     0.000004870746     0.000002920570
      14        0.000012293499     0.000014135720    -0.000001877881

  **** Optimization is complete! (in 6 steps) ****
    Final optimized geometry and variables:
    Molecular point group: c1

    Geometry (in Angstrom), charge = 0, multiplicity = 1:

    O            1.328006810397    -0.673515245096     0.668953338150
    C            0.307936483095    -0.340537336316     0.156321342303
    C           -0.952417952725    -1.174972439021     0.162273961317
    O            0.170665627244     0.797088667479    -0.509563616074
    C           -2.262266045969    -0.388977486861     0.158875554106
    H           -0.898048838801    -1.819463595291    -0.712027586802
    H           -0.884237088902    -1.823995403658     1.025985100416
    H           -2.358204643347     0.215560589653    -0.733445886098
    H           -3.102304759967    -1.073940376699     0.199096512343
    H           -2.328114307372     0.269310082246     1.018660744545
    C            1.312773094343     1.630170206470    -0.598696041366
    H            1.645012620616     1.924311045825     0.386266026840
    H            1.003174336065     2.495372009145    -1.163880021892
    H            2.116883896642     1.117891948116    -1.106877951219

  Mulliken Charges: (a.u.)
   Center  Symbol    Alpha    Beta     Spin     Total
       1     O     4.28735  4.28735  0.00000 -0.57470
       2     C     2.60914  2.60914  0.00000  0.78172
       3     C     3.20508  3.20508  0.00000 -0.41017
       4     O     4.30287  4.30287  0.00000 -0.60573
       5     C     3.24227  3.24227  0.00000 -0.48454
       6     H     0.40042  0.40042  0.00000  0.19916
       7     H     0.39704  0.39704  0.00000  0.20591
       8     H     0.40737  0.40737  0.00000  0.18527
       9     H     0.41547  0.41547  0.00000  0.16906
      10     H     0.41520  0.41520  0.00000  0.16960
      11     C     3.09253  3.09253  0.00000 -0.18507
      12     H     0.40809  0.40809  0.00000  0.18382
      13     H     0.40864  0.40864  0.00000  0.18273
      14     H     0.40853  0.40853  0.00000  0.18293

   Total alpha = 24.00000, Total beta = 24.00000, Total charge =  0.00000
