  ==> Input File <==

--------------------------------------------------------------------------
set {
	reference rhf
	basis cc-pvtz
}

set_num_threads( 4 )
memory 2 gb

molecule MOL {
0 1

H	 2.363752	 1.401466	 0.370127
O	 1.449186	 1.460648	 0.574365
C	 0.700177	 0.619554	 -0.266242
C	 -0.713111	 0.588314	 0.266177
H	 1.110138	 -0.385860	 -0.265933
H	 0.697350	 0.993363	 -1.286848
O	 -1.421673	 -0.521378	 -0.196983
H	 -1.244794	 1.469161	 -0.069059
H	 -0.685100	 0.604721	 1.352683
H	 -0.933408	 -1.297830	 0.014544

	symmetry c1
}
set optking {
	frozen_dihedral = ("
		5 3 4 7
	")
}

ee = optimize('scf')
oeprop('DIPOLE', 'QUADRUPOLE', 'MULLIKEN_CHARGES')
f=open( 'psi4out.xyz', 'w' )
f.write( "10  " )
f.write( str(ee) + "\n" )
f.write( MOL.save_string_xyz() )
f.close()
--------------------------------------------------------------------------

    Molecular point group: c1
  Charge       = 0
  Multiplicity = 1
  Basis Set: CC-PVTZ
  Basis Set:
  @DF-RHF Final Energy:  -229.02296524374856
    Total Energy =                       -229.0229652437486152
    Molecular point group: c1
  Basis Set: CC-PVTZ
  Basis Set:
  Basis Set: CC-PVTZ
  Basis Set:
  @DF-RHF Final Energy:  -229.02391020909334
    Total Energy =                       -229.0239102090933727
  Basis Set: CC-PVTZ
  Basis Set:
  Basis Set: CC-PVTZ
  Basis Set:
  @DF-RHF Final Energy:  -229.02421683604507
    Total Energy =                       -229.0242168360451558
  Basis Set: CC-PVTZ
  Basis Set:
  Basis Set: CC-PVTZ
  Basis Set:
  @DF-RHF Final Energy:  -229.02426134427924
    Total Energy =                       -229.0242613442790685
  Basis Set: CC-PVTZ
  Basis Set:
  Basis Set: CC-PVTZ
  Basis Set:
  @DF-RHF Final Energy:  -229.02426325783262
    Total Energy =                       -229.0242632578326720
  Basis Set: CC-PVTZ
  Basis Set:
  Charge       = 0
  Multiplicity = 1
  Basis Set: CC-PVTZ
  Basis Set:

    Orbital Energies (a.u.)
    -----------------------

    Doubly Occupied:

       1A    -20.556723     2A    -20.551987     3A    -11.271803
       4A    -11.267439     5A     -1.379786     6A     -1.365990
       7A     -0.999035     8A     -0.848529     9A     -0.728534
      10A     -0.681356    11A     -0.650401    12A     -0.616403
      13A     -0.576744    14A     -0.528984    15A     -0.497053
      16A     -0.446896    17A     -0.441053

  @DF-RHF Final Energy:  -229.02426341358566

   => Energetics <=

    Nuclear Repulsion Energy =            131.4791724264592006
    One-Electron Energy =                -574.1894394304856633
    Two-Electron Energy =                 213.6860035904408903
    DFT Exchange-Correlation Energy =       0.0000000000000000
    Empirical Dispersion Energy =           0.0000000000000000
    PCM Polarization Energy =               0.0000000000000000
    EFP Energy =                            0.0000000000000000
    Total Energy =                       -229.0242634135856008
    Molecular point group: c1
  Basis Set: CC-PVTZ
  Basis Set:

  -Total Gradient:
     Atom            X                  Y                   Z
    ------   -----------------  -----------------  -----------------
       1       -0.000026071339    -0.000004657453     0.000008632483
       2        0.000029592707     0.000013012140     0.000002566006
       3        0.001798604201    -0.000151196038     0.005110917435
       4       -0.001363415948     0.002133306426    -0.003878140004
       5       -0.001210041330    -0.000324026711    -0.003515882182
       6       -0.000011145535    -0.000015996666    -0.000002274690
       7        0.000800689390    -0.001672698176     0.002264891034
       8       -0.000006981313     0.000000835829     0.000000307349
       9       -0.000012245370     0.000016336247     0.000008075642
      10        0.000001014536     0.000005084403     0.000000906929

  **** Optimization is complete! (in 6 steps) ****
    Final optimized geometry and variables:
    Molecular point group: c1

    Geometry (in Angstrom), charge = 0, multiplicity = 1:

    H            2.286026272950     1.075300912140     0.176806970607
    O            1.433341487531     0.908959768549     0.533047606833
    C            0.694657224798     0.094499512109    -0.331290043494
    C           -0.742700564049     0.062268682079     0.161158808711
    H            1.083388346110    -0.921510649776    -0.367358291306
    H            0.724163867275     0.474652061551    -1.348790570692
    O           -1.456432269471    -1.013767225634    -0.378992336429
    H           -1.261694366521     0.964197080331    -0.129452509287
    H           -0.733317437236     0.023302786937     1.246028352972
    H           -1.160055406756    -1.819183821602     0.003520577536

  Mulliken Charges: (a.u.)
   Center  Symbol    Alpha    Beta     Spin     Total
       1     H     0.39216  0.39216  0.00000  0.21569
       2     O     4.19913  4.19913  0.00000 -0.39825
       3     C     2.96123  2.96123  0.00000  0.07755
       4     C     2.97339  2.97339  0.00000  0.05322
       5     H     0.48263  0.48263  0.00000  0.03475
       6     H     0.47243  0.47243  0.00000  0.05514
       7     O     4.20407  4.20407  0.00000 -0.40815
       8     H     0.45485  0.45485  0.00000  0.09030
       9     H     0.46707  0.46707  0.00000  0.06586
      10     H     0.39305  0.39305  0.00000  0.21390

   Total alpha = 17.00000, Total beta = 17.00000, Total charge = -0.00000
