                              Psi4 1.0.54 Driver

  ==> Input File <==

--------------------------------------------------------------------------
set {
	reference rhf
	basis cc-pvtz
}

set_num_threads( 4 )
memory 2 gb

molecule MOL {
0 1

H	 -3.436473	 1.252944	 -1.023892
O	 -3.458596	 0.315260	 -0.960865
C	 -3.176635	 -0.080824	 0.355601
C	 -1.763371	 0.265266	 0.799691
H	 -3.321825	 -1.153438	 0.379502
H	 -3.895468	 0.357385	 1.043382
C	 -0.673390	 -0.426948	 -0.013392
H	 -1.631049	 1.344913	 0.747560
H	 -1.664587	 -0.001624	 1.849167
C	 0.737842	 -0.043159	 0.423759
H	 -0.806103	 -0.190518	 -1.063345
H	 -0.797221	 -1.503753	 0.074146
C	 1.824000	 -0.743224	 -0.390623
H	 0.850588	 1.033777	 0.343840
H	 0.868587	 -0.286314	 1.476203
C	 3.255957	 -0.453067	 0.062319
H	 1.718250	 -0.470599	 -1.438164
H	 1.658105	 -1.815850	 -0.339904
C	 4.340879	 -0.985410	 -0.870793
H	 3.399474	 -0.889611	 1.045990
H	 3.382275	 0.619336	 0.186475
H	 4.236163	 -2.055581	 -1.018593
H	 5.326412	 -0.805226	 -0.456667
H	 4.306596	 -0.512346	 -1.844775

	symmetry c1
}
set optking {
	frozen_dihedral = ("
		20 16 13 17
	")
}

ee,wfn = optimize('scf', return_wfn=True)
oeprop( wfn, 'DIPOLE', 'QUADRUPOLE', 'MULLIKEN_CHARGES')
f=open( 'psi4out.xyz', 'w' )
f.write( "24  " )
f.write( str(ee) + "\n" )
f.write( MOL.save_string_xyz() )
f.close()
--------------------------------------------------------------------------

    Molecular point group: c1
  Charge       = 0
  Multiplicity = 1
  Basis Set: CC-PVTZ
  Basis Set:
  @DF-RHF Final Energy:  -349.38149675235957
    Total Energy =                       -349.3814967523591122
    Molecular point group: c1
  Basis Set: CC-PVTZ
  Basis Set:
  Basis Set: CC-PVTZ
  Basis Set:
  @DF-RHF Final Energy:  -349.38178413943155
    Total Energy =                       -349.3817841394313177
  Basis Set: CC-PVTZ
  Basis Set:
  Basis Set: CC-PVTZ
  Basis Set:
  @DF-RHF Final Energy:  -349.38183396375121
    Total Energy =                       -349.3818339637513191
  Basis Set: CC-PVTZ
  Basis Set:
  Charge       = 0
  Multiplicity = 1
  Basis Set: CC-PVTZ
  Basis Set:

    Orbital Energies (a.u.)
    -----------------------

    Doubly Occupied:

       1A    -20.546314     2A    -11.265546     3A    -11.215216
       4A    -11.211666     5A    -11.210659     6A    -11.209139
       7A    -11.209000     8A    -11.205133     9A     -1.364164
      10A     -1.089924    11A     -1.050316    12A     -0.989124
      13A     -0.914703    14A     -0.842857    15A     -0.798008
      16A     -0.788553    17A     -0.681760    18A     -0.658376
      19A     -0.631954    20A     -0.615919    21A     -0.593499
      22A     -0.586045    23A     -0.547031    24A     -0.544331
      25A     -0.532185    26A     -0.500203    27A     -0.496158
      28A     -0.471772    29A     -0.468845    30A     -0.461051
      31A     -0.458524    32A     -0.456410    33A     -0.420805

  @DF-RHF Final Energy:  -349.38183431027630

   => Energetics <=

    Nuclear Repulsion Energy =            381.0106353280060603
    One-Electron Energy =               -1228.7145517110016044
    Two-Electron Energy =                 498.3220820727190130
    DFT Exchange-Correlation Energy =       0.0000000000000000
    Empirical Dispersion Energy =           0.0000000000000000
    PCM Polarization Energy =               0.0000000000000000
    EFP Energy =                            0.0000000000000000
    Total Energy =                       -349.3818343102765311
    Molecular point group: c1
  Basis Set: CC-PVTZ
  Basis Set:

  -Total Gradient:
     Atom            X                  Y                   Z
    ------   -----------------  -----------------  -----------------
       1       -0.000000096916    -0.000005418722    -0.000002617580
       2       -0.000010843056     0.000018288350    -0.000011756862
       3        0.000023531027    -0.000011203909    -0.000017775556
       4        0.000004091628     0.000035379518    -0.000029294964
       5        0.000003473277     0.000000822710     0.000008778727
       6        0.000013556728     0.000001717839     0.000001363567
       7       -0.000061440656    -0.000002334117     0.000006873993
       8       -0.000001577786     0.000012782823     0.000014060807
       9        0.000008932363    -0.000012929664    -0.000013601921
      10       -0.000023842643    -0.000028736343     0.000045586987
      11       -0.000001158353    -0.000017219388     0.000000754069
      12        0.000023445059     0.000010763431     0.000021715133
      13       -0.000509753590     0.001769115085     0.000426960172
      14        0.000002289678    -0.000007352164     0.000014509911
      15        0.000012047654    -0.000024342535    -0.000020411495
      16       -0.000693283056     0.001550878128     0.000822940580
      17        0.000557478726    -0.001725930703    -0.000467001858
      18        0.000005546719     0.000010850932     0.000005451370
      19        0.000074960629     0.000035123056    -0.000028622227
      20        0.000599439587    -0.001559156425    -0.000758948787
      21       -0.000000942312    -0.000043019809    -0.000012539270
      22        0.000013613607     0.000091510256    -0.000006925178
      23       -0.000076652919    -0.000046692731    -0.000065087127
      24        0.000037184604    -0.000052895617     0.000065587506

  **** Optimization is complete! (in 4 steps) ****
    Final optimized geometry and variables:
    Molecular point group: c1

    Geometry (in Angstrom), charge = 0, multiplicity = 1:

    H           -3.489894980546     1.539827526326    -0.932366984696
    O           -3.524744605892     0.602049816395    -0.877337184747
    C           -3.255512466934     0.191529499645     0.437300326016
    C           -1.840225392552     0.514866542240     0.891908064897
    H           -3.415308243088    -0.879184673788     0.451314912777
    H           -3.972239376609     0.633656720372     1.124761921253
    C           -0.755155320510    -0.183924132540     0.077992806376
    H           -1.693378941147     1.593110183793     0.850640974992
    H           -1.750372404556     0.236916240985     1.939292880755
    C            0.658304867895     0.177773592462     0.525235370468
    H           -0.879677832037     0.063168135977    -0.970484817655
    H           -0.892684236623    -1.259828343147     0.155768650848
    C            1.746248320455    -0.515641467627    -0.288405269510
    H            0.792133795352     1.254791708987     0.455442190132
    H            0.781111303134    -0.075011362693     1.576110594268
    C            3.163264349692    -0.180175025249     0.170601724771
    H            1.637662808333    -0.260998784169    -1.339958553868
    H            1.604279389784    -1.592597147748    -0.232009138195
    C            4.237419135197    -0.720749647567    -0.768603922275
    H            3.324806539245    -0.594699386420     1.161866629459
    H            3.272851962974     0.896804306719     0.260564426151
    H            4.164152375686    -1.798793049339    -0.867035390822
    H            5.231705444683    -0.489885467650    -0.403921005388
    H            4.141416604529    -0.293136964336    -1.760898800889

  Mulliken Charges: (a.u.)
   Center  Symbol    Alpha    Beta     Spin     Total
       1     H     0.39531  0.39531  0.00000  0.20938
       2     O     4.20372  4.20372  0.00000 -0.40744
       3     C     2.97755  2.97755  0.00000  0.04490
       4     C     3.10262  3.10262  0.00000 -0.20524
       5     H     0.45890  0.45890  0.00000  0.08221
       6     H     0.46030  0.46030  0.00000  0.07940
       7     C     3.08795  3.08795  0.00000 -0.17589
       8     H     0.45908  0.45908  0.00000  0.08183
       9     H     0.45329  0.45329  0.00000  0.09342
      10     C     3.08820  3.08820  0.00000 -0.17639
      11     H     0.44643  0.44643  0.00000  0.10715
      12     H     0.45535  0.45535  0.00000  0.08930
      13     C     3.08640  3.08640  0.00000 -0.17280
      14     H     0.45545  0.45545  0.00000  0.08911
      15     H     0.45602  0.45602  0.00000  0.08795
      16     C     3.08402  3.08402  0.00000 -0.16804
      17     H     0.45493  0.45493  0.00000  0.09014
      18     H     0.45476  0.45476  0.00000  0.09048
      19     C     3.15036  3.15036  0.00000 -0.30072
      20     H     0.45459  0.45459  0.00000  0.09081
      21     H     0.45559  0.45559  0.00000  0.08883
      22     H     0.45512  0.45512  0.00000  0.08977
      23     H     0.44889  0.44889  0.00000  0.10222
      24     H     0.45519  0.45519  0.00000  0.08962

   Total alpha = 33.00000, Total beta = 33.00000, Total charge =  0.00000

*** Psi4 exiting successfully. Buy a developer a beer!
