                              Psi4 1.0.54 Driver

  ==> Input File <==

--------------------------------------------------------------------------
set {
	reference rhf
	basis cc-pvtz
}

set_num_threads( 4 )
memory 2 gb

molecule MOL {
0 1

H	 -3.162190	 0.493205	 -0.000107
C	 -2.363908	 -0.234727	 0.000005
O	 -1.158738	 0.454634	 -0.000087
H	 -2.464314	 -0.863616	 -0.882153
H	 -2.464327	 -0.863359	 0.882345
C	 -0.028611	 -0.359694	 0.000037
C	 0.902118	 0.078252	 1.112844
H	 0.479495	 -0.294214	 -0.962344
H	 -0.318346	 -1.401294	 0.140625
C	 2.168552	 -0.767937	 1.179610
H	 1.157226	 1.121002	 0.959482
H	 0.365743	 0.022670	 2.053676
H	 2.733785	 -0.707262	 0.255534
H	 2.814547	 -0.433734	 1.982119
H	 1.937036	 -1.812869	 1.357335

	symmetry c1
}
set optking {
	frozen_dihedral = ("
		8 6 3 2
	")
}

ee,wfn = optimize('scf', return_wfn=True)
oeprop( wfn, 'DIPOLE', 'QUADRUPOLE', 'MULLIKEN_CHARGES')
f=open( 'psi4out.xyz', 'w' )
f.write( "15  " )
f.write( str(ee) + "\n" )
f.write( MOL.save_string_xyz() )
f.close()
--------------------------------------------------------------------------

    Molecular point group: c1
  Charge       = 0
  Multiplicity = 1
  Basis Set: CC-PVTZ
  Basis Set:
  @DF-RHF Final Energy:  -232.22432288224957
    Total Energy =                       -232.2243228822496235
    Molecular point group: c1
  Basis Set: CC-PVTZ
  Basis Set:
  Basis Set: CC-PVTZ
  Basis Set:
  @DF-RHF Final Energy:  -232.22457394467298
    Total Energy =                       -232.2245739446731250
  Basis Set: CC-PVTZ
  Basis Set:
  Basis Set: CC-PVTZ
  Basis Set:
  @DF-RHF Final Energy:  -232.22469190940782
    Total Energy =                       -232.2246919094079658
  Basis Set: CC-PVTZ
  Basis Set:
  Charge       = 0
  Multiplicity = 1
  Basis Set: CC-PVTZ
  Basis Set:

    Orbital Energies (a.u.)
    -----------------------

    Doubly Occupied:

       1A    -20.544370     2A    -11.264046     3A    -11.262506
       4A    -11.212504     5A    -11.210733     6A     -1.377085
       7A     -1.057578     8A     -0.956937     9A     -0.878669
      10A     -0.808582    11A     -0.672560    12A     -0.654570
      13A     -0.635755    14A     -0.602570    15A     -0.568104
      16A     -0.539767    17A     -0.505071    18A     -0.493123
      19A     -0.481566    20A     -0.463679    21A     -0.408024

  @DF-RHF Final Energy:  -232.22469284011626

   => Energetics <=

    Nuclear Repulsion Energy =            190.1275927292118979
    One-Electron Energy =                -691.5089736058657763
    Two-Electron Energy =                 269.1566880365376164
    DFT Exchange-Correlation Energy =       0.0000000000000000
    Empirical Dispersion Energy =           0.0000000000000000
    PCM Polarization Energy =               0.0000000000000000
    EFP Energy =                            0.0000000000000000
    Total Energy =                       -232.2246928401162904
    Molecular point group: c1
  Basis Set: CC-PVTZ
  Basis Set:

  -Total Gradient:
     Atom            X                  Y                   Z
    ------   -----------------  -----------------  -----------------
       1       -0.000000546795    -0.000012251345    -0.000001621004
       2       -0.000228456822    -0.000092672184     0.001223682179
       3        0.000380731321     0.000349454714    -0.001631110104
       4        0.000032234587     0.000026492936     0.000033629722
       5        0.000029655941     0.000023008473    -0.000022267575
       6       -0.001052894696    -0.001390746157    -0.000130310947
       7        0.000023725691     0.000010257873    -0.000069624673
       8        0.000807318582     0.001128475437     0.000607076185
       9        0.000013790895    -0.000020006885    -0.000009598484
      10        0.000004274608    -0.000032247885     0.000019150303
      11       -0.000010713816     0.000005884829     0.000003883566
      12       -0.000009857855    -0.000001594116    -0.000023437045
      13       -0.000003520112     0.000000045183     0.000010721531
      14       -0.000002668937    -0.000003817039    -0.000000182175
      15        0.000016927411     0.000009716164    -0.000009991481

  **** Optimization is complete! (in 4 steps) ****
    Final optimized geometry and variables:
    Molecular point group: c1

    Geometry (in Angstrom), charge = 0, multiplicity = 1:

    H           -3.036937599960     0.704265010718    -0.501189298376
    C           -2.255172637117    -0.041661655259    -0.516137651869
    O           -1.036610261222     0.622389788393    -0.449148168913
    H           -2.349112005944    -0.622928802844    -1.430736986063
    H           -2.395233830175    -0.708646998821     0.331366521710
    C            0.105429091191    -0.185646796380    -0.432038962488
    C            1.018244259350     0.221354726518     0.711247178617
    H            0.632154060759    -0.071398030213    -1.376285795403
    H           -0.166962085996    -1.233421360247    -0.334254038138
    C            2.315617095232    -0.579224722490     0.736236738017
    H            1.234471242301     1.279866228269     0.616348388925
    H            0.483512222983     0.095909916364     1.647238385612
    H            2.879485854245    -0.444697918053    -0.180853120280
    H            2.947691383912    -0.268133583588     1.559029875508
    H            2.123599964011    -1.640972535432     0.852476937217

  Mulliken Charges: (a.u.)
   Center  Symbol    Alpha    Beta     Spin     Total
       1     H     0.44952  0.44952  0.00000  0.10096
       2     C     3.03127  3.03127  0.00000 -0.06254
       3     O     4.17864  4.17864  0.00000 -0.35728
       4     H     0.47009  0.47009  0.00000  0.05981
       5     H     0.47276  0.47276  0.00000  0.05447
       6     C     2.96457  2.96457  0.00000  0.07085
       7     C     3.07877  3.07877  0.00000 -0.15753
       8     H     0.46055  0.46055  0.00000  0.07891
       9     H     0.47484  0.47484  0.00000  0.05031
      10     C     3.15538  3.15538  0.00000 -0.31075
      11     H     0.45047  0.45047  0.00000  0.09906
      12     H     0.45526  0.45526  0.00000  0.08948
      13     H     0.45518  0.45518  0.00000  0.08965
      14     H     0.44655  0.44655  0.00000  0.10691
      15     H     0.45615  0.45615  0.00000  0.08771

   Total alpha = 21.00000, Total beta = 21.00000, Total charge = -0.00000

*** Psi4 exiting successfully. Buy a developer a beer!
