  ==> Input File <==

--------------------------------------------------------------------------
set {
	reference rhf
	basis 6-31G*
}

set_num_threads( 1 )
memory 2 gb

molecule MOL {
0 1

H	 -1.487101	 4.148576	 -0.606712
O	 -0.798186	 3.547221	 -0.850992
C	 -0.903722	 2.372924	 -0.087788
C	 0.213850	 1.433622	 -0.505509
H	 -0.823911	 2.598191	 0.974846
H	 -1.870213	 1.897098	 -0.248492
C	 0.198102	 0.111031	 0.262842
H	 1.162137	 1.942528	 -0.355520
H	 0.124195	 1.248727	 -1.572399
C	 1.331804	 -0.827780	 -0.158768
H	 0.264244	 0.316057	 1.328564
H	 -0.756354	 -0.389666	 0.105250
C	 2.723619	 -0.410569	 0.329459
H	 1.342964	 -0.912588	 -1.244120
H	 1.116806	 -1.824343	 0.220779
C	 3.243875	 0.895854	 -0.272975
H	 3.424222	 -1.207124	 0.091250
H	 2.714788	 -0.329854	 1.414619
H	 3.251977	 0.848779	 -1.358681
H	 2.637085	 1.747371	 0.016682
H	 4.259473	 1.094070	 0.055697

	symmetry c1
}
set optking {
	frozen_dihedral = ("
		2 3 4 8,
		8 4 7 10,
		16 13 10 14,
		1 2 3 5
	")
}

ee = energy('scf')
oeprop('DIPOLE', 'QUADRUPOLE', 'MULLIKEN_CHARGES')
f=open( 'psi4out.xyz', 'w' )
f.write( "21  " )
f.write( str(ee) + "\n" )
f.write( MOL.save_string_xyz() )
f.close()
--------------------------------------------------------------------------

    Molecular point group: c1

    Geometry (in Angstrom), charge = 0, multiplicity = 1:

       Center              X                  Y                   Z               Mass
    ------------   -----------------  -----------------  -----------------  -----------------
           H         -2.313743850113     3.062396568250    -0.410913813204     1.007825032070
           O         -1.624828850113     2.461041568250    -0.655193813204    15.994914619560
           C         -1.730364850113     1.286744568250     0.108010186796    12.000000000000
           C         -0.612792850113     0.347442568250    -0.309710813204    12.000000000000
           H         -1.650553850113     1.512011568250     1.170644186796     1.007825032070
           H         -2.696855850113     0.810918568250    -0.052693813204     1.007825032070
           C         -0.628540850113    -0.975148431750     0.458640186796    12.000000000000
           H          0.335494149887     0.856348568250    -0.159721813204     1.007825032070
           H         -0.702447850113     0.162547568250    -1.376600813204     1.007825032070
           C          0.505161149887    -1.913959431750     0.037030186796    12.000000000000
           H         -0.562398850113    -0.770122431750     1.524362186796     1.007825032070
           H         -1.582996850113    -1.475845431750     0.301048186796     1.007825032070
           C          1.896976149887    -1.496748431750     0.525257186796    12.000000000000
           H          0.516321149887    -1.998767431750    -1.048321813204     1.007825032070
           H          0.290163149887    -2.910522431750     0.416577186796     1.007825032070
           C          2.417232149887    -0.190325431750    -0.077176813204    12.000000000000
           H          2.597579149887    -2.293303431750     0.287048186796     1.007825032070
           H          1.888145149887    -1.416033431750     1.610417186796     1.007825032070
           H          2.425334149887    -0.237400431750    -1.162882813204     1.007825032070
           H          1.810442149887     0.661191568250     0.212480186796     1.007825032070
           H          3.432830149887     0.007890568250     0.251495186796     1.007825032070

  Charge       = 0
  Multiplicity = 1
  Basis Set: 6-31G*
  Basis Set:

    Orbital Energies (a.u.)
    -----------------------

    Doubly Occupied:

       1A    -20.551140     2A    -11.265332     3A    -11.215556
       4A    -11.214527     5A    -11.213400     6A    -11.205455
       7A    -11.204026     8A     -1.357801     9A     -1.089028
      10A     -1.026631    11A     -0.958568    12A     -0.877291
      13A     -0.805034    14A     -0.778159    15A     -0.690767
      16A     -0.665345    17A     -0.622723    18A     -0.609316
      19A     -0.586103    20A     -0.558954    21A     -0.543759
      22A     -0.531467    23A     -0.497642    24A     -0.496498
      25A     -0.476921    26A     -0.462076    27A     -0.448713
      28A     -0.436819    29A     -0.427394

  @DF-RHF Final Energy:  -310.19822455392978

   => Energetics <=

    Nuclear Repulsion Energy =            323.5121029189197088
    One-Electron Energy =               -1061.7882302920356778
    Two-Electron Energy =                 428.0779028191860789
    DFT Exchange-Correlation Energy =       0.0000000000000000
    Empirical Dispersion Energy =           0.0000000000000000
    PCM Polarization Energy =               0.0000000000000000
    EFP Energy =                            0.0000000000000000
    Total Energy =                       -310.1982245539298901

  Mulliken Charges: (a.u.)
   Center  Symbol    Alpha    Beta     Spin     Total
       1     H     0.28131  0.28131  0.00000  0.43738
       2     O     4.37200  4.37200  0.00000 -0.74400
       3     C     2.98877  2.98877  0.00000  0.02246
       4     C     3.16138  3.16138  0.00000 -0.32276
       5     H     0.43405  0.43405  0.00000  0.13189
       6     H     0.43337  0.43337  0.00000  0.13326
       7     C     3.16172  3.16172  0.00000 -0.32343
       8     H     0.41292  0.41292  0.00000  0.17416
       9     H     0.41546  0.41546  0.00000  0.16909
      10     C     3.15491  3.15491  0.00000 -0.30981
      11     H     0.42387  0.42387  0.00000  0.15226
      12     H     0.42108  0.42108  0.00000  0.15785
      13     C     3.15154  3.15154  0.00000 -0.30309
      14     H     0.42265  0.42265  0.00000  0.15471
      15     H     0.42043  0.42043  0.00000  0.15914
      16     C     3.24380  3.24380  0.00000 -0.48760
      17     H     0.42037  0.42037  0.00000  0.15925
      18     H     0.42363  0.42363  0.00000  0.15273
      19     H     0.42027  0.42027  0.00000  0.15946
      20     H     0.41683  0.41683  0.00000  0.16633
      21     H     0.41964  0.41964  0.00000  0.16073

   Total alpha = 29.00000, Total beta = 29.00000, Total charge =  0.00000
