  ==> Input File <==

--------------------------------------------------------------------------
set {
	reference rhf
	basis 6-31G*
}

set_num_threads( 4 )
memory 2 gb

molecule MOL {
0 1

H	 -2.173625	 -1.048272	 -1.734281
C	 -1.513797	 -0.634322	 -0.997615
C	 -1.957707	 0.358290	 -0.062099
C	 -0.237211	 -1.031767	 -0.921571
H	 -2.977620	 0.698229	 -0.097655
C	 -1.113945	 0.861311	 0.850314
H	 0.172883	 -1.769902	 -1.584433
N	 0.640212	 -0.532897	 -0.000111
H	 -1.410197	 1.604060	 1.565097
C	 0.275135	 0.428622	 0.932883
C	 2.010177	 -1.032049	 0.000042
O	 1.064702	 0.855927	 1.737992
H	 2.187698	 -1.635381	 -0.882279
H	 2.677579	 -0.189247	 -0.001871
H	 2.188882	 -1.632203	 0.884288

	symmetry c1
}
set optking {
	frozen_dihedral = ("
		10 8 11 13
	")
}

ee = optimize('scf')
oeprop('DIPOLE', 'QUADRUPOLE', 'MULLIKEN_CHARGES')
f=open( 'psi4out.xyz', 'w' )
f.write( "15  " )
f.write( str(ee) + "\n" )
f.write( MOL.save_string_xyz() )
f.close()
--------------------------------------------------------------------------

    Molecular point group: c1
  Charge       = 0
  Multiplicity = 1
  Basis Set: 6-31G*
  Basis Set:
  @DF-RHF Final Energy:  -360.59592006676485
    Total Energy =                       -360.5959200667648474
    Molecular point group: c1
  Basis Set: 6-31G*
  Basis Set:
  Basis Set: 6-31G*
  Basis Set:
  @DF-RHF Final Energy:  -360.59661520550958
    Total Energy =                       -360.5966152055096927
  Basis Set: 6-31G*
  Basis Set:
  Basis Set: 6-31G*
  Basis Set:
  @DF-RHF Final Energy:  -360.59670970384138
    Total Energy =                       -360.5967097038414977
  Basis Set: 6-31G*
  Basis Set:
  Basis Set: 6-31G*
  Basis Set:
  @DF-RHF Final Energy:  -360.59670114616176
    Total Energy =                       -360.5967011461619336
  Basis Set: 6-31G*
  Basis Set:
  Charge       = 0
  Multiplicity = 1
  Basis Set: 6-31G*
  Basis Set:

    Orbital Energies (a.u.)
    -----------------------

    Doubly Occupied:

       1A    -20.508889     2A    -15.622502     3A    -11.341492
       4A    -11.298138     5A    -11.266839     6A    -11.260412
       7A    -11.232752     8A    -11.228775     9A     -1.385235
      10A     -1.281093    11A     -1.114902    12A     -1.026348
      13A     -0.970320    14A     -0.872969    15A     -0.835792
      16A     -0.716072    17A     -0.697424    18A     -0.661405
      19A     -0.648754    20A     -0.622931    21A     -0.606506
      22A     -0.573421    23A     -0.548495    24A     -0.547141
      25A     -0.528002    26A     -0.478010    27A     -0.413907
      28A     -0.405880    29A     -0.304401

  @DF-RHF Final Energy:  -360.59671311438916

   => Energetics <=

    Nuclear Repulsion Energy =            358.0087016097540413
    One-Electron Energy =               -1199.2132149570904858
    Two-Electron Energy =                 480.6078002329473975
    DFT Exchange-Correlation Energy =       0.0000000000000000
    Empirical Dispersion Energy =           0.0000000000000000
    PCM Polarization Energy =               0.0000000000000000
    EFP Energy =                            0.0000000000000000
    Total Energy =                       -360.5967131143889901
    Molecular point group: c1
  Basis Set: 6-31G*
  Basis Set:

  -Total Gradient:
     Atom            X                  Y                   Z
    ------   -----------------  -----------------  -----------------
       1       -0.000027428285     0.000004308462    -0.000009838023
       2        0.000129553317    -0.000018624007    -0.000001318732
       3       -0.000029623130     0.000057806345     0.000078590531
       4       -0.000194788906     0.000012880866    -0.000033768897
       5       -0.000005671693    -0.000026667136    -0.000030307733
       6       -0.000129126381     0.000038528534    -0.000021405485
       7        0.000047768521     0.000003399620     0.000023277079
       8       -0.000024257170    -0.000215516553     0.000536955287
       9        0.000022320088    -0.000003086128    -0.000011889849
      10        0.000155996685     0.000137728995    -0.000427554880
      11       -0.000184937727    -0.000459159165     0.000169534776
      12        0.000031688442     0.000018396396     0.000012155836
      13        0.000210887926     0.000443194159    -0.000296318468
      14        0.000000430745    -0.000010396944     0.000003838174
      15       -0.000002812433     0.000017206555     0.000008050380

  **** Optimization is complete! (in 5 steps) ****
    Final optimized geometry and variables:
    Molecular point group: c1

    Geometry (in Angstrom), charge = 0, multiplicity = 1:

    H           -2.161070483452    -0.942938057494    -1.937859146086
    C           -1.492838519769    -0.532688030665    -1.206797352654
    C           -1.924082831664     0.462581901801    -0.269785179083
    C           -0.216550071452    -0.938049699337    -1.144295571545
    H           -2.942507079002     0.807423788780    -0.299936995375
    C           -1.071927850575     0.963303698222     0.637585872054
    H            0.181014317935    -1.677353133041    -1.812067109686
    N            0.667480450127    -0.439777932480    -0.231484735542
    H           -1.359111563004     1.708033623845     1.354153397465
    C            0.310931298106     0.515580380860     0.708414294740
    C            2.045940753418    -0.910929511849    -0.191615290164
    O            1.121194796432     0.915794693682     1.507233496334
    H            2.240198684706    -1.508620236380    -1.070712324434
    H            2.717453470580    -0.066575397944    -0.174193588852
    H            2.219151721122    -1.502467317493     0.697340020687

  Mulliken Charges: (a.u.)
   Center  Symbol    Alpha    Beta     Spin     Total
       1     H     0.39310  0.39310  0.00000  0.21381
       2     C     3.16247  3.16247  0.00000 -0.32494
       3     C     3.05818  3.05818  0.00000 -0.11636
       4     C     2.92161  2.92161  0.00000  0.15678
       5     H     0.39091  0.39091  0.00000  0.21818
       6     C     3.16976  3.16976  0.00000 -0.33953
       7     H     0.38740  0.38740  0.00000  0.22519
       8     N     3.86304  3.86304  0.00000 -0.72609
       9     H     0.38648  0.38648  0.00000  0.22704
      10     C     2.59711  2.59711  0.00000  0.80577
      11     C     3.13957  3.13957  0.00000 -0.27914
      12     O     4.32158  4.32158  0.00000 -0.64317
      13     H     0.41582  0.41582  0.00000  0.16835
      14     H     0.39244  0.39244  0.00000  0.21511
      15     H     0.40051  0.40051  0.00000  0.19898

   Total alpha = 29.00000, Total beta = 29.00000, Total charge =  0.00000
