  ==> Input File <==

--------------------------------------------------------------------------
set {
	reference rhf
	basis 6-31G*
}

set_num_threads( 4 )
memory 2 gb

molecule MOL {
0 1

H	 -0.944757	 -0.000069	 1.678017
O	 -0.042387	 -0.000390	 1.388199
C	 -0.001487	 0.000018	 -0.026623
C	 -1.090207	 0.927374	 -0.570075
C	 1.382519	 0.449732	 -0.498777
C	 -0.268830	 -1.444725	 -0.433644
H	 -1.113081	 0.918085	 -1.655105
H	 -0.917998	 1.953142	 -0.252192
H	 -2.062826	 0.620461	 -0.201516
H	 1.459761	 0.423037	 -1.581094
H	 1.587813	 1.468527	 -0.178088
H	 2.148809	 -0.194403	 -0.081923
H	 -0.259102	 -1.552694	 -1.513455
H	 -1.235629	 -1.765662	 -0.062447
H	 0.487465	 -2.098217	 -0.013693

	symmetry c1
}
set optking {
	frozen_dihedral = ("
		4 3 2 1
	")
}

ee = optimize('scf')
oeprop('DIPOLE', 'QUADRUPOLE', 'MULLIKEN_CHARGES')
f=open( 'psi4out.xyz', 'w' )
f.write( "15  " )
f.write( str(ee) + "\n" )
f.write( MOL.save_string_xyz() )
f.close()
--------------------------------------------------------------------------

    Molecular point group: c1
  Charge       = 0
  Multiplicity = 1
  Basis Set: 6-31G*
  Basis Set:
  @DF-RHF Final Energy:  -232.15080704263409
    Total Energy =                       -232.1508070426340851
    Molecular point group: c1
  Basis Set: 6-31G*
  Basis Set:
  Basis Set: 6-31G*
  Basis Set:
  @DF-RHF Final Energy:  -232.15232233588716
    Total Energy =                       -232.1523223358874475
  Basis Set: 6-31G*
  Basis Set:
  Basis Set: 6-31G*
  Basis Set:
  @DF-RHF Final Energy:  -232.15269752124516
    Total Energy =                       -232.1526975212451021
  Basis Set: 6-31G*
  Basis Set:
  Basis Set: 6-31G*
  Basis Set:
  @DF-RHF Final Energy:  -232.15267905757042
    Total Energy =                       -232.1526790575703103
  Basis Set: 6-31G*
  Basis Set:
  Basis Set: 6-31G*
  Basis Set:
  @DF-RHF Final Energy:  -232.15271038284493
    Total Energy =                       -232.1527103828450436
  Basis Set: 6-31G*
  Basis Set:
  Basis Set: 6-31G*
  Basis Set:
  @DF-RHF Final Energy:  -232.15270926205608
    Total Energy =                       -232.1527092620561348
  Basis Set: 6-31G*
  Basis Set:
  Charge       = 0
  Multiplicity = 1
  Basis Set: 6-31G*
  Basis Set:

    Orbital Energies (a.u.)
    -----------------------

    Doubly Occupied:

       1A    -20.548473     2A    -11.281909     3A    -11.215009
       4A    -11.207381     5A    -11.205132     6A     -1.359961
       7A     -1.063421     8A     -0.943384     9A     -0.937509
      10A     -0.775634    11A     -0.669942    12A     -0.622668
      13A     -0.620913    14A     -0.574995    15A     -0.556475
      16A     -0.532068    17A     -0.516820    18A     -0.509001
      19A     -0.502425    20A     -0.457596    21A     -0.424168

  @DF-RHF Final Energy:  -232.15271124514763

   => Energetics <=

    Nuclear Repulsion Energy =            200.3280726129305265
    One-Electron Energy =                -711.9117983336773250
    Two-Electron Energy =                 279.4310144755991132
    DFT Exchange-Correlation Energy =       0.0000000000000000
    Empirical Dispersion Energy =           0.0000000000000000
    PCM Polarization Energy =               0.0000000000000000
    EFP Energy =                            0.0000000000000000
    Total Energy =                       -232.1527112451476569
    Molecular point group: c1
  Basis Set: 6-31G*
  Basis Set:

  -Total Gradient:
     Atom            X                  Y                   Z
    ------   -----------------  -----------------  -----------------
       1        0.000055940199     0.001917335084    -0.000059920465
       2       -0.000369531321    -0.002677766253     0.000190925314
       3        0.001109012605     0.001681387300    -0.000052713347
       4       -0.000809163368    -0.000921174048     0.000012490921
       5        0.000017477284    -0.000031992458    -0.000025568893
       6        0.000001119450     0.000025401661    -0.000043966183
       7       -0.000009782028     0.000010778049    -0.000004437420
       8        0.000010544471    -0.000017856814     0.000000799118
       9       -0.000017477657     0.000006205916    -0.000004711453
      10        0.000005151575     0.000005701599    -0.000001661503
      11       -0.000008934860    -0.000011238563    -0.000000947081
      12        0.000015205165     0.000001884890    -0.000003504553
      13       -0.000003483142    -0.000018976260    -0.000012402372
      14        0.000002818324     0.000010757561     0.000003736466
      15        0.000001103304     0.000019552337     0.000001881451

  **** Optimization is complete! (in 7 steps) ****
    Final optimized geometry and variables:
    Molecular point group: c1

    Geometry (in Angstrom), charge = 0, multiplicity = 1:

    H           -0.862557148636     0.096292540092     1.722214081754
    O            0.023269222668     0.059302443003     1.388943648657
    C            0.000070043262    -0.001857458251    -0.026240022149
    C           -1.086623216677     0.927964454022    -0.568538980312
    C            1.383457393237     0.453424877495    -0.477198645819
    C           -0.264101475946    -1.445893439332    -0.458337636995
    H           -1.100162552570     0.927202354743    -1.653353655050
    H           -0.919979846594     1.944962167482    -0.228867907050
    H           -2.070691366119     0.612844822096    -0.227972750565
    H            1.476280626188     0.407335014747    -1.557597739684
    H            1.567467153060     1.472425668674    -0.155733816740
    H            2.145802935045    -0.180809613085    -0.038692352562
    H           -0.256226661702    -1.545921924950    -1.539532616304
    H           -1.232535906321    -1.782238822977    -0.097780001205
    H            0.492726666157    -2.103109213674    -0.045024944544

  Mulliken Charges: (a.u.)
   Center  Symbol    Alpha    Beta     Spin     Total
       1     H     0.28276  0.28276  0.00000  0.43447
       2     O     4.37793  4.37793  0.00000 -0.75587
       3     C     2.85100  2.85100  0.00000  0.29799
       4     C     3.25006  3.25006  0.00000 -0.50011
       5     C     3.23324  3.23324  0.00000 -0.46648
       6     C     3.23516  3.23516  0.00000 -0.47031
       7     H     0.41759  0.41759  0.00000  0.16482
       8     H     0.41265  0.41265  0.00000  0.17469
       9     H     0.42540  0.42540  0.00000  0.14921
      10     H     0.42437  0.42437  0.00000  0.15126
      11     H     0.41490  0.41490  0.00000  0.17020
      12     H     0.41268  0.41268  0.00000  0.17464
      13     H     0.42392  0.42392  0.00000  0.15215
      14     H     0.42555  0.42555  0.00000  0.14889
      15     H     0.41278  0.41278  0.00000  0.17444

   Total alpha = 21.00000, Total beta = 21.00000, Total charge =  0.00000
