  ==> Input File <==

--------------------------------------------------------------------------
set {
	reference rhf
	basis 6-31G*
}

set_num_threads( 4 )
memory 2 gb

molecule MOL {
0 1

H	 3.877244	 0.391579	 -0.376766
N	 3.080823	 -0.215241	 -0.344700
C	 1.860385	 0.546470	 -0.121423
H	 3.236585	 -0.857576	 0.408941
C	 0.640605	 -0.367589	 -0.170280
H	 1.785092	 1.287343	 -0.911548
H	 1.864120	 1.095752	 0.823391
C	 -0.679275	 0.379305	 0.025956
H	 0.639628	 -0.887509	 -1.123966
H	 0.738941	 -1.133570	 0.598445
C	 -1.903357	 -0.536963	 -0.023547
H	 -0.776767	 1.146962	 -0.740234
H	 -0.663379	 0.902814	 0.980698
C	 -3.225172	 0.228290	 0.028445
H	 -1.867824	 -1.134999	 -0.931459
H	 -1.860449	 -1.239604	 0.805977
H	 -3.313397	 0.915643	 -0.808262
H	 -4.073500	 -0.448134	 -0.008893
H	 -3.306061	 0.809945	 0.942516

	symmetry c1
}
set optking {
	frozen_dihedral = ("
		12 8 11 15
	")
}

ee = optimize('scf')
oeprop('DIPOLE', 'QUADRUPOLE', 'MULLIKEN_CHARGES')
f=open( 'psi4out.xyz', 'w' )
f.write( "19  " )
f.write( str(ee) + "\n" )
f.write( MOL.save_string_xyz() )
f.close()
--------------------------------------------------------------------------

    Molecular point group: c1
  Charge       = 0
  Multiplicity = 1
  Basis Set: 6-31G*
  Basis Set:
  @DF-RHF Final Energy:  -251.35160830591010
    Total Energy =                       -251.3516083059103039
    Molecular point group: c1
  Basis Set: 6-31G*
  Basis Set:
  Basis Set: 6-31G*
  Basis Set:
  @DF-RHF Final Energy:  -251.35161752898620
    Total Energy =                       -251.3516175289862531
  Basis Set: 6-31G*
  Basis Set:
  Basis Set: 6-31G*
  Basis Set:
  @DF-RHF Final Energy:  -251.35163000829110
    Total Energy =                       -251.3516300082909538
  Basis Set: 6-31G*
  Basis Set:
  Charge       = 0
  Multiplicity = 1
  Basis Set: 6-31G*
  Basis Set:

    Orbital Energies (a.u.)
    -----------------------

    Doubly Occupied:

       1A    -15.532513     2A    -11.239779     3A    -11.213932
       4A    -11.212708     5A    -11.209558     6A    -11.207583
       7A     -1.176623     8A     -1.072917     9A     -0.998469
      10A     -0.900260    11A     -0.813072    12A     -0.789436
      13A     -0.664947    14A     -0.641177    15A     -0.616862
      16A     -0.588777    17A     -0.565335    18A     -0.547108
      19A     -0.531067    20A     -0.498413    21A     -0.480911
      22A     -0.465337    23A     -0.460406    24A     -0.449892
      25A     -0.380999

  @DF-RHF Final Energy:  -251.35163064496604

   => Energetics <=

    Nuclear Repulsion Energy =            245.6376006253775302
    One-Electron Energy =                -825.4623023784844236
    Two-Electron Energy =                 328.4730711081408572
    DFT Exchange-Correlation Energy =       0.0000000000000000
    Empirical Dispersion Energy =           0.0000000000000000
    PCM Polarization Energy =               0.0000000000000000
    EFP Energy =                            0.0000000000000000
    Total Energy =                       -251.3516306449660078
    Molecular point group: c1
  Basis Set: 6-31G*
  Basis Set:

  -Total Gradient:
     Atom            X                  Y                   Z
    ------   -----------------  -----------------  -----------------
       1       -0.000001897965    -0.000000033678     0.000007340311
       2        0.000004299382    -0.000005530762     0.000017731260
       3       -0.000013705056     0.000008341418    -0.000021243077
       4        0.000007631273    -0.000004221650     0.000000732319
       5       -0.000011784368    -0.000003838637    -0.000046210844
       6       -0.000000663287    -0.000004014014    -0.000002080077
       7       -0.000004451041     0.000001990891    -0.000001970433
       8        0.000800076195    -0.001039828428    -0.000755887200
       9        0.000017135128     0.000012105303    -0.000012233941
      10       -0.000027389540     0.000008748787    -0.000001109206
      11       -0.000855298778     0.001158673479    -0.000463124498
      12       -0.000503268434     0.000661164107     0.000740694860
      13       -0.000020008823     0.000029647381     0.000007823905
      14        0.000008560819     0.000008885593    -0.000032245321
      15        0.000564789556    -0.000794818785     0.000560133753
      16        0.000014272860    -0.000024594632     0.000003757435
      17       -0.000005429998     0.000010168616     0.000001030117
      18        0.000009485644    -0.000006565973    -0.000002712829
      19        0.000017646439    -0.000016279017    -0.000000426532

  **** Optimization is complete! (in 4 steps) ****
    Final optimized geometry and variables:
    Molecular point group: c1

    Geometry (in Angstrom), charge = 0, multiplicity = 1:

    H            3.883389127383     0.379903635049    -0.258454245345
    N            3.085968212370    -0.226043124192    -0.236385864885
    C            1.864448087003     0.536322740888    -0.021209667655
    H            3.233953082722    -0.871775902915     0.515947137013
    C            0.644045042861    -0.375937771660    -0.085072329952
    H            1.797181841516     1.280728427301    -0.808787241495
    H            1.860188623941     1.081439624246     0.925940729456
    C           -0.676272107889     0.371291897865     0.103101932957
    H            0.650779516299    -0.891341562580    -1.041068329995
    H            0.734469178497    -1.145595291950     0.681036106825
    C           -1.900924485592    -0.545245436056     0.065418245434
    H           -0.776320712666     1.136698031364    -0.665031629533
    H           -0.661897206629     0.903015429901     1.053586852429
    C           -3.223018195643     0.217015965483     0.136174631911
    H           -1.873411304747    -1.148296126083    -0.839475908997
    H           -1.845231799981    -1.247917559534     0.894436018256
    H           -3.329173546989     0.896888374261    -0.704444161833
    H           -4.070186449775    -0.461744630056     0.121550527802
    H           -3.287297737972     0.806306597766     1.046724781205

  Mulliken Charges: (a.u.)
   Center  Symbol    Alpha    Beta     Spin     Total
       1     H     0.33247  0.33247  0.00000  0.33505
       2     N     3.92192  3.92192  0.00000 -0.84383
       3     C     3.06025  3.06025  0.00000 -0.12050
       4     H     0.33536  0.33536  0.00000  0.32927
       5     C     3.15155  3.15155  0.00000 -0.30309
       6     H     0.42081  0.42081  0.00000  0.15838
       7     H     0.43473  0.43473  0.00000  0.13054
       8     C     3.15502  3.15502  0.00000 -0.31004
       9     H     0.41299  0.41299  0.00000  0.17402
      10     H     0.42768  0.42768  0.00000  0.14463
      11     C     3.15094  3.15094  0.00000 -0.30188
      12     H     0.42363  0.42363  0.00000  0.15274
      13     H     0.42485  0.42485  0.00000  0.15031
      14     C     3.23932  3.23932  0.00000 -0.47865
      15     H     0.42191  0.42191  0.00000  0.15619
      16     H     0.42337  0.42337  0.00000  0.15326
      17     H     0.42163  0.42163  0.00000  0.15674
      18     H     0.41934  0.41934  0.00000  0.16132
      19     H     0.42224  0.42224  0.00000  0.15552

   Total alpha = 25.00000, Total beta = 25.00000, Total charge =  0.00000
