                              Psi4 1.0.54 Driver

  ==> Input File <==

--------------------------------------------------------------------------
set {
	reference rhf
	basis cc-pvtz
}

set_num_threads( 4 )
memory 2 gb

molecule MOL {
0 1

H	 0.306364	 -5.777100	 -1.737757
C	 0.558473	 -4.846712	 -1.242856
C	 -0.617455	 -3.876518	 -1.266699
H	 0.850166	 -5.083447	 -0.225060
H	 1.424796	 -4.429958	 -1.745666
C	 -0.306222	 -2.554010	 -0.581809
H	 -1.479260	 -4.323186	 -0.783433
H	 -0.905629	 -3.685693	 -2.297775
N	 -1.448008	 -1.665355	 -0.600568
H	 -0.042261	 -2.740759	 0.454829
H	 0.575199	 -2.103350	 -1.047735
C	 -1.215959	 -0.382435	 0.027143
H	 -1.754062	 -1.529726	 -1.541448
C	 -2.451944	 0.502410	 -0.038737
H	 -0.956433	 -0.558607	 1.066752
H	 -0.367455	 0.146795	 -0.416740
C	 -3.752217	 -0.292550	 0.005776
H	 -2.407325	 1.093801	 -0.946480
H	 -2.431979	 1.206234	 0.790023
H	 -3.817783	 -0.982946	 -0.828547
H	 -4.612613	 0.364348	 -0.042306
H	 -3.830160	 -0.871666	 0.919868

	symmetry c1
}
set optking {
	frozen_dihedral = ("
		15 12 14 18
	")
}

ee,wfn = optimize('scf', return_wfn=True)
oeprop( wfn, 'DIPOLE', 'QUADRUPOLE', 'MULLIKEN_CHARGES')
f=open( 'psi4out.xyz', 'w' )
f.write( "22  " )
f.write( str(ee) + "\n" )
f.write( MOL.save_string_xyz() )
f.close()
--------------------------------------------------------------------------

    Molecular point group: c1
  Charge       = 0
  Multiplicity = 1
  Basis Set: CC-PVTZ
  Basis Set:
  @DF-RHF Final Energy:  -290.48382860578090
    Total Energy =                       -290.4838286057809569
    Molecular point group: c1
  Basis Set: CC-PVTZ
  Basis Set:
  Basis Set: CC-PVTZ
  Basis Set:
  @DF-RHF Final Energy:  -290.48418329775484
    Total Energy =                       -290.4841832977547256
  Basis Set: CC-PVTZ
  Basis Set:
  Basis Set: CC-PVTZ
  Basis Set:
  @DF-RHF Final Energy:  -290.48590604985469
    Total Energy =                       -290.4859060498547478
  Basis Set: CC-PVTZ
  Basis Set:
  Basis Set: CC-PVTZ
  Basis Set:
  @DF-RHF Final Energy:  -290.48597444402498
    Total Energy =                       -290.4859744440249187
  Basis Set: CC-PVTZ
  Basis Set:
  Charge       = 0
  Multiplicity = 1
  Basis Set: CC-PVTZ
  Basis Set:

    Orbital Energies (a.u.)
    -----------------------

    Doubly Occupied:

       1A    -15.529120     2A    -11.236880     3A    -11.236817
       4A    -11.212311     5A    -11.212272     6A    -11.207905
       7A    -11.200282     8A     -1.208300     9A     -1.058409
      10A     -1.022809    11A     -0.927456    12A     -0.879697
      13A     -0.806416    14A     -0.788848    15A     -0.663460
      16A     -0.632086    17A     -0.616962    18A     -0.608680
      19A     -0.574314    20A     -0.566354    21A     -0.533673
      22A     -0.529855    23A     -0.504195    24A     -0.488870
      25A     -0.483435    26A     -0.470394    27A     -0.461690
      28A     -0.451042    29A     -0.360764

  @DF-RHF Final Energy:  -290.48597940150051

   => Energetics <=

    Nuclear Repulsion Energy =            318.2866821715130641
    One-Electron Energy =               -1022.5987285504215833
    Two-Electron Energy =                 413.8260669774083453
    DFT Exchange-Correlation Energy =       0.0000000000000000
    Empirical Dispersion Energy =           0.0000000000000000
    PCM Polarization Energy =               0.0000000000000000
    EFP Energy =                            0.0000000000000000
    Total Energy =                       -290.4859794015001171
    Molecular point group: c1
  Basis Set: CC-PVTZ
  Basis Set:

  -Total Gradient:
     Atom            X                  Y                   Z
    ------   -----------------  -----------------  -----------------
       1       -0.000014578659     0.000007532665    -0.000004417556
       2        0.000005736769     0.000033568065     0.000019163738
       3       -0.000013824608     0.000015314731    -0.000026886389
       4        0.000006365958    -0.000007209372     0.000011437592
       5        0.000007309345     0.000000924366    -0.000002686516
       6        0.000044303521    -0.000045746182     0.000011977755
       7       -0.000008999937     0.000000968022     0.000009746515
       8       -0.000008432625    -0.000000880482    -0.000012148116
       9       -0.000050639741    -0.000004829413    -0.000000615782
      10       -0.000010969130     0.000006490907     0.000010175089
      11       -0.000003648134    -0.000001618010    -0.000012220025
      12       -0.004043272371    -0.004923244400     0.000875356997
      13       -0.000003185655    -0.000009770825    -0.000026529971
      14       -0.003086579030    -0.004376668178    -0.003820776143
      15        0.003871728729     0.004836170943    -0.000064811763
      16       -0.000003828953     0.000006963223    -0.000022689609
      17        0.000126609662     0.000056970607     0.000094354715
      18        0.003232819277     0.004398371042     0.002966638703
      19       -0.000046163863     0.000050165715     0.000041877010
      20        0.000042584204    -0.000036411639    -0.000064078186
      21       -0.000020484765     0.000022516972     0.000000269978
      22       -0.000022849994    -0.000029578757     0.000016861963

  **** Optimization is complete! (in 5 steps) ****
    Final optimized geometry and variables:
    Molecular point group: c1

    Geometry (in Angstrom), charge = 0, multiplicity = 1:

    H            1.672401681805    -3.917592919445    -1.219561416190
    C            1.900506713771    -2.996655172797    -0.696149584244
    C            0.729651950655    -2.022539587934    -0.764855518787
    H            2.137911136100    -3.251662650065     0.331310581575
    H            2.792873456283    -2.574085953392    -1.145740627870
    C            1.007696277612    -0.713754197427    -0.040633408166
    H           -0.157386974924    -2.475174124932    -0.335853870034
    H            0.497080281238    -1.812411699512    -1.806195373967
    N           -0.129045285623     0.179295137259    -0.103531536270
    H            1.215201482201    -0.919390834431     1.005163268305
    H            1.913661763352    -0.257685727836    -0.450831366605
    C            0.081405828250     1.447580280563     0.557132561410
    H           -0.381414711711     0.333702303988    -1.057831424460
    C           -1.116963960410     2.397477643872     0.467830981567
    H            0.326958216739     1.272194888792     1.599905436189
    H            0.953496201362     1.971719056778     0.154319033114
    C           -2.486147026233     1.744064549175     0.610454877770
    H           -1.053492503484     2.983178487964    -0.445489857720
    H           -0.996545249453     3.130652986066     1.260953632128
    H           -2.695371798576     1.061027517475    -0.201796481113
    H           -3.264368719481     2.499082871734     0.624537725212
    H           -2.550979438051     1.177773670010     1.532719705854

  Mulliken Charges: (a.u.)
   Center  Symbol    Alpha    Beta     Spin     Total
       1     H     0.44763  0.44763  0.00000  0.10474
       2     C     3.15385  3.15385  0.00000 -0.30769
       3     C     3.08069  3.08069  0.00000 -0.16137
       4     H     0.45470  0.45470  0.00000  0.09060
       5     H     0.45609  0.45609  0.00000  0.08781
       6     C     3.02030  3.02030  0.00000 -0.04061
       7     H     0.44887  0.44887  0.00000  0.10226
       8     H     0.45979  0.45979  0.00000  0.08041
       9     N     3.63916  3.63916  0.00000 -0.27831
      10     H     0.45936  0.45936  0.00000  0.08127
      11     H     0.47495  0.47495  0.00000  0.05011
      12     C     3.03680  3.03680  0.00000 -0.07360
      13     H     0.44330  0.44330  0.00000  0.11341
      14     C     3.09668  3.09668  0.00000 -0.19337
      15     H     0.45672  0.45672  0.00000  0.08656
      16     H     0.46712  0.46712  0.00000  0.06576
      17     C     3.13833  3.13833  0.00000 -0.27666
      18     H     0.45230  0.45230  0.00000  0.09540
      19     H     0.45269  0.45269  0.00000  0.09462
      20     H     0.45435  0.45435  0.00000  0.09129
      21     H     0.45190  0.45190  0.00000  0.09620
      22     H     0.45442  0.45442  0.00000  0.09117

   Total alpha = 29.00000, Total beta = 29.00000, Total charge =  0.00000

*** Psi4 exiting successfully. Buy a developer a beer!
