  ==> Input File <==

--------------------------------------------------------------------------
set {
	reference rhf
	basis cc-pvtz
}

set_num_threads( 4 )
memory 2 gb

molecule MOL {
0 1

H	 -0.183000	 2.810000	 0.004000
C	 -0.102000	 1.736000	 0.002000
N	 -1.240000	 1.071000	 0.007000
C	 1.146000	 1.137000	 -0.007000
C	 -1.186000	 -0.255000	 0.001000
H	 2.035000	 1.741000	 -0.013000
C	 1.218000	 -0.248000	 -0.011000
C	 0.017000	 -0.946000	 -0.008000
C	 -2.511000	 -0.973000	 0.002000
C	 2.541000	 -0.971000	 0.007000
H	 0.015000	 -2.021000	 -0.016000
H	 -3.081000	 -0.704000	 -0.881000
H	 -2.385000	 -2.049000	 0.017000
H	 -3.094000	 -0.678000	 0.867000
H	 2.496000	 -1.886000	 -0.573000
H	 3.334000	 -0.352000	 -0.394000
H	 2.812000	 -1.239000	 1.025000

	symmetry c1
}
ee = optimize('scf')
oeprop('DIPOLE', 'QUADRUPOLE', 'MULLIKEN_CHARGES')
f=open( 'psi4out.xyz', 'w' )
f.write( "17  " )
f.write( str(ee) + "\n" )
f.write( MOL.save_string_xyz() )
f.close()
--------------------------------------------------------------------------

    Molecular point group: c1
  Charge       = 0
  Multiplicity = 1
  Basis Set: CC-PVTZ
  Basis Set:
  @DF-RHF Final Energy:  -324.88341613223832
    Total Energy =                       -324.8834161322383807
    Molecular point group: c1
  Basis Set: CC-PVTZ
  Basis Set:
  Basis Set: CC-PVTZ
  Basis Set:
  @DF-RHF Final Energy:  -324.88354612603547
    Total Energy =                       -324.8835461260351281
  Basis Set: CC-PVTZ
  Basis Set:
  Basis Set: CC-PVTZ
  Basis Set:
  @DF-RHF Final Energy:  -324.88355122128326
    Total Energy =                       -324.8835512212829713
  Basis Set: CC-PVTZ
  Basis Set:
  Charge       = 0
  Multiplicity = 1
  Basis Set: CC-PVTZ
  Basis Set:

    Orbital Energies (a.u.)
    -----------------------

    Doubly Occupied:

       1A    -15.542889     2A    -11.269400     3A    -11.261078
       4A    -11.255844     5A    -11.229360     6A    -11.220893
       7A    -11.220507     8A    -11.214132     9A     -1.262140
      10A     -1.106944    11A     -1.054464    12A     -0.970139
      13A     -0.947481    14A     -0.847107    15A     -0.797502
      16A     -0.684795    17A     -0.677622    18A     -0.632787
      19A     -0.595439    20A     -0.576820    21A     -0.574764
      22A     -0.563370    23A     -0.549271    24A     -0.530265
      25A     -0.510673    26A     -0.498172    27A     -0.404322
      28A     -0.366301    29A     -0.334341

  @DF-RHF Final Energy:  -324.88355138276438

   => Energetics <=

    Nuclear Repulsion Energy =            347.7301555314235202
    One-Electron Energy =               -1127.8297661837646046
    Two-Electron Energy =                 455.2160592695767036
    DFT Exchange-Correlation Energy =       0.0000000000000000
    Empirical Dispersion Energy =           0.0000000000000000
    PCM Polarization Energy =               0.0000000000000000
    EFP Energy =                            0.0000000000000000
    Total Energy =                       -324.8835513827643808
    Molecular point group: c1
  Basis Set: CC-PVTZ
  Basis Set:

  -Total Gradient:
     Atom            X                  Y                   Z
    ------   -----------------  -----------------  -----------------
       1        0.000000338215     0.000000365409    -0.000011744750
       2       -0.000041589361     0.000019352997     0.000044513399
       3        0.000057664903    -0.000022831901    -0.000089802077
       4       -0.000002482087    -0.000004299712    -0.000039904629
       5       -0.000033684391     0.000017736157     0.000256097926
       6       -0.000006757095    -0.000002260775    -0.000007994400
       7        0.000013421654    -0.000003416367     0.000060738465
       8        0.000010661256     0.000007334774    -0.000088834026
       9       -0.000016890613    -0.000018437900    -0.000064995510
      10        0.000020212754    -0.000016715739    -0.000013293623
      11        0.000000713679     0.000003888988    -0.000015015094
      12       -0.000018120915    -0.000018376569    -0.000001338515
      13       -0.000003023358     0.000021293476    -0.000005321769
      14        0.000022143620     0.000012949810    -0.000021986775
      15        0.000008852737     0.000010442787     0.000009677998
      16       -0.000005380618    -0.000009029550     0.000006577888
      17       -0.000006080377     0.000002004109    -0.000017374508

  **** Optimization is complete! (in 4 steps) ****
    Final optimized geometry and variables:
    Molecular point group: c1

    Geometry (in Angstrom), charge = 0, multiplicity = 1:

    H           -0.161686151454     2.764048722634     0.003360125251
    C           -0.083312542083     1.691606195126     0.002142525309
    N           -1.217574324831     1.028151177718     0.007076714435
    C            1.161317225296     1.093630574466    -0.007432876769
    C           -1.166118139827    -0.293753227801     0.002192750623
    H            2.048331555572     1.696988684030    -0.014689091361
    C            1.232136210126    -0.287099287406    -0.010122342870
    C            0.034038803429    -0.982890067551    -0.007680560925
    C           -2.486662598674    -1.013611308310     0.001605082651
    C            2.552431435860    -1.009966947825     0.007857744086
    H            0.032072732405    -2.056081092669    -0.015569979602
    H           -3.056919833934    -0.739202824479    -0.877257799292
    H           -2.358444640802    -2.087517993258     0.012126864294
    H           -3.066415337791    -0.722308835666     0.868469226109
    H            2.505238972166    -1.924097323588    -0.569481682585
    H            3.343789210791    -0.391449267582    -0.393612168625
    H            2.821362225544    -1.275595058347     1.024514627954

  Mulliken Charges: (a.u.)
   Center  Symbol    Alpha    Beta     Spin     Total
       1     H     0.42139  0.42139  0.00000  0.15723
       2     C     3.05147  3.05147  0.00000 -0.10294
       3     N     3.60706  3.60706  0.00000 -0.21412
       4     C     3.08863  3.08863  0.00000 -0.17727
       5     C     2.93799  2.93799  0.00000  0.12403
       6     H     0.41632  0.41632  0.00000  0.16735
       7     C     2.96879  2.96879  0.00000  0.06242
       8     C     3.12022  3.12022  0.00000 -0.24044
       9     C     3.13512  3.13512  0.00000 -0.27023
      10     C     3.14676  3.14676  0.00000 -0.29353
      11     H     0.41917  0.41917  0.00000  0.16167
      12     H     0.44585  0.44585  0.00000  0.10830
      13     H     0.45519  0.45519  0.00000  0.08963
      14     H     0.44557  0.44557  0.00000  0.10885
      15     H     0.44758  0.44758  0.00000  0.10485
      16     H     0.44817  0.44817  0.00000  0.10365
      17     H     0.44473  0.44473  0.00000  0.11054

   Total alpha = 29.00000, Total beta = 29.00000, Total charge = -0.00000
