  ==> Input File <==

--------------------------------------------------------------------------
set {
	reference rhf
	basis 6-31G*
}

set_num_threads( 4 )
memory 2 gb

molecule MOL {
0 1

H	 -0.249749	 0.149429	 -2.492675
O	 -0.735560	 0.950965	 -2.353462
C	 -0.402352	 1.474210	 -1.100805
C	 -0.793441	 0.596080	 0.058728
H	 -0.914304	 2.426772	 -1.025079
H	 0.664187	 1.688926	 -1.042349
C	 -1.530462	 -0.493172	 -0.025500
H	 -0.424048	 0.919759	 1.019594
H	 -1.092586	 -1.461565	 -0.186463
H	 -2.602122	 -0.450675	 0.050101

	symmetry c1
}
set optking {
	frozen_dihedral = ("
		3 4 7 9
	")
}

ee = optimize('scf')
oeprop('DIPOLE', 'QUADRUPOLE', 'MULLIKEN_CHARGES')
f=open( 'psi4out.xyz', 'w' )
f.write( "10  " )
f.write( str(ee) + "\n" )
f.write( MOL.save_string_xyz() )
f.close()
--------------------------------------------------------------------------

    Molecular point group: c1
  Charge       = 0
  Multiplicity = 1
  Basis Set: 6-31G*
  Basis Set:
  @DF-RHF Final Energy:  -191.71543269750487
    Total Energy =                       -191.7154326975048946
    Molecular point group: c1
  Basis Set: 6-31G*
  Basis Set:
  Basis Set: 6-31G*
  Basis Set:
  @DF-RHF Final Energy:  -191.72803576363805
    Total Energy =                       -191.7280357636380472
  Basis Set: 6-31G*
  Basis Set:
  Basis Set: 6-31G*
  Basis Set:
  @DF-RHF Final Energy:  -191.73244554111776
    Total Energy =                       -191.7324455411178405
  Basis Set: 6-31G*
  Basis Set:
  Basis Set: 6-31G*
  Basis Set:
  @DF-RHF Final Energy:  -191.73808031633286
    Total Energy =                       -191.7380803163327414
  Basis Set: 6-31G*
  Basis Set:
  @DF-RHF Final Energy:  -191.75051898810634
    Total Energy =                       -191.7505189881063643
  @DF-RHF Final Energy:  -191.74195294128654
    Total Energy =                       -191.7419529412866268
  @DF-RHF Final Energy:  -191.73120964319975
    Total Energy =                       -191.7312096431996906
  @DF-RHF Final Energy:  -191.77920490181702
    Total Energy =                       -191.7792049018171383
  @DF-RHF Final Energy:  -191.70593133005798
    Total Energy =                       -191.7059313300580641
  @DF-RHF Final Energy:  -191.76974984174376
    Total Energy =                       -191.7697498417438169
  @DF-RHF Final Energy:  -191.80884650810381
    Total Energy =                       -191.8088465081037839
  @DF-RHF Final Energy:  -191.79984666655338
    Total Energy =                       -191.7998466665533215
  @DF-RHF Final Energy:  -191.78092478026372
    Total Energy =                       -191.7809247802637174
  @DF-RHF Final Energy:  -191.83245411857803
    Total Energy =                       -191.8324541185780276
  @DF-RHF Final Energy:  -191.83706712209039
    Total Energy =                       -191.8370671220903318
  @DF-RHF Final Energy:  -191.84135718231119
    Total Energy =                       -191.8413571823111567
  @DF-RHF Final Energy:  -191.84607736804259
    Total Energy =                       -191.8460773680426428
  @DF-RHF Final Energy:  -191.84992325540375
    Total Energy =                       -191.8499232554038372
  @DF-RHF Final Energy:  -191.85197316137010
    Total Energy =                       -191.8519731613699264
  @DF-RHF Final Energy:  -191.85361012374062
    Total Energy =                       -191.8536101237406797
  @DF-RHF Final Energy:  -191.85007571590634
    Total Energy =                       -191.8500757159062573
  @DF-RHF Final Energy:  -191.85389730541374
    Total Energy =                       -191.8538973054137955
  @DF-RHF Final Energy:  -191.85535754886405
    Total Energy =                       -191.8553575488640490
  @DF-RHF Final Energy:  -191.85539536255499
    Total Energy =                       -191.8553953625549013
  @DF-RHF Final Energy:  -191.83014371722970
    Total Energy =                       -191.8301437172296460
  @DF-RHF Final Energy:  -191.85128257661913
    Total Energy =                       -191.8512825766189849
  @DF-RHF Final Energy:  -191.85531523808930
    Total Energy =                       -191.8553152380893607
  @DF-RHF Final Energy:  -191.85536094758930
    Total Energy =                       -191.8553609475893325
  @DF-RHF Final Energy:  -191.85330958313472
    Total Energy =                       -191.8533095831347737
  @DF-RHF Final Energy:  -191.85539361415815
    Total Energy =                       -191.8553936141581744
  @DF-RHF Final Energy:  -191.85542641650937
    Total Energy =                       -191.8554264165093741
  @DF-RHF Final Energy:  -191.85543821110082
    Total Energy =                       -191.8554382111008181
  @DF-RHF Final Energy:  -191.85544248935631
    Total Energy =                       -191.8554424893562782
  @DF-RHF Final Energy:  -191.82244155924860
    Total Energy =                       -191.8224415592486878
  @DF-RHF Final Energy:  -191.83015479325343
    Total Energy =                       -191.8301547932534845
  @DF-RHF Final Energy:  -191.85097564541516
    Total Energy =                       -191.8509756454150761
  Basis Set: 6-31G*
  Basis Set:
  @DF-RHF Final Energy:  -191.85430850983252
    Total Energy =                       -191.8543085098325207
  Basis Set: 6-31G*
  Basis Set:
  Basis Set: 6-31G*
  Basis Set:
  @DF-RHF Final Energy:  -191.85536499596336
    Total Energy =                       -191.8553649959633276
  Basis Set: 6-31G*
  Basis Set:
  Basis Set: 6-31G*
  Basis Set:
  @DF-RHF Final Energy:  -191.85541690879936
    Total Energy =                       -191.8554169087992989
  Basis Set: 6-31G*
  Basis Set:
  Charge       = 0
  Multiplicity = 1
  Basis Set: 6-31G*
  Basis Set:

    Orbital Energies (a.u.)
    -----------------------

    Doubly Occupied:

       1A    -20.558927     2A    -11.286722     3A    -11.253215
       4A    -11.228215     5A     -1.369255     6A     -1.063622
       7A     -0.937462     8A     -0.776603     9A     -0.683016
      10A     -0.650110    11A     -0.626530    12A     -0.567800
      13A     -0.534005    14A     -0.497599    15A     -0.441326
      16A     -0.351394

  @DF-RHF Final Energy:  -191.85543075433657

   => Energetics <=

    Nuclear Repulsion Energy =            117.6975036656847493
    One-Electron Energy =                -493.4542657105677108
    Two-Electron Energy =                 183.9013312905464943
    DFT Exchange-Correlation Energy =       0.0000000000000000
    Empirical Dispersion Energy =           0.0000000000000000
    PCM Polarization Energy =               0.0000000000000000
    EFP Energy =                            0.0000000000000000
    Total Energy =                       -191.8554307543364814
    Molecular point group: c1
  Basis Set: 6-31G*
  Basis Set:

  -Total Gradient:
     Atom            X                  Y                   Z
    ------   -----------------  -----------------  -----------------
       1        0.000137762424    -0.000319401691    -0.000100213377
       2       -0.000125735939     0.000371281284    -0.000125098587
       3       -0.025116950258     0.020488699358     0.006888676139
       4        0.044210007912    -0.038823160596     0.011648538887
       5       -0.000029925314    -0.000106733963    -0.000051426329
       6       -0.000047512235    -0.000050249210     0.000043044140
       7       -0.024599545223     0.025962349887    -0.062913157586
       8        0.001246628742     0.000087948740     0.000209773622
       9        0.004895264718    -0.008286001114     0.044835624466
      10       -0.000569994826     0.000675267303    -0.000435761374

    Molecular point group: c1

    Geometry (in Angstrom), charge = 0, multiplicity = 1:

    H           -0.213311009580    -0.148391940133    -1.630154069560
    O            0.588564308217     0.316518348928    -1.399066974539
    C            0.422906205898     0.854893482482    -0.141458061695
    C           -0.088259048071    -0.120196021402     0.905831790760
    H           -0.333993260522     1.664896970722    -0.124993598835
    H            1.366448201060     1.316530697532     0.129537031202
    C           -0.963790071382    -1.149237979492     0.880015365793
    H           -0.340585628189     0.457273286687     1.792543336925
    H           -0.754777735362    -2.195965797940     0.677068987736
    H           -1.573626360155    -1.181856170895     1.780747234538

  Mulliken Charges: (a.u.)
   Center  Symbol    Alpha    Beta     Spin     Total
       1     H     0.27799  0.27799  0.00000  0.44402
       2     O     4.36571  4.36571  0.00000 -0.73143
       3     C     3.00229  3.00229  0.00000 -0.00458
       4     C     3.07020  3.07020  0.00000 -0.14041
       5     H     0.41675  0.41675  0.00000  0.16650
       6     H     0.41043  0.41043  0.00000  0.17915
       7     C     3.21700  3.21700  0.00000 -0.43400
       8     H     0.41960  0.41960  0.00000  0.16080
       9     H     0.39885  0.39885  0.00000  0.20231
      10     H     0.42118  0.42118  0.00000  0.15764

   Total alpha = 16.00000, Total beta = 16.00000, Total charge = -0.00000
