                              Psi4 1.0.54 Driver

  ==> Input File <==

--------------------------------------------------------------------------
set {
	reference rhf
	basis cc-pvtz
}

set_num_threads( 4 )
memory 2 gb

molecule MOL {
0 1

H	 -3.213823	 -1.109187	 -0.157104
O	 -2.321472	 -0.864941	 -0.318626
C	 -2.021813	 0.336996	 0.342658
C	 -0.669613	 0.837286	 -0.127252
H	 -2.780861	 1.084746	 0.127159
H	 -2.006390	 0.184138	 1.420053
C	 0.490865	 -0.082543	 0.241244
H	 -0.708709	 0.967192	 -1.204587
H	 -0.507562	 1.822272	 0.303070
C	 1.839800	 0.429565	 -0.255472
H	 0.305636	 -1.070211	 -0.165276
H	 0.527397	 -0.195943	 1.322876
C	 3.001144	 -0.485193	 0.119072
H	 1.804373	 0.541073	 -1.335756
H	 2.020437	 1.423114	 0.146921
H	 2.866892	 -1.477297	 -0.298806
H	 3.943543	 -0.095749	 -0.249061
H	 3.085064	 -0.590459	 1.195790

	symmetry c1
}
set optking {
	frozen_dihedral = ("
		1 2 3 4
	")
}

ee,wfn = optimize('scf', return_wfn=True)
oeprop( wfn, 'DIPOLE', 'QUADRUPOLE', 'MULLIKEN_CHARGES')
f=open( 'psi4out.xyz', 'w' )
f.write( "18  " )
f.write( str(ee) + "\n" )
f.write( MOL.save_string_xyz() )
f.close()
--------------------------------------------------------------------------

    Molecular point group: c1
  Charge       = 0
  Multiplicity = 1
  Basis Set: CC-PVTZ
  Basis Set:
  @DF-RHF Final Energy:  -271.28677648637483
    Total Energy =                       -271.2867764863748903
    Molecular point group: c1
  Basis Set: CC-PVTZ
  Basis Set:
  Basis Set: CC-PVTZ
  Basis Set:
  @DF-RHF Final Energy:  -271.28678136194912
    Total Energy =                       -271.2867813619491244
  Basis Set: CC-PVTZ
  Basis Set:
  Basis Set: CC-PVTZ
  Basis Set:
  @DF-RHF Final Energy:  -271.28678243096186
    Total Energy =                       -271.2867824309619209
  Basis Set: CC-PVTZ
  Basis Set:
  Charge       = 0
  Multiplicity = 1
  Basis Set: CC-PVTZ
  Basis Set:

    Orbital Energies (a.u.)
    -----------------------

    Doubly Occupied:

       1A    -20.546139     2A    -11.265963     3A    -11.210387
       4A    -11.208944     5A    -11.204731     6A    -11.202560
       7A     -1.364040     8A     -1.076425     9A     -1.010137
      10A     -0.914292    11A     -0.818363    12A     -0.784898
      13A     -0.707570    14A     -0.645701    15A     -0.624751
      16A     -0.582308    17A     -0.573252    18A     -0.557151
      19A     -0.523058    20A     -0.505900    21A     -0.489321
      22A     -0.467796    23A     -0.459062    24A     -0.446199
      25A     -0.433069

  @DF-RHF Final Energy:  -271.28678255441656

   => Energetics <=

    Nuclear Repulsion Energy =            249.3053067785739927
    One-Electron Energy =                -861.9401429315083760
    Two-Electron Energy =                 341.3480535985179927
    DFT Exchange-Correlation Energy =       0.0000000000000000
    Empirical Dispersion Energy =           0.0000000000000000
    PCM Polarization Energy =               0.0000000000000000
    EFP Energy =                            0.0000000000000000
    Total Energy =                       -271.2867825544164475
    Molecular point group: c1
  Basis Set: CC-PVTZ
  Basis Set:

  -Total Gradient:
     Atom            X                  Y                   Z
    ------   -----------------  -----------------  -----------------
       1       -0.000231674794     0.000434377764    -0.000684549054
       2        0.000212997661    -0.000433098798     0.000705240262
       3        0.000249059350    -0.000248103650     0.000377610297
       4       -0.000239058174     0.000256664048    -0.000402857753
       5        0.000004776828    -0.000006126664     0.000000193354
       6       -0.000002346841     0.000001584043    -0.000011840994
       7        0.000007226087    -0.000000864794     0.000008788510
       8       -0.000003608912     0.000002953139    -0.000000234525
       9       -0.000005182972    -0.000010692141     0.000005365994
      10        0.000004893012    -0.000000827126     0.000002764909
      11        0.000001346673     0.000004849742     0.000006980822
      12       -0.000001477621    -0.000000095786    -0.000000144955
      13       -0.000000339618    -0.000001278980    -0.000005789985
      14        0.000001889651     0.000002589391    -0.000001170149
      15        0.000001343451    -0.000001354912     0.000001880911
      16        0.000000699377    -0.000001346533     0.000000686890
      17        0.000001223938    -0.000001012047    -0.000001317761
      18       -0.000001767101     0.000001783303    -0.000001606775

  **** Optimization is complete! (in 4 steps) ****
    Final optimized geometry and variables:
    Molecular point group: c1

    Geometry (in Angstrom), charge = 0, multiplicity = 1:

    H           -3.206670196201    -1.118667157742    -0.148698845665
    O           -2.314548957972    -0.873427021366    -0.308673504495
    C           -2.022394594744     0.337843814425     0.339330194245
    C           -0.669714185232     0.838950288247    -0.128402988780
    H           -2.781263224059     1.081194928976     0.109310363477
    H           -2.015460614592     0.197486624756     1.418483328090
    C            0.489926111975    -0.081893098019     0.240730599768
    H           -0.707214678272     0.970001989185    -1.205535350082
    H           -0.507745626388     1.822878014293     0.304458301907
    C            1.839870571802     0.430952898085    -0.252311530116
    H            0.305444798321    -1.068810308827    -0.167970376323
    H            0.523953042243    -0.197532826166     1.322096787035
    C            2.999891108731    -0.486512243406     0.119549134327
    H            1.805771517664     0.547051745995    -1.332156535451
    H            2.020977163234     1.422593534000     0.154515752530
    H            2.864443120211    -1.477048419096    -0.301583217019
    H            3.942913478079    -0.097091193671    -0.246999571077
    H            3.083221367646    -0.595399353750     1.195918869480

  Mulliken Charges: (a.u.)
   Center  Symbol    Alpha    Beta     Spin     Total
       1     H     0.39543  0.39543  0.00000  0.20915
       2     O     4.19890  4.19890  0.00000 -0.39779
       3     C     2.97316  2.97316  0.00000  0.05368
       4     C     3.09003  3.09003  0.00000 -0.18005
       5     H     0.46601  0.46601  0.00000  0.06798
       6     H     0.47374  0.47374  0.00000  0.05253
       7     C     3.08695  3.08695  0.00000 -0.17389
       8     H     0.45306  0.45306  0.00000  0.09388
       9     H     0.45489  0.45489  0.00000  0.09023
      10     C     3.08359  3.08359  0.00000 -0.16719
      11     H     0.44419  0.44419  0.00000  0.11162
      12     H     0.45923  0.45923  0.00000  0.08153
      13     C     3.14974  3.14974  0.00000 -0.29948
      14     H     0.45447  0.45447  0.00000  0.09107
      15     H     0.45681  0.45681  0.00000  0.08637
      16     H     0.45439  0.45439  0.00000  0.09122
      17     H     0.44946  0.44946  0.00000  0.10108
      18     H     0.45597  0.45597  0.00000  0.08807

   Total alpha = 25.00000, Total beta = 25.00000, Total charge =  0.00000

*** Psi4 exiting successfully. Buy a developer a beer!
