  ==> Input File <==

--------------------------------------------------------------------------
set {
	reference rhf
	basis 6-31G*
}

set_num_threads( 1 )
memory 2 gb

molecule MOL {
0 1

O	 -2.821601	 1.309235	 -0.001213
C	 -2.668563	 0.129746	 -0.000350
C	 -3.801572	 -0.864014	 -0.000442
O	 -1.481751	 -0.454642	 0.000584
H	 -4.417280	 -0.689587	 -0.874708
H	 -3.443784	 -1.883046	 -0.000565
H	 -4.417179	 -0.689832	 0.873954
C	 -0.334255	 0.388708	 0.000906
C	 0.891947	 -0.504646	 0.000751
H	 -0.365390	 1.025305	 -0.873475
H	 -0.365484	 1.024911	 0.875569
C	 2.191998	 0.301789	 0.000897
H	 0.855148	 -1.151283	 -0.871571
H	 0.855132	 -1.151660	 0.872805
C	 3.439953	 -0.579550	 0.079491
H	 2.241389	 0.912473	 -0.898942
H	 2.190045	 0.994909	 0.840339
C	 4.738456	 0.225904	 0.078279
H	 3.443684	 -1.272564	 -0.758837
H	 3.393360	 -1.188824	 0.979315
H	 4.830276	 0.820663	 -0.826068
H	 5.604577	 -0.425939	 0.134577
H	 4.779732	 0.904767	 0.925304

	symmetry c1
}
set optking {
	frozen_dihedral = ("
		13 9 8 10,
		2 4 8 10,
		19 15 12 16,
		1 2 4 8
	")
}

ee = energy('scf')
oeprop('DIPOLE', 'QUADRUPOLE', 'MULLIKEN_CHARGES')
f=open( 'psi4out.xyz', 'w' )
f.write( "23  " )
f.write( str(ee) + "\n" )
f.write( MOL.save_string_xyz() )
f.close()
--------------------------------------------------------------------------

    Molecular point group: c1

    Geometry (in Angstrom), charge = 0, multiplicity = 1:

       Center              X                  Y                   Z               Mass
    ------------   -----------------  -----------------  -----------------  -----------------
           O         -2.821346296537     1.308827572820    -0.018931241209    15.994914619560
           C         -2.668308296537     0.129338572820    -0.018068241209    12.000000000000
           C         -3.801317296537    -0.864421427180    -0.018160241209    12.000000000000
           O         -1.481496296537    -0.455049427180    -0.017134241209    15.994914619560
           H         -4.417025296537    -0.689994427180    -0.892426241209     1.007825032070
           H         -3.443529296537    -1.883453427180    -0.018283241209     1.007825032070
           H         -4.416924296537    -0.690239427180     0.856235758791     1.007825032070
           C         -0.334000296537     0.388300572820    -0.016812241209    12.000000000000
           C          0.892201703463    -0.505053427180    -0.016967241209    12.000000000000
           H         -0.365135296537     1.024897572820    -0.891193241209     1.007825032070
           H         -0.365229296537     1.024503572820     0.857850758791     1.007825032070
           C          2.192252703463     0.301381572820    -0.016821241209    12.000000000000
           H          0.855402703463    -1.151690427180    -0.889289241209     1.007825032070
           H          0.855386703463    -1.152067427180     0.855086758791     1.007825032070
           C          3.440207703463    -0.579957427180     0.061772758791    12.000000000000
           H          2.241643703463     0.912065572820    -0.916660241209     1.007825032070
           H          2.190299703463     0.994501572820     0.822620758791     1.007825032070
           C          4.738710703463     0.225496572820     0.060560758791    12.000000000000
           H          3.443938703463    -1.272971427180    -0.776555241209     1.007825032070
           H          3.393614703463    -1.189231427180     0.961596758791     1.007825032070
           H          4.830530703463     0.820255572820    -0.843786241209     1.007825032070
           H          5.604831703463    -0.426346427180     0.116858758791     1.007825032070
           H          4.779986703463     0.904359572820     0.907585758791     1.007825032070

  Charge       = 0
  Multiplicity = 1
  Basis Set: 6-31G*
  Basis Set:

    Orbital Energies (a.u.)
    -----------------------

    Doubly Occupied:

       1A    -20.603028     2A    -20.540545     3A    -11.374107
       4A    -11.281534     5A    -11.232407     6A    -11.224441
       7A    -11.223826     8A    -11.221721     9A    -11.212981
      10A     -1.467996    11A     -1.360759    12A     -1.094273
      13A     -1.042283    14A     -1.003474    15A     -0.930944
      16A     -0.841676    17A     -0.802727    18A     -0.774436
      19A     -0.692263    20A     -0.685068    21A     -0.667955
      22A     -0.646693    23A     -0.606086    24A     -0.588463
      25A     -0.582194    26A     -0.566727    27A     -0.558714
      28A     -0.537195    29A     -0.523333    30A     -0.504929
      31A     -0.491056    32A     -0.477999    33A     -0.471147
      34A     -0.465745    35A     -0.451248    36A     -0.435343

  @DF-RHF Final Energy:  -422.97949620394178

   => Energetics <=

    Nuclear Repulsion Energy =            449.6209371774511396
    One-Electron Energy =               -1466.8302373594494838
    Two-Electron Energy =                 594.2298039780565659
    DFT Exchange-Correlation Energy =       0.0000000000000000
    Empirical Dispersion Energy =           0.0000000000000000
    PCM Polarization Energy =               0.0000000000000000
    EFP Energy =                            0.0000000000000000
    Total Energy =                       -422.9794962039417214

  Mulliken Charges: (a.u.)
   Center  Symbol    Alpha    Beta     Spin     Total
       1     O     4.28391  4.28391  0.00000 -0.56781
       2     C     2.61532  2.61532  0.00000  0.76936
       3     C     3.28774  3.28774  0.00000 -0.57549
       4     O     4.31273  4.31273  0.00000 -0.62547
       5     H     0.39749  0.39749  0.00000  0.20501
       6     H     0.39985  0.39985  0.00000  0.20029
       7     H     0.39750  0.39750  0.00000  0.20499
       8     C     2.99563  2.99563  0.00000  0.00873
       9     C     3.16481  3.16481  0.00000 -0.32961
      10     H     0.41065  0.41065  0.00000  0.17870
      11     H     0.41064  0.41064  0.00000  0.17872
      12     C     3.16002  3.16002  0.00000 -0.32004
      13     H     0.41412  0.41412  0.00000  0.17176
      14     H     0.41433  0.41433  0.00000  0.17134
      15     C     3.15145  3.15145  0.00000 -0.30290
      16     H     0.42054  0.42054  0.00000  0.15892
      17     H     0.42096  0.42096  0.00000  0.15808
      18     C     3.23988  3.23988  0.00000 -0.47975
      19     H     0.42139  0.42139  0.00000  0.15723
      20     H     0.42137  0.42137  0.00000  0.15725
      21     H     0.42085  0.42085  0.00000  0.15830
      22     H     0.41799  0.41799  0.00000  0.16402
      23     H     0.42082  0.42082  0.00000  0.15836

   Total alpha = 36.00000, Total beta = 36.00000, Total charge =  0.00000
