                              Psi4 1.0.54 Driver

  ==> Input File <==

--------------------------------------------------------------------------
set {
	reference rhf
	basis cc-pvtz
}

set_num_threads( 4 )
memory 2 gb

molecule MOL {
0 1

O	 -2.071633	 -1.227563	 -0.223463
C	 -1.652164	 -0.152425	 0.058082
C	 -0.327811	 0.006324	 0.778296
C	 -2.402515	 1.108629	 -0.298924
C	 0.843231	 -0.001575	 -0.211665
H	 -0.319484	 0.928173	 1.350354
H	 -0.227804	 -0.823091	 1.466705
C	 2.197693	 0.138030	 0.476937
H	 0.722944	 0.805202	 -0.930230
H	 0.813976	 -0.926978	 -0.776588
C	 2.896056	 -1.200755	 0.689320
H	 2.836617	 0.789261	 -0.113147
H	 2.061045	 0.630300	 1.435340
H	 3.078336	 -1.702054	 -0.255406
H	 2.294418	 -1.862309	 1.303118
H	 3.851667	 -1.069004	 1.183133
H	 -3.240910	 0.874416	 -0.936711
H	 -1.747554	 1.818823	 -0.790984
H	 -2.760419	 1.579708	 0.610998

	symmetry c1
}
set optking {
	frozen_dihedral = ("
		11 8 5 9
	")
}

ee,wfn = optimize('scf', return_wfn=True)
oeprop( wfn, 'DIPOLE', 'QUADRUPOLE', 'MULLIKEN_CHARGES')
f=open( 'psi4out.xyz', 'w' )
f.write( "19  " )
f.write( str(ee) + "\n" )
f.write( MOL.save_string_xyz() )
f.close()
--------------------------------------------------------------------------

    Molecular point group: c1
  Charge       = 0
  Multiplicity = 1
  Basis Set: CC-PVTZ
  Basis Set:
  @DF-RHF Final Energy:  -309.17283118937735
    Total Energy =                       -309.1728311893773480
    Molecular point group: c1
  Basis Set: CC-PVTZ
  Basis Set:
  Basis Set: CC-PVTZ
  Basis Set:
  @DF-RHF Final Energy:  -309.17299182173275
    Total Energy =                       -309.1729918217326372
  Basis Set: CC-PVTZ
  Basis Set:
  Basis Set: CC-PVTZ
  Basis Set:
  @DF-RHF Final Energy:  -309.17300197885248
    Total Energy =                       -309.1730019788524260
  Basis Set: CC-PVTZ
  Basis Set:
  Basis Set: CC-PVTZ
  Basis Set:
  @DF-RHF Final Energy:  -309.17311245230144
    Total Energy =                       -309.1731124523013250
  Basis Set: CC-PVTZ
  Basis Set:
  Basis Set: CC-PVTZ
  Basis Set:
  @DF-RHF Final Energy:  -309.17311256370232
    Total Energy =                       -309.1731125637022615
  Basis Set: CC-PVTZ
  Basis Set:
  Basis Set: CC-PVTZ
  Basis Set:
  @DF-RHF Final Energy:  -309.17317950381312
    Total Energy =                       -309.1731795038128894
  Basis Set: CC-PVTZ
  Basis Set:
  Basis Set: CC-PVTZ
  Basis Set:
  @DF-RHF Final Energy:  -309.17318061464721
    Total Energy =                       -309.1731806146471513
  Basis Set: CC-PVTZ
  Basis Set:
  Charge       = 0
  Multiplicity = 1
  Basis Set: CC-PVTZ
  Basis Set:

    Orbital Energies (a.u.)
    -----------------------

    Doubly Occupied:

       1A    -20.537061     2A    -11.319467     3A    -11.228707
       4A    -11.228102     5A    -11.227010     6A    -11.222709
       7A    -11.211948     8A     -1.397139     9A     -1.091186
      10A     -1.029214    11A     -0.983164    12A     -0.894220
      13A     -0.804225    14A     -0.736837    15A     -0.656168
      16A     -0.654500    17A     -0.619688    18A     -0.608143
      19A     -0.597097    20A     -0.577019    21A     -0.545312
      22A     -0.536600    23A     -0.522225    24A     -0.499921
      25A     -0.481121    26A     -0.476294    27A     -0.463986
      28A     -0.399259

  @DF-RHF Final Energy:  -309.17318075576225

   => Energetics <=

    Nuclear Repulsion Energy =            303.6312368143800313
    One-Electron Energy =               -1020.5121905391118844
    Two-Electron Energy =                 407.7077729689694934
    DFT Exchange-Correlation Energy =       0.0000000000000000
    Empirical Dispersion Energy =           0.0000000000000000
    PCM Polarization Energy =               0.0000000000000000
    EFP Energy =                            0.0000000000000000
    Total Energy =                       -309.1731807557623597
    Molecular point group: c1
  Basis Set: CC-PVTZ
  Basis Set:

  -Total Gradient:
     Atom            X                  Y                   Z
    ------   -----------------  -----------------  -----------------
       1       -0.000002801760    -0.000021733955     0.000000454984
       2        0.000013259779     0.000013037587    -0.000022138700
       3       -0.000003282943     0.000000157110     0.000014629720
       4       -0.000001970171    -0.000003902056     0.000005861146
       5       -0.001157050726     0.002747294624     0.002100955599
       6        0.000001347638     0.000011737264     0.000004497357
       7        0.000001186634    -0.000004523626     0.000012289117
       8       -0.001163779934    -0.000597412717     0.002684431121
       9        0.001278307059    -0.002198314140    -0.002440469429
      10        0.000007332858     0.000001281447    -0.000005407074
      11        0.001039134096     0.000036220703    -0.002340761433
      12       -0.000009183831    -0.000000170284    -0.000015254439
      13       -0.000005957902     0.000009875944     0.000002205978
      14        0.000004845203    -0.000005198098    -0.000006187335
      15        0.000001257023    -0.000003607844    -0.000002163932
      16       -0.000003986651     0.000007630210     0.000003105285
      17       -0.000000948356    -0.000004332821    -0.000002032533
      18        0.000002976170     0.000002434485     0.000000231198
      19       -0.000000684189     0.000009526166     0.000005753369

  **** Optimization is complete! (in 8 steps) ****
    Final optimized geometry and variables:
    Molecular point group: c1

    Geometry (in Angstrom), charge = 0, multiplicity = 1:

    O           -2.019002383484    -1.016718478145    -0.253557583067
    C           -1.583384687282     0.072323904302    -0.065285525900
    C           -0.233073462562     0.271775463120     0.594125000204
    C           -2.338736974782     1.310848698557    -0.484980436847
    C            0.902586071680     0.190364417011    -0.433318676612
    H           -0.200095485133     1.230720827088     1.100105774143
    H           -0.112393140939    -0.508841272901     1.334506019090
    C            2.300862226268     0.295181690823     0.198288541794
    H            0.781365342397     0.957171274275    -1.191566268103
    H            0.817436226842    -0.753629617305    -0.960480449435
    C            2.948552720906    -1.061382167453     0.462016130958
    H            2.948751459757     0.859869748305    -0.463598256943
    H            2.246896950414     0.864177966648     1.121093394977
    H            3.094338073036    -1.604124380911    -0.465089123464
    H            2.334528023786    -1.677492320743     1.110472627376
    H            3.916367495756    -0.946331105443     0.936372109016
    H           -3.200224728243     1.038613854253    -1.075123999015
    H           -1.697405433311     1.979150213567    -1.048437539377
    H           -2.662157501697     1.847973085483     0.400983142334

  Mulliken Charges: (a.u.)
   Center  Symbol    Alpha    Beta     Spin     Total
       1     O     4.17705  4.17705  0.00000 -0.35411
       2     C     2.85845  2.85845  0.00000  0.28311
       3     C     3.09834  3.09834  0.00000 -0.19667
       4     C     3.15520  3.15520  0.00000 -0.31040
       5     C     3.10707  3.10707  0.00000 -0.21414
       6     H     0.44880  0.44880  0.00000  0.10241
       7     H     0.43887  0.43887  0.00000  0.12226
       8     C     3.09057  3.09057  0.00000 -0.18115
       9     H     0.44467  0.44467  0.00000  0.11065
      10     H     0.44292  0.44292  0.00000  0.11416
      11     C     3.14606  3.14606  0.00000 -0.29212
      12     H     0.44771  0.44771  0.00000  0.10458
      13     H     0.45412  0.45412  0.00000  0.09175
      14     H     0.45328  0.45328  0.00000  0.09344
      15     H     0.45295  0.45295  0.00000  0.09409
      16     H     0.44850  0.44850  0.00000  0.10300
      17     H     0.43617  0.43617  0.00000  0.12766
      18     H     0.45088  0.45088  0.00000  0.09825
      19     H     0.44838  0.44838  0.00000  0.10324

   Total alpha = 28.00000, Total beta = 28.00000, Total charge = -0.00000

*** Psi4 exiting successfully. Buy a developer a beer!
