  ==> Input File <==

--------------------------------------------------------------------------
set {
	reference rhf
	basis 6-31G*
}

set_num_threads( 4 )
memory 2 gb

molecule MOL {
0 1

H	 3.404221	 -0.245100	 -0.922679
C	 2.692355	 -0.462997	 -0.134837
C	 1.322923	 0.120767	 -0.479465
H	 2.645574	 -1.541351	 -0.019354
H	 3.080284	 -0.042379	 0.787760
C	 0.306652	 -0.176050	 0.621399
H	 0.962330	 -0.299672	 -1.412541
H	 1.393404	 1.194152	 -0.610379
N	 -1.068537	 -0.011044	 0.085269
H	 0.372515	 -1.192590	 0.973735
H	 0.391664	 0.520566	 1.441230
O	 -1.656956	 -0.997225	 -0.235017
O	 -1.478635	 1.104830	 -0.018026

	symmetry c1
}
set optking {
	frozen_dihedral = ("
		7 3 6 9
	")
}

ee = optimize('scf')
oeprop('DIPOLE', 'QUADRUPOLE', 'MULLIKEN_CHARGES')
f=open( 'psi4out.xyz', 'w' )
f.write( "13  " )
f.write( str(ee) + "\n" )
f.write( MOL.save_string_xyz() )
f.close()
--------------------------------------------------------------------------

    Molecular point group: c1
  Charge       = 0
  Multiplicity = 1
  Basis Set: 6-31G*
  Basis Set:
  @DF-RHF Final Energy:  -321.73431333441135
    Total Energy =                       -321.7343133344112971
    Molecular point group: c1
  Basis Set: 6-31G*
  Basis Set:
  Basis Set: 6-31G*
  Basis Set:
  @DF-RHF Final Energy:  -321.72492755894126
    Total Energy =                       -321.7249275589411468
  Basis Set: 6-31G*
  Basis Set:
  Basis Set: 6-31G*
  Basis Set:
  @DF-RHF Final Energy:  -321.73412947995723
    Total Energy =                       -321.7341294799572324
  Basis Set: 6-31G*
  Basis Set:
  Basis Set: 6-31G*
  Basis Set:
  @DF-RHF Final Energy:  -321.73438265879616
    Total Energy =                       -321.7343826587962781
  Basis Set: 6-31G*
  Basis Set:
  Basis Set: 6-31G*
  Basis Set:
  @DF-RHF Final Energy:  -321.73441192146220
    Total Energy =                       -321.7344119214621401
  Basis Set: 6-31G*
  Basis Set:
  Basis Set: 6-31G*
  Basis Set:
  @DF-RHF Final Energy:  -321.73444927695118
    Total Energy =                       -321.7344492769514090
  Basis Set: 6-31G*
  Basis Set:
  Charge       = 0
  Multiplicity = 1
  Basis Set: 6-31G*
  Basis Set:

    Orbital Energies (a.u.)
    -----------------------

    Doubly Occupied:

       1A    -20.601891     2A    -20.599174     3A    -15.846899
       4A    -11.299210     5A    -11.257271     6A    -11.239829
       7A     -1.630593     8A     -1.416002     9A     -1.134963
      10A     -1.028645    11A     -0.884378    12A     -0.833318
      13A     -0.758703    14A     -0.735123    15A     -0.723208
      16A     -0.668110    17A     -0.605666    18A     -0.591576
      19A     -0.548860    20A     -0.522559    21A     -0.513329
      22A     -0.483203    23A     -0.473670    24A     -0.448171

  @DF-RHF Final Energy:  -321.73444988336178

   => Energetics <=

    Nuclear Repulsion Energy =            247.4933968655873286
    One-Electron Energy =                -928.7669896727160221
    Two-Electron Energy =                 359.5391429237665761
    DFT Exchange-Correlation Energy =       0.0000000000000000
    Empirical Dispersion Energy =           0.0000000000000000
    PCM Polarization Energy =               0.0000000000000000
    EFP Energy =                            0.0000000000000000
    Total Energy =                       -321.7344498833621174
    Molecular point group: c1
  Basis Set: 6-31G*
  Basis Set:

  -Total Gradient:
     Atom            X                  Y                   Z
    ------   -----------------  -----------------  -----------------
       1        0.000006263930    -0.000002631045    -0.000000648139
       2        0.000020560637     0.000007178708    -0.000010240933
       3        0.001984133683    -0.004473836460     0.000623707668
       4        0.000002715268    -0.000000781871    -0.000004330566
       5       -0.000007873328    -0.000002136243    -0.000003012393
       6       -0.000329595160     0.003940139018     0.000796421539
       7       -0.001615400497     0.002971705023    -0.000680418817
       8        0.000003670447     0.000004250124     0.000011861720
       9        0.000018042391    -0.002325347702    -0.000638021006
      10       -0.000001829144     0.000015798057    -0.000021425655
      11        0.000019969959     0.000003963679    -0.000009691647
      12       -0.000080079147     0.000028595154    -0.000050437861
      13       -0.000020579033    -0.000166896440    -0.000013763908

  **** Optimization is complete! (in 7 steps) ****
    Final optimized geometry and variables:
    Molecular point group: c1

    Geometry (in Angstrom), charge = 0, multiplicity = 1:

    H            3.426224406707    -0.139497904951    -0.881693456384
    C            2.709338730922    -0.389259059955    -0.107966440267
    C            1.333741886115     0.175069375866    -0.454508332562
    H            2.680617902689    -1.470192770587    -0.015915782320
    H            3.079002521981     0.018120646927     0.828353753960
    C            0.313803176790    -0.116094718087     0.649088900773
    H            0.970991730335    -0.238359411400    -1.389921647818
    H            1.392077905526     1.247689379935    -0.598595462497
    N           -1.059803651474     0.062806623161     0.115650682124
    H            0.364127584615    -1.138330133858     0.987374439988
    H            0.409630793864     0.564960886485     1.480535269123
    O           -1.681794667602    -0.918862471323    -0.149686673866
    O           -1.435520798324     1.184483084023    -0.042385689070

  Mulliken Charges: (a.u.)
   Center  Symbol    Alpha    Beta     Spin     Total
       1     H     0.40762  0.40762  0.00000  0.18477
       2     C     3.24814  3.24814  0.00000 -0.49628
       3     C     3.17183  3.17183  0.00000 -0.34366
       4     H     0.41324  0.41324  0.00000  0.17352
       5     H     0.41552  0.41552  0.00000  0.16895
       6     C     3.08406  3.08406  0.00000 -0.16812
       7     H     0.40023  0.40023  0.00000  0.19953
       8     H     0.39896  0.39896  0.00000  0.20207
       9     N     3.22408  3.22408  0.00000  0.55184
      10     H     0.38801  0.38801  0.00000  0.22398
      11     H     0.38789  0.38789  0.00000  0.22421
      12     O     4.22912  4.22912  0.00000 -0.45823
      13     O     4.23130  4.23130  0.00000 -0.46260

   Total alpha = 24.00000, Total beta = 24.00000, Total charge =  0.00000
