  ==> Input File <==

--------------------------------------------------------------------------
set {
	reference rhf
	basis 6-31G*
}

set_num_threads( 4 )
memory 2 gb

molecule MOL {
0 1

H	 2.456683	 -0.660438	 -0.000827
C	 1.741886	 0.146482	 -0.000262
O	 0.464886	 -0.454746	 -0.000158
H	 1.886490	 0.753508	 -0.886058
H	 1.887037	 0.752772	 0.885968
C	 -0.590998	 0.343045	 0.000118
O	 -1.699443	 -0.054298	 0.000227
H	 -0.340329	 1.404368	 0.000207

	symmetry c1
}
set optking {
	frozen_dihedral = ("
		2 3 6 7
	")
}

ee = optimize('scf')
oeprop('DIPOLE', 'QUADRUPOLE', 'MULLIKEN_CHARGES')
f=open( 'psi4out.xyz', 'w' )
f.write( "8  " )
f.write( str(ee) + "\n" )
f.write( MOL.save_string_xyz() )
f.close()
--------------------------------------------------------------------------

    Molecular point group: c1
  Charge       = 0
  Multiplicity = 1
  Basis Set: 6-31G*
  Basis Set:

    Orbital Energies (a.u.)
    -----------------------

    Doubly Occupied:

       1A    -20.616870     2A    -20.557719     3A    -11.382153
       4A    -11.304707     5A     -1.476947     6A     -1.382713
       7A     -0.993752     8A     -0.849244     9A     -0.738318
      10A     -0.686704    11A     -0.681190    12A     -0.605697
      13A     -0.571115    14A     -0.541342    15A     -0.460731
      16A     -0.453760

  @DF-RHF Final Energy:  -227.77909078136400

   => Energetics <=

    Nuclear Repulsion Energy =            121.2008252557847783
    One-Electron Energy =                -551.3539090131705507
    Two-Electron Energy =                 202.3739929760217819
    DFT Exchange-Correlation Energy =       0.0000000000000000
    Empirical Dispersion Energy =           0.0000000000000000
    PCM Polarization Energy =               0.0000000000000000
    EFP Energy =                            0.0000000000000000
    Total Energy =                       -227.7790907813640047
    Molecular point group: c1
  Basis Set: 6-31G*
  Basis Set:

  -Total Gradient:
     Atom            X                  Y                   Z
    ------   -----------------  -----------------  -----------------
       1       -0.000009014112    -0.000013283374    -0.000000949091
       2        0.000015767408     0.000046737094    -0.000003132414
       3       -0.000038025440    -0.000011383565    -0.000004123381
       4        0.000000501195    -0.000006938674     0.000000789872
       5        0.000007645971     0.000001562708     0.000007037236
       6        0.000012688450    -0.000004030508     0.000003040666
       7        0.000017406411     0.000010840955    -0.000001592665
       8       -0.000006969883    -0.000023504634    -0.000001070222

  **** Optimization is complete! (in 1 steps) ****
    Final optimized geometry and variables:
    Molecular point group: c1

    Geometry (in Angstrom), charge = 0, multiplicity = 1:

    H            2.456683138289    -0.660438443974    -0.000804676084
    C            1.741886138289     0.146481556026    -0.000239676084
    O            0.464886138289    -0.454746443974    -0.000135676084
    H            1.886490138289     0.753507556026    -0.886035676084
    H            1.887037138289     0.752771556026     0.885990323916
    C           -0.590997861711     0.343044556026     0.000140323916
    O           -1.699442861711    -0.054298443974     0.000249323916
    H           -0.340328861711     1.404367556026     0.000229323916

  Mulliken Charges: (a.u.)
   Center  Symbol    Alpha    Beta     Spin     Total
       1     H     0.39565  0.39565  0.00000  0.20870
       2     C     3.10174  3.10174  0.00000 -0.20349
       3     O     4.27661  4.27661  0.00000 -0.55323
       4     H     0.41312  0.41312  0.00000  0.17376
       5     H     0.41312  0.41312  0.00000  0.17377
       6     C     2.71984  2.71984  0.00000  0.56031
       7     O     4.24815  4.24815  0.00000 -0.49629
       8     H     0.43176  0.43176  0.00000  0.13647

   Total alpha = 16.00000, Total beta = 16.00000, Total charge = -0.00000
