                              Psi4 1.0.54 Driver

  ==> Input File <==

--------------------------------------------------------------------------
set {
	reference rhf
	basis cc-pvtz
}

set_num_threads( 4 )
memory 2 gb

molecule MOL {
0 1

H	 -2.149496	 -2.244167	 0.000000
O	 -2.454378	 -1.354528	 0.000000
C	 -1.430628	 -0.482077	 0.000000
C	 -0.670837	 -0.387835	 1.156939
C	 -1.123109	 0.302054	 -1.091692
H	 -0.926031	 -1.005942	 1.994703
C	 0.388926	 0.488241	 1.213536
H	 -1.702500	 0.239295	 -1.992978
C	 -0.050726	 1.180818	 -1.018227
H	 0.971265	 0.554989	 2.111735
C	 0.712264	 1.283120	 0.127557
C	 0.263940	 1.997447	 -2.165141
H	 1.536445	 1.965759	 0.168830
N	 0.507217	 2.634529	 -3.063822

	symmetry c1
}
set optking {
	frozen_dihedral = ("
		5 3 2 1
	")
}

ee,wfn = optimize('scf', return_wfn=True)
oeprop( wfn, 'DIPOLE', 'QUADRUPOLE', 'MULLIKEN_CHARGES')
f=open( 'psi4out.xyz', 'w' )
f.write( "14  " )
f.write( str(ee) + "\n" )
f.write( MOL.save_string_xyz() )
f.close()
--------------------------------------------------------------------------

    Molecular point group: c1
  Charge       = 0
  Multiplicity = 1
  Basis Set: CC-PVTZ
  Basis Set:
  @DF-RHF Final Energy:  -397.42767012037370
    Total Energy =                       -397.4276701203735911
    Molecular point group: c1
  Basis Set: CC-PVTZ
  Basis Set:
  Basis Set: CC-PVTZ
  Basis Set:
  @DF-RHF Final Energy:  -397.42888929349067
    Total Energy =                       -397.4288892934908972
  Basis Set: CC-PVTZ
  Basis Set:
  Basis Set: CC-PVTZ
  Basis Set:
  @DF-RHF Final Energy:  -397.42898885991536
    Total Energy =                       -397.4289888599153073
  Basis Set: CC-PVTZ
  Basis Set:
  Basis Set: CC-PVTZ
  Basis Set:
  @DF-RHF Final Energy:  -397.42900213330438
    Total Energy =                       -397.4290021333043796
  Basis Set: CC-PVTZ
  Basis Set:
  Charge       = 0
  Multiplicity = 1
  Basis Set: CC-PVTZ
  Basis Set:

    Orbital Energies (a.u.)
    -----------------------

    Doubly Occupied:

       1A    -20.594049     2A    -15.564369     3A    -11.317023
       4A    -11.291143     5A    -11.267923     6A    -11.261869
       7A    -11.260359     8A    -11.260325     9A    -11.257242
      10A     -1.423050    11A     -1.237471    12A     -1.187494
      13A     -1.066568    14A     -1.043176    15A     -0.897156
      16A     -0.863362    17A     -0.789366    18A     -0.714030
      19A     -0.694053    20A     -0.690312    21A     -0.637622
      22A     -0.624108    23A     -0.570700    24A     -0.563166
      25A     -0.552030    26A     -0.549308    27A     -0.505217
      28A     -0.484682    29A     -0.478043    30A     -0.366986
      31A     -0.355130

  @DF-RHF Final Energy:  -397.42900513418033

   => Energetics <=

    Nuclear Repulsion Energy =            379.9684828900500406
    One-Electron Energy =               -1292.0603103810026369
    Two-Electron Energy =                 514.6628223567724945
    DFT Exchange-Correlation Energy =       0.0000000000000000
    Empirical Dispersion Energy =           0.0000000000000000
    PCM Polarization Energy =               0.0000000000000000
    EFP Energy =                            0.0000000000000000
    Total Energy =                       -397.4290051341801018
    Molecular point group: c1
  Basis Set: CC-PVTZ
  Basis Set:

  -Total Gradient:
     Atom            X                  Y                   Z
    ------   -----------------  -----------------  -----------------
       1        0.000011148475     0.000076546308    -0.001327172525
       2        0.000117371614    -0.000573154618     0.001530960995
       3       -0.000609137173     0.001306040274    -0.000007706731
       4       -0.000041710715    -0.000062097798     0.000080444140
       5        0.000423630264    -0.000770741475    -0.000318903184
       6        0.000020464313     0.000041017780    -0.000017284419
       7       -0.000042620347    -0.000103316895     0.000025444297
       8       -0.000037489977    -0.000037212502     0.000032091023
       9        0.000224296032     0.000057106796     0.000036305119
      10        0.000028298734     0.000041164917    -0.000013807805
      11       -0.000112813210     0.000050881621    -0.000150503724
      12        0.000055651758     0.000013142278     0.000060790243
      13        0.000015899956    -0.000006209812     0.000066613146
      14       -0.000052989724    -0.000033166872     0.000002729428

  **** Optimization is complete! (in 5 steps) ****
    Final optimized geometry and variables:
    Molecular point group: c1

    Geometry (in Angstrom), charge = 0, multiplicity = 1:

    H           -1.715178781860    -2.800679915385     0.450819413972
    O           -1.996519200261    -1.902731027998     0.477774664339
    C           -0.929115098165    -1.059301504873     0.536019634850
    C           -0.172799785314    -0.952925309335     1.689042321246
    C           -0.633172849026    -0.279297376906    -0.561363870527
    H           -0.425897276297    -1.555694447102     2.539735792427
    C            0.886936096439    -0.068862718274     1.741410729585
    H           -1.228621582616    -0.363488639164    -1.447896354091
    C            0.427125405820     0.610792658513    -0.495864567407
    H            1.470740436710     0.010146197130     2.637526100162
    C            1.194205062626     0.719991868916     0.651616859794
    C            0.735984513909     1.429113979361    -1.642654795690
    H            2.011725203297     1.411581456702     0.687684507646
    N            0.979109556364     2.068390449183    -2.539899552650

  Mulliken Charges: (a.u.)
   Center  Symbol    Alpha    Beta     Spin     Total
       1     H     0.38503  0.38503  0.00000  0.22994
       2     O     4.18507  4.18507  0.00000 -0.37014
       3     C     2.86024  2.86024  0.00000  0.27951
       4     C     3.11309  3.11309  0.00000 -0.22619
       5     C     3.12167  3.12167  0.00000 -0.24334
       6     H     0.41430  0.41430  0.00000  0.17139
       7     C     3.06059  3.06059  0.00000 -0.12117
       8     H     0.40664  0.40664  0.00000  0.18672
       9     C     2.92961  2.92961  0.00000  0.14077
      10     H     0.41619  0.41619  0.00000  0.16761
      11     C     3.09526  3.09526  0.00000 -0.19052
      12     C     3.02383  3.02383  0.00000 -0.04766
      13     H     0.41367  0.41367  0.00000  0.17266
      14     N     3.57479  3.57479  0.00000 -0.14959

   Total alpha = 31.00000, Total beta = 31.00000, Total charge =  0.00000

*** Psi4 exiting successfully. Buy a developer a beer!
