                              Psi4 1.0.54 Driver

  ==> Input File <==

--------------------------------------------------------------------------
set {
	reference rhf
	basis cc-pvtz
}

set_num_threads( 4 )
memory 2 gb

molecule MOL {
0 1

H	 -3.181578	 1.753868	 -0.498947
C	 -2.436845	 1.193613	 0.028116
C	 -2.105997	 -0.000418	 -0.398703
H	 -1.978399	 1.628235	 0.894563
O	 -1.189946	 -0.765863	 0.237511
H	 -2.552914	 -0.442088	 -1.270666
C	 0.026572	 -0.995256	 -0.379403
C	 1.057223	 0.049888	 -0.004615
H	 -0.054361	 -1.010670	 -1.459674
H	 0.397526	 -1.952058	 -0.044198
F	 2.203233	 -0.234060	 -0.590375
F	 0.698147	 1.254887	 -0.392621
F	 1.266440	 0.094219	 1.288722

	symmetry c1
}
set optking {
	frozen_dihedral = ("
		6 3 5 7
	")
}

ee,wfn = optimize('scf', return_wfn=True)
oeprop( wfn, 'DIPOLE', 'QUADRUPOLE', 'MULLIKEN_CHARGES')
f=open( 'psi4out.xyz', 'w' )
f.write( "13  " )
f.write( str(ee) + "\n" )
f.write( MOL.save_string_xyz() )
f.close()
--------------------------------------------------------------------------

    Molecular point group: c1
  Charge       = 0
  Multiplicity = 1
  Basis Set: CC-PVTZ
  Basis Set:
  @DF-RHF Final Energy:  -527.73766190439176
    Total Energy =                       -527.7376619043916435
    Molecular point group: c1
  Basis Set: CC-PVTZ
  Basis Set:
  Basis Set: CC-PVTZ
  Basis Set:
  @DF-RHF Final Energy:  -527.73822384714731
    Total Energy =                       -527.7382238471475375
  Basis Set: CC-PVTZ
  Basis Set:
  Basis Set: CC-PVTZ
  Basis Set:
  @DF-RHF Final Energy:  -527.73837738630505
    Total Energy =                       -527.7383773863050465
  Basis Set: CC-PVTZ
  Basis Set:
  Basis Set: CC-PVTZ
  Basis Set:
  @DF-RHF Final Energy:  -527.73845265178534
    Total Energy =                       -527.7384526517852237
  Basis Set: CC-PVTZ
  Basis Set:
  @DF-RHF Final Energy:  -527.73850434385599
    Total Energy =                       -527.7385043438564480
  Basis Set: CC-PVTZ
  Basis Set:
  @DF-RHF Final Energy:  -527.73852070783403
    Total Energy =                       -527.7385207078339135
  Basis Set: CC-PVTZ
  Basis Set:
  Basis Set: CC-PVTZ
  Basis Set:
  @DF-RHF Final Energy:  -527.73852552945948
    Total Energy =                       -527.7385255294593662
  Basis Set: CC-PVTZ
  Basis Set:
  Basis Set: CC-PVTZ
  Basis Set:
  @DF-RHF Final Energy:  -527.73852693427170
    Total Energy =                       -527.7385269342721585
  Basis Set: CC-PVTZ
  Basis Set:
  Charge       = 0
  Multiplicity = 1
  Basis Set: CC-PVTZ
  Basis Set:

    Orbital Energies (a.u.)
    -----------------------

    Doubly Occupied:

       1A    -26.337333     2A    -26.335276     3A    -26.333899
       4A    -20.594364     5A    -11.493557     6A    -11.315445
       7A    -11.294224     8A    -11.224123     9A     -1.745955
      10A     -1.642214    11A     -1.640751    12A     -1.433276
      13A     -1.082809    14A     -1.021962    15A     -0.928869
      16A     -0.840190    17A     -0.835246    18A     -0.816400
      19A     -0.795130    20A     -0.719560    21A     -0.717714
      22A     -0.694795    23A     -0.677421    24A     -0.669002
      25A     -0.656860    26A     -0.651464    27A     -0.646369
      28A     -0.588418    29A     -0.567755    30A     -0.531566
      31A     -0.476356    32A     -0.376732

  @DF-RHF Final Energy:  -527.73852706740036

   => Energetics <=

    Nuclear Repulsion Energy =            416.3536238349205973
    One-Electron Energy =               -1556.8142371284393448
    Two-Electron Energy =                 612.7220862261186767
    DFT Exchange-Correlation Energy =       0.0000000000000000
    Empirical Dispersion Energy =           0.0000000000000000
    PCM Polarization Energy =               0.0000000000000000
    EFP Energy =                            0.0000000000000000
    Total Energy =                       -527.7385270674000139
    Molecular point group: c1
  Basis Set: CC-PVTZ
  Basis Set:

  -Total Gradient:
     Atom            X                  Y                   Z
    ------   -----------------  -----------------  -----------------
       1        0.000003409867     0.000004714963     0.000001573249
       2       -0.000002412448     0.000005872645    -0.000032578476
       3        0.003050060704     0.002290388279    -0.001908891785
       4        0.000000389051     0.000005149652     0.000001192449
       5       -0.001869405514    -0.003273993844    -0.000683769478
       6       -0.002004654696    -0.001040458281     0.001782221303
       7        0.000803047898     0.002022180831     0.000851448176
       8        0.000027387252    -0.000051864828     0.000027069883
       9        0.000005743527    -0.000002688511    -0.000006209001
      10        0.000000262743    -0.000004152736    -0.000001085043
      11       -0.000003141618    -0.000000320382     0.000014259652
      12       -0.000012876117     0.000041588156    -0.000008982360
      13        0.000002189361     0.000003584054    -0.000036248564

  **** Optimization is complete! (in 9 steps) ****
    Final optimized geometry and variables:
    Molecular point group: c1

    Geometry (in Angstrom), charge = 0, multiplicity = 1:

    H           -3.480994223127     1.524737488177    -0.579277378639
    C           -2.669786059155     1.065175359567    -0.050772563674
    C           -2.237870365920    -0.113707842632    -0.420021330514
    H           -2.236721552812     1.586081452718     0.780541289815
    O           -1.273173568930    -0.796535817844     0.258185383584
    H           -2.681366761086    -0.661858149435    -1.233545745406
    C           -0.071904035533    -1.029592843787    -0.397379225030
    C            0.995088616972    -0.042207707703     0.026719967983
    H           -0.169981907031    -0.971523476710    -1.474510200744
    H            0.282042566776    -2.014737643900    -0.129192445225
    F            2.127738770854    -0.337166646160    -0.581654331267
    F            0.686982891519     1.196463456901    -0.284527575631
    F            1.213502806888    -0.084177798877     1.320135625533

  Mulliken Charges: (a.u.)
   Center  Symbol    Alpha    Beta     Spin     Total
       1     H     0.42466  0.42466  0.00000  0.15067
       2     C     3.16791  3.16791  0.00000 -0.33583
       3     C     2.98370  2.98370  0.00000  0.03260
       4     H     0.42033  0.42033  0.00000  0.15934
       5     O     4.16229  4.16229  0.00000 -0.32458
       6     H     0.43035  0.43035  0.00000  0.13930
       7     C     3.00239  3.00239  0.00000 -0.00478
       8     C     2.67553  2.67553  0.00000  0.64894
       9     H     0.46056  0.46056  0.00000  0.07889
      10     H     0.44082  0.44082  0.00000  0.11837
      11     F     4.61350  4.61350  0.00000 -0.22699
      12     F     4.60928  4.60928  0.00000 -0.21856
      13     F     4.60868  4.60868  0.00000 -0.21736

   Total alpha = 32.00000, Total beta = 32.00000, Total charge =  0.00000

*** Psi4 exiting successfully. Buy a developer a beer!
