                              Psi4 1.0.54 Driver

  ==> Input File <==

--------------------------------------------------------------------------
set {
	reference rhf
	basis cc-pvtz
}

set_num_threads( 4 )
memory 2 gb

molecule MOL {
0 1

H	 3.296519	 -0.413552	 0.019985
C	 2.237957	 -0.236382	 0.015243
C	 1.389023	 -1.151165	 -0.589584
C	 1.729617	 0.900348	 0.611021
H	 1.791614	 -2.032224	 -1.050506
C	 0.030426	 -0.927676	 -0.597887
H	 2.388647	 1.606076	 1.078036
C	 0.364946	 1.123418	 0.601875
H	 -0.641719	 -1.622783	 -1.060169
C	 -0.486398	 0.214248	 0.000000
H	 -0.037481	 2.006005	 1.063682
C	 -1.946525	 0.470130	 0.000000
O	 -2.779618	 -0.371226	 0.000000
H	 -2.227127	 1.528393	 0.000000

	symmetry c1
}
set optking {
	frozen_dihedral = ("
		8 10 12 14
	")
}

ee,wfn = optimize('scf', return_wfn=True)
oeprop( wfn, 'DIPOLE', 'QUADRUPOLE', 'MULLIKEN_CHARGES')
f=open( 'psi4out.xyz', 'w' )
f.write( "14  " )
f.write( str(ee) + "\n" )
f.write( MOL.save_string_xyz() )
f.close()
--------------------------------------------------------------------------

    Molecular point group: c1
  Charge       = 0
  Multiplicity = 1
  Basis Set: CC-PVTZ
  Basis Set:
  @DF-RHF Final Energy:  -343.54700278983756
    Total Energy =                       -343.5470027898376770
    Molecular point group: c1
  Basis Set: CC-PVTZ
  Basis Set:
  Basis Set: CC-PVTZ
  Basis Set:
  @DF-RHF Final Energy:  -343.54416928057640
    Total Energy =                       -343.5441692805763978
  Basis Set: CC-PVTZ
  Basis Set:
  Basis Set: CC-PVTZ
  Basis Set:
  @DF-RHF Final Energy:  -343.54682295998782
    Total Energy =                       -343.5468229599880488
  Basis Set: CC-PVTZ
  Basis Set:
  Basis Set: CC-PVTZ
  Basis Set:
  @DF-RHF Final Energy:  -343.54744461760629
    Total Energy =                       -343.5474446176061747
  Basis Set: CC-PVTZ
  Basis Set:
  Basis Set: CC-PVTZ
  Basis Set:
  @DF-RHF Final Energy:  -343.54745760719618
    Total Energy =                       -343.5474576071964634
  Basis Set: CC-PVTZ
  Basis Set:
  Charge       = 0
  Multiplicity = 1
  Basis Set: CC-PVTZ
  Basis Set:

    Orbital Energies (a.u.)
    -----------------------

    Doubly Occupied:

       1A    -20.554778     2A    -11.327968     3A    -11.251628
       4A    -11.248557     5A    -11.246902     6A    -11.245542
       7A    -11.243529     8A    -11.241957     9A     -1.410350
      10A     -1.176568    11A     -1.051156    12A     -1.035587
      13A     -0.892222    14A     -0.847679    15A     -0.795215
      16A     -0.725554    17A     -0.681845    18A     -0.656836
      19A     -0.627224    20A     -0.622330    21A     -0.605972
      22A     -0.556775    23A     -0.530270    24A     -0.510527
      25A     -0.508493    26A     -0.425999    27A     -0.354888
      28A     -0.352242

  @DF-RHF Final Energy:  -343.54746106025169

   => Energetics <=

    Nuclear Repulsion Energy =            323.9563929438306218
    One-Electron Energy =               -1107.5505324007012860
    Two-Electron Energy =                 440.0466783966191429
    DFT Exchange-Correlation Energy =       0.0000000000000000
    Empirical Dispersion Energy =           0.0000000000000000
    PCM Polarization Energy =               0.0000000000000000
    EFP Energy =                            0.0000000000000000
    Total Energy =                       -343.5474610602514645
    Molecular point group: c1
  Basis Set: CC-PVTZ
  Basis Set:

  -Total Gradient:
     Atom            X                  Y                   Z
    ------   -----------------  -----------------  -----------------
       1       -0.000002782197    -0.000009204476     0.000008652251
       2        0.000004076139     0.000021466627    -0.000021356139
       3       -0.000014504421     0.000009794792    -0.000038649369
       4       -0.000001318599    -0.000018953999     0.000021631168
       5        0.000002755840    -0.000005092492     0.000004016704
       6        0.000019738655    -0.000057350360     0.000043479812
       7       -0.000004073655     0.000005345534    -0.000005138779
       8       -0.000278326634    -0.002240237040     0.003631104253
       9        0.000002397808     0.000016870965    -0.000017570631
      10        0.000322049829     0.003355537756    -0.006906633938
      11       -0.000001950768     0.000000603538    -0.000002403798
      12        0.000034652357    -0.001235724131     0.008472523368
      13        0.000006914829    -0.000032938541     0.000006638305
      14       -0.000089629184     0.000189881825    -0.005196293205

  **** Optimization is complete! (in 6 steps) ****
    Final optimized geometry and variables:
    Molecular point group: c1

    Geometry (in Angstrom), charge = 0, multiplicity = 1:

    H            3.291184849127    -0.432941085919     0.050815887815
    C            2.234488637884    -0.245780280226     0.033022108199
    C            1.384204217545    -1.152872911486    -0.579578187056
    C            1.728477211336     0.895604547881     0.622633700064
    H            1.783145316137    -2.039215090935    -1.033691693624
    C            0.026105518250    -0.921249349359    -0.595511683863
    H            2.387023936784     1.592042641916     1.104272189997
    C            0.367652236519     1.137778977487     0.587402851372
    H           -0.647286771633    -1.623447012109    -1.045588066505
    C           -0.484405036763     0.236699866052    -0.025748967164
    H           -0.030466842306     2.028670887315     1.037364588193
    C           -1.950234777489     0.471997090845     0.012292265603
    O           -2.766103946309    -0.382854874242    -0.051315085678
    H           -2.250928429660     1.524273925070     0.052168659335

  Mulliken Charges: (a.u.)
   Center  Symbol    Alpha    Beta     Spin     Total
       1     H     0.41977  0.41977  0.00000  0.16047
       2     C     3.07222  3.07222  0.00000 -0.14443
       3     C     3.06990  3.06990  0.00000 -0.13980
       4     C     3.07305  3.07305  0.00000 -0.14609
       5     H     0.41987  0.41987  0.00000  0.16026
       6     C     3.08371  3.08371  0.00000 -0.16742
       7     H     0.42060  0.42060  0.00000  0.15881
       8     C     3.08911  3.08911  0.00000 -0.17822
       9     H     0.41065  0.41065  0.00000  0.17870
      10     C     2.97454  2.97454  0.00000  0.05092
      11     H     0.42321  0.42321  0.00000  0.15358
      12     C     2.91718  2.91718  0.00000  0.16564
      13     O     4.16889  4.16889  0.00000 -0.33778
      14     H     0.45732  0.45732  0.00000  0.08536

   Total alpha = 28.00000, Total beta = 28.00000, Total charge =  0.00000

*** Psi4 exiting successfully. Buy a developer a beer!
