  ==> Input File <==

--------------------------------------------------------------------------
set {
	reference rhf
	basis 6-31G*
}

set_num_threads( 4 )
memory 2 gb

molecule MOL {
0 1

H	 -2.332162	 -0.403324	 -0.729841
O	 -2.035884	 -0.060112	 0.102722
C	 -0.955155	 0.788182	 -0.092531
C	 0.353668	 0.040312	 -0.004810
H	 -0.985057	 1.290372	 -1.054184
H	 -0.974469	 1.533190	 0.688632
F	 0.394464	 -0.937475	 -0.903053
F	 1.368604	 0.853376	 -0.249821
F	 0.546173	 -0.502608	 1.179981

	symmetry c1
}
set optking {
	frozen_dihedral = ("
		1 2 3 5
	")
}

ee = optimize('scf')
oeprop('DIPOLE', 'QUADRUPOLE', 'MULLIKEN_CHARGES')
f=open( 'psi4out.xyz', 'w' )
f.write( "9  " )
f.write( str(ee) + "\n" )
f.write( MOL.save_string_xyz() )
f.close()
--------------------------------------------------------------------------

    Molecular point group: c1
  Charge       = 0
  Multiplicity = 1
  Basis Set: 6-31G*
  Basis Set:
  @DF-RHF Final Energy:  -450.66176695874435
    Total Energy =                       -450.6617669587444084
    Molecular point group: c1
  Basis Set: 6-31G*
  Basis Set:
  Basis Set: 6-31G*
  Basis Set:
  @DF-RHF Final Energy:  -450.66188570227541
    Total Energy =                       -450.6618857022755265
  Basis Set: 6-31G*
  Basis Set:
  Basis Set: 6-31G*
  Basis Set:
  @DF-RHF Final Energy:  -450.66191779572057
    Total Energy =                       -450.6619177957207967
  Basis Set: 6-31G*
  Basis Set:
  Basis Set: 6-31G*
  Basis Set:
  @DF-RHF Final Energy:  -450.66191909049735
    Total Energy =                       -450.6619190904972925
  Basis Set: 6-31G*
  Basis Set:
  Charge       = 0
  Multiplicity = 1
  Basis Set: 6-31G*
  Basis Set:

    Orbital Energies (a.u.)
    -----------------------

    Doubly Occupied:

       1A    -26.339507     2A    -26.338421     3A    -26.335371
       4A    -20.590479     5A    -11.496111     6A    -11.310059
       7A     -1.736011     8A     -1.634503     9A     -1.632821
      10A     -1.402255    11A     -1.047179    12A     -0.920471
      13A     -0.826801    14A     -0.825089    15A     -0.796860
      16A     -0.732859    17A     -0.707940    18A     -0.697051
      19A     -0.662013    20A     -0.654189    21A     -0.638322
      22A     -0.630108    23A     -0.604479    24A     -0.533891
      25A     -0.479598

  @DF-RHF Final Energy:  -450.66191923474872

   => Energetics <=

    Nuclear Repulsion Energy =            276.8818083313028069
    One-Electron Energy =               -1175.9426771904854832
    Two-Electron Energy =                 448.3989496244339534
    DFT Exchange-Correlation Energy =       0.0000000000000000
    Empirical Dispersion Energy =           0.0000000000000000
    PCM Polarization Energy =               0.0000000000000000
    EFP Energy =                            0.0000000000000000
    Total Energy =                       -450.6619192347486660
    Molecular point group: c1
  Basis Set: 6-31G*
  Basis Set:

  -Total Gradient:
     Atom            X                  Y                   Z
    ------   -----------------  -----------------  -----------------
       1       -0.001424875597     0.001709208017    -0.000273480917
       2        0.002067775209    -0.002572899552     0.000084870241
       3       -0.001692177740     0.002362843685     0.000959400330
       4        0.000024451163     0.000060990851     0.000046698472
       5        0.001037467332    -0.001506440084    -0.000777004423
       6        0.000005263822    -0.000005184910    -0.000005898082
       7        0.000005001007    -0.000005390511    -0.000013951077
       8       -0.000024990780    -0.000038935325    -0.000011040151
       9        0.000002085595    -0.000004192173    -0.000009594396

  **** Optimization is complete! (in 5 steps) ****
    Final optimized geometry and variables:
    Molecular point group: c1

    Geometry (in Angstrom), charge = 0, multiplicity = 1:

    H           -2.318673393732    -0.427904893716    -0.706620343249
    O           -2.027089580486    -0.060488224276     0.115443106025
    C           -0.950487366295     0.792378197862    -0.093182394961
    C            0.353117519153     0.034243575771    -0.007364092411
    H           -0.975986413765     1.272035622642    -1.065341957338
    H           -0.954574995992     1.550691823191     0.676071176843
    F            0.406781128429    -0.922605823512    -0.923079747049
    F            1.372674530327     0.853170809248    -0.222894357155
    F            0.529898849440    -0.528800494384     1.170424671214

  Mulliken Charges: (a.u.)
   Center  Symbol    Alpha    Beta     Spin     Total
       1     H     0.27149  0.27149  0.00000  0.45703
       2     O     4.36122  4.36122  0.00000 -0.72244
       3     C     3.05812  3.05812  0.00000 -0.11625
       4     C     2.45882  2.45882  0.00000  1.08236
       5     H     0.40965  0.40965  0.00000  0.18070
       6     H     0.39689  0.39689  0.00000  0.20622
       7     F     4.68453  4.68453  0.00000 -0.36905
       8     F     4.68367  4.68367  0.00000 -0.36734
       9     F     4.67561  4.67561  0.00000 -0.35122

   Total alpha = 25.00000, Total beta = 25.00000, Total charge =  0.00000
