  ==> Input File <==

--------------------------------------------------------------------------
set {
	reference rhf
	basis cc-pvtz
}

set_num_threads( 4 )
memory 2 gb

molecule MOL {
0 1

O	 -0.694481	 1.313155	 -0.204815
C	 -0.862519	 0.151932	 -0.046791
C	 -2.171428	 -0.477048	 0.339095
O	 0.085519	 -0.757083	 -0.192238
H	 -2.467997	 -1.191667	 -0.417688
H	 -2.923379	 0.287970	 0.444097
H	 -2.053854	 -1.015120	 1.270901
C	 1.392036	 -0.330828	 -0.560749
C	 1.358815	 0.969693	 -1.336274
H	 1.873028	 -1.110850	 -1.129984
H	 1.913736	 -0.206574	 0.376343
H	 2.372122	 1.296529	 -1.540822
H	 0.845417	 0.844134	 -2.279693
H	 0.860374	 1.743356	 -0.764790

	symmetry c1
}
set optking {
	frozen_dihedral = ("
		10 8 4 2
	")
}

ee = optimize('scf')
oeprop('DIPOLE', 'QUADRUPOLE', 'MULLIKEN_CHARGES')
f=open( 'psi4out.xyz', 'w' )
f.write( "14  " )
f.write( str(ee) + "\n" )
f.write( MOL.save_string_xyz() )
f.close()
--------------------------------------------------------------------------

    Molecular point group: c1
  Charge       = 0
  Multiplicity = 1
  Basis Set: CC-PVTZ
  Basis Set:
  @DF-RHF Final Energy:  -305.95529118586143
    Total Energy =                       -305.9552911858615971
    Molecular point group: c1
  Basis Set: CC-PVTZ
  Basis Set:
  Basis Set: CC-PVTZ
  Basis Set:
  @DF-RHF Final Energy:  -305.97683036551462
    Total Energy =                       -305.9768303655146156
  Basis Set: CC-PVTZ
  Basis Set:
  Basis Set: CC-PVTZ
  Basis Set:
  @DF-RHF Final Energy:  -305.98092968773130
    Total Energy =                       -305.9809296877311908
  Basis Set: CC-PVTZ
  Basis Set:
  Basis Set: CC-PVTZ
  Basis Set:
  @DF-RHF Final Energy:  -305.97833373126849
    Total Energy =                       -305.9783337312685489
  Basis Set: CC-PVTZ
  Basis Set:
  @DF-RHF Final Energy:  -305.98250285911882
    Total Energy =                       -305.9825028591190517
  @DF-RHF Final Energy:  -305.98263956843164
    Total Energy =                       -305.9826395684318641
  @DF-RHF Final Energy:  -305.98265569609345
    Total Energy =                       -305.9826556960935591
  @DF-RHF Final Energy:  -305.98265987208413
    Total Energy =                       -305.9826598720839002
  @DF-RHF Final Energy:  -305.98266130370627
    Total Energy =                       -305.9826613037060952
  @DF-RHF Final Energy:  -305.98266274784123
    Total Energy =                       -305.9826627478410046
  @DF-RHF Final Energy:  -305.97948408916852
    Total Energy =                       -305.9794840891684089
  @DF-RHF Final Energy:  -305.97169025043002
    Total Energy =                       -305.9716902504297309
  @DF-RHF Final Energy:  -305.98237650514352
    Total Energy =                       -305.9823765051437476
  @DF-RHF Final Energy:  -305.98258050437067
    Total Energy =                       -305.9825805043705031
  @DF-RHF Final Energy:  -305.98263849540194
    Total Energy =                       -305.9826384954020000
  Basis Set: CC-PVTZ
  Basis Set:
  @DF-RHF Final Energy:  -305.98264932025563
    Total Energy =                       -305.9826493202559163
  Basis Set: CC-PVTZ
  Basis Set:
  Basis Set: CC-PVTZ
  Basis Set:
  @DF-RHF Final Energy:  -305.98266000510034
    Total Energy =                       -305.9826600051003425
  Basis Set: CC-PVTZ
  Basis Set:
  Basis Set: CC-PVTZ
  Basis Set:
  @DF-RHF Final Energy:  -305.98266321162112
    Total Energy =                       -305.9826632116208884
  Basis Set: CC-PVTZ
  Basis Set:
  Charge       = 0
  Multiplicity = 1
  Basis Set: CC-PVTZ
  Basis Set:

    Orbital Energies (a.u.)
    -----------------------

    Doubly Occupied:

       1A    -20.591842     2A    -20.530329     3A    -11.367807
       4A    -11.289034     5A    -11.229615     6A    -11.214206
       7A     -1.465572     8A     -1.365162     9A     -1.055715
      10A     -0.997558    11A     -0.892354    12A     -0.751206
      13A     -0.696232    14A     -0.683574    15A     -0.669865
      16A     -0.615887    17A     -0.587580    18A     -0.570351
      19A     -0.548993    20A     -0.533306    21A     -0.514424
      22A     -0.496959    23A     -0.451920    24A     -0.434191

  @DF-RHF Final Energy:  -305.98266365181627

   => Energetics <=

    Nuclear Repulsion Energy =            249.7290363834883351
    One-Electron Energy =                -912.3160301626917317
    Two-Electron Energy =                 356.6043301273874704
    DFT Exchange-Correlation Energy =       0.0000000000000000
    Empirical Dispersion Energy =           0.0000000000000000
    PCM Polarization Energy =               0.0000000000000000
    EFP Energy =                            0.0000000000000000
    Total Energy =                       -305.9826636518158693
    Molecular point group: c1
  Basis Set: CC-PVTZ
  Basis Set:

  -Total Gradient:
     Atom            X                  Y                   Z
    ------   -----------------  -----------------  -----------------
       1       -0.000013040954     0.000059608123     0.000004665783
       2       -0.001409102282    -0.000909961628    -0.005343643887
       3       -0.000011953849    -0.000003954979     0.000020406573
       4        0.001668785361     0.001611729834     0.007202392483
       5       -0.000007548087    -0.000010848124    -0.000005515904
       6        0.000006965052     0.000001566663    -0.000012477791
       7       -0.000002460629    -0.000004585953    -0.000003910043
       8        0.002130799849    -0.002815346132     0.003176771576
       9       -0.000148070588    -0.000022458945    -0.000010275543
      10       -0.002316598625     0.002017594431    -0.004994354874
      11        0.000011579409     0.000060143674    -0.000041475867
      12        0.000032615135    -0.000009224772    -0.000025961514
      13        0.000030786163     0.000002814226     0.000038152450
      14        0.000027244045     0.000022923581    -0.000004773440

  **** Optimization is complete! (in 19 steps) ****
    Final optimized geometry and variables:
    Molecular point group: c1

    Geometry (in Angstrom), charge = 0, multiplicity = 1:

    O           -0.691120643999     1.189148346208     0.359963111231
    C           -0.764259377446     0.008390422596     0.350499894109
    C           -2.041770996914    -0.760204129243     0.551315031053
    O            0.255760915871    -0.813460005202     0.189607445725
    H           -2.261106792386    -1.334287174153    -0.340088432179
    H           -2.847420013143    -0.074150775100     0.756389544973
    H           -1.924533599976    -1.457710618000     1.370072875903
    C            1.559833022891    -0.410946952124    -0.228930286580
    C            1.648376681052     0.767035586089    -1.185108148268
    H            1.926739955240    -1.280272141185    -0.753705854778
    H            2.159197706352    -0.241200600248     0.654832823625
    H            2.660932019936     0.788714889909    -1.574486508996
    H            0.973815180178     0.638513855497    -2.022992559444
    H            1.433169984478     1.709776607446    -0.713147863937

  Mulliken Charges: (a.u.)
   Center  Symbol    Alpha    Beta     Spin     Total
       1     O     4.19822  4.19822  0.00000 -0.39644
       2     C     2.80258  2.80258  0.00000  0.39483
       3     C     3.13802  3.13802  0.00000 -0.27604
       4     O     4.15615  4.15615  0.00000 -0.31231
       5     H     0.44753  0.44753  0.00000  0.10494
       6     H     0.43878  0.43878  0.00000  0.12244
       7     H     0.44467  0.44467  0.00000  0.11066
       8     C     2.97872  2.97872  0.00000  0.04257
       9     C     3.15489  3.15489  0.00000 -0.30977
      10     H     0.44951  0.44951  0.00000  0.10097
      11     H     0.45452  0.45452  0.00000  0.09096
      12     H     0.45137  0.45137  0.00000  0.09726
      13     H     0.45177  0.45177  0.00000  0.09645
      14     H     0.43326  0.43326  0.00000  0.13348

   Total alpha = 24.00000, Total beta = 24.00000, Total charge = -0.00000
