  ==> Input File <==

--------------------------------------------------------------------------
set {
	reference rhf
	basis 6-31G*
}

set_num_threads( 4 )
memory 2 gb

molecule MOL {
0 1

H	 2.591676	 2.013956	 0.335017
O	 3.341076	 1.666752	 -0.126416
C	 3.569581	 0.339145	 0.272707
C	 2.539767	 -0.640285	 -0.279495
H	 4.553106	 0.084646	 -0.100901
H	 3.608576	 0.269204	 1.359154
C	 1.242094	 -0.701069	 0.529960
H	 2.316612	 -0.363394	 -1.306578
H	 2.994204	 -1.629213	 -0.309081
C	 0.251116	 -1.731876	 -0.017962
H	 0.778078	 0.281290	 0.535056
H	 1.473361	 -0.944169	 1.567147
C	 -1.031112	 -1.894048	 0.806619
H	 -0.010069	 -1.468599	 -1.041346
H	 0.750169	 -2.697149	 -0.071750
C	 -1.950163	 -0.669416	 0.816535
H	 -1.587041	 -2.741444	 0.410790
H	 -0.769193	 -2.156827	 1.830427
C	 -3.262944	 -0.915346	 1.563235
H	 -2.170727	 -0.377773	 -0.209334
H	 -1.440995	 0.176985	 1.271131
C	 -4.179435	 0.307529	 1.580144
H	 -3.786321	 -1.751815	 1.105104
H	 -3.044342	 -1.216285	 2.585748
H	 -4.443040	 0.613876	 0.571736
H	 -5.101642	 0.101081	 2.114513
H	 -3.698221	 1.151973	 2.065645

	symmetry c1
}
set optking {
	frozen_dihedral = ("
		8 4 3 2
	")
}

ee = optimize('scf')
oeprop('DIPOLE', 'QUADRUPOLE', 'MULLIKEN_CHARGES')
f=open( 'psi4out.xyz', 'w' )
f.write( "27  " )
f.write( str(ee) + "\n" )
f.write( MOL.save_string_xyz() )
f.close()
--------------------------------------------------------------------------

    Molecular point group: c1
  Charge       = 0
  Multiplicity = 1
  Basis Set: 6-31G*
  Basis Set:
  @DF-RHF Final Energy:  -388.28023566560807
    Total Energy =                       -388.2802356656078473
    Molecular point group: c1
  Basis Set: 6-31G*
  Basis Set:
  Basis Set: 6-31G*
  Basis Set:
  @DF-RHF Final Energy:  -388.28040754457174
    Total Energy =                       -388.2804075445720855
  Basis Set: 6-31G*
  Basis Set:
  Basis Set: 6-31G*
  Basis Set:
  @DF-RHF Final Energy:  -388.28047825441820
    Total Energy =                       -388.2804782544184263
  Basis Set: 6-31G*
  Basis Set:
  Basis Set: 6-31G*
  Basis Set:
  @DF-RHF Final Energy:  -388.28048247175280
    Total Energy =                       -388.2804824717528618
  Basis Set: 6-31G*
  Basis Set:
  Charge       = 0
  Multiplicity = 1
  Basis Set: 6-31G*
  Basis Set:

    Orbital Energies (a.u.)
    -----------------------

    Doubly Occupied:

       1A    -20.552190     2A    -11.266689     3A    -11.220459
       4A    -11.217488     5A    -11.216546     6A    -11.216023
       7A    -11.215060     8A    -11.214875     9A    -11.209902
      10A     -1.358508    11A     -1.095649    12A     -1.061932
      13A     -1.011570    14A     -0.947854    15A     -0.887458
      16A     -0.820963    17A     -0.803164    18A     -0.778879
      19A     -0.691052    20A     -0.654212    21A     -0.640660
      22A     -0.611750    23A     -0.600226    24A     -0.582692
      25A     -0.579691    26A     -0.552636    27A     -0.539230
      28A     -0.533800    29A     -0.505422    30A     -0.497893
      31A     -0.485903    32A     -0.474194    33A     -0.467074
      34A     -0.461345    35A     -0.453449    36A     -0.441244
      37A     -0.423032

  @DF-RHF Final Energy:  -388.28048325856935

   => Energetics <=

    Nuclear Repulsion Energy =            458.6321440395124682
    One-Electron Energy =               -1435.2438215869951819
    Two-Electron Energy =                 588.3311942889135935
    DFT Exchange-Correlation Energy =       0.0000000000000000
    Empirical Dispersion Energy =           0.0000000000000000
    PCM Polarization Energy =               0.0000000000000000
    EFP Energy =                            0.0000000000000000
    Total Energy =                       -388.2804832585691202
    Molecular point group: c1
  Basis Set: 6-31G*
  Basis Set:

  -Total Gradient:
     Atom            X                  Y                   Z
    ------   -----------------  -----------------  -----------------
       1       -0.000001638560     0.000019480741    -0.000004543339
       2        0.001703571507    -0.000417572101    -0.002443509162
       3       -0.002970403817     0.001057966819     0.003558566057
       4        0.004162016199    -0.002815195154    -0.002282588376
       5        0.000006914671    -0.000019448688     0.000007854638
       6       -0.000002704011    -0.000013915047    -0.000002902837
       7       -0.000016355631     0.000014719292    -0.000011136458
       8       -0.002893104336     0.002180242771     0.001172693428
       9       -0.000005524420    -0.000006981465     0.000001656075
      10       -0.000001556818    -0.000014423218     0.000013719442
      11       -0.000029666169     0.000021018568     0.000023323365
      12        0.000026787704     0.000003004148    -0.000015124596
      13       -0.000012399857     0.000002176612    -0.000023250251
      14        0.000014780702    -0.000004210891     0.000002837830
      15       -0.000008668587    -0.000013116529     0.000005483252
      16        0.000005787384     0.000000319919     0.000004325482
      17       -0.000005477314    -0.000000725936    -0.000000575418
      18        0.000006735221     0.000002593852    -0.000006624780
      19       -0.000000334361     0.000000225219    -0.000000259180
      20        0.000004404046    -0.000002202301    -0.000001203604
      21        0.000016407808     0.000006692105     0.000001807395
      22        0.000000943235     0.000000045296    -0.000000093639
      23       -0.000000042563    -0.000000947468    -0.000000654215
      24       -0.000000670270     0.000000375814     0.000000246932
      25       -0.000000253573    -0.000000205647    -0.000000064053
      26        0.000000293173    -0.000000384167     0.000000010624
      27        0.000000158635     0.000000467458     0.000000005391

  **** Optimization is complete! (in 5 steps) ****
    Final optimized geometry and variables:
    Molecular point group: c1

    Geometry (in Angstrom), charge = 0, multiplicity = 1:

    H            2.381232270127     2.403788530973    -0.308028725668
    O            3.168036822774     2.091289518125    -0.731591493839
    C            3.460532485406     0.788880655207    -0.291464834935
    C            2.472212627643    -0.251749490210    -0.814483431289
    H            4.451108441788     0.577478836009    -0.673136362239
    H            3.519066292197     0.751028004766     0.795217151869
    C            1.161143402397    -0.303696265204    -0.022181182463
    H            2.246521053539    -0.001373620091    -1.847271125565
    H            2.940663735342    -1.233008821372    -0.802529427213
    C            0.161840893866    -1.312783211237    -0.593969362171
    H            0.711067095296     0.686816082873    -0.007784266455
    H            1.375932795781    -0.558530965014     1.014813769134
    C           -1.126665540860    -1.476808746793     0.220291452673
    H           -0.090489835554    -1.028907323844    -1.614108488515
    H            0.651295528206    -2.282188317065    -0.662571871685
    C           -2.029169566210    -0.240396919280     0.253846186671
    H           -1.691677647039    -2.307516171800    -0.197395193819
    H           -0.873456942925    -1.765964164963     1.239097640821
    C           -3.350314764557    -0.486219035418     0.985683598803
    H           -2.238732304621     0.079055000473    -0.766120511544
    H           -1.511529114179     0.587379727738     0.732653100755
    C           -4.250310005739     0.748287254389     1.026055859318
    H           -3.881692385309    -1.304175829415     0.503982191429
    H           -3.142866754046    -0.814576333480     2.002038467242
    H           -4.502744702042     1.082412162223     0.023616562052
    H           -5.178937292854     0.541599173780     1.549046189744
    H           -3.761205647870     1.574089492431     1.535191598812

  Mulliken Charges: (a.u.)
   Center  Symbol    Alpha    Beta     Spin     Total
       1     H     0.28133  0.28133  0.00000  0.43734
       2     O     4.37073  4.37073  0.00000 -0.74146
       3     C     2.99677  2.99677  0.00000  0.00645
       4     C     3.16580  3.16580  0.00000 -0.33160
       5     H     0.41435  0.41435  0.00000  0.17130
       6     H     0.43121  0.43121  0.00000  0.13757
       7     C     3.15948  3.15948  0.00000 -0.31897
       8     H     0.41243  0.41243  0.00000  0.17513
       9     H     0.42224  0.42224  0.00000  0.15552
      10     C     3.15241  3.15241  0.00000 -0.30481
      11     H     0.42849  0.42849  0.00000  0.14301
      12     H     0.42343  0.42343  0.00000  0.15314
      13     C     3.15345  3.15345  0.00000 -0.30690
      14     H     0.42194  0.42194  0.00000  0.15612
      15     H     0.42124  0.42124  0.00000  0.15751
      16     C     3.15249  3.15249  0.00000 -0.30498
      17     H     0.42117  0.42117  0.00000  0.15767
      18     H     0.42397  0.42397  0.00000  0.15205
      19     C     3.15122  3.15122  0.00000 -0.30243
      20     H     0.42395  0.42395  0.00000  0.15210
      21     H     0.42385  0.42385  0.00000  0.15230
      22     C     3.23920  3.23920  0.00000 -0.47840
      23     H     0.42274  0.42274  0.00000  0.15452
      24     H     0.42310  0.42310  0.00000  0.15381
      25     H     0.42156  0.42156  0.00000  0.15688
      26     H     0.41907  0.41907  0.00000  0.16185
      27     H     0.42237  0.42237  0.00000  0.15526

   Total alpha = 37.00000, Total beta = 37.00000, Total charge =  0.00000
