                              Psi4 1.0.54 Driver

  ==> Input File <==

--------------------------------------------------------------------------
set {
	reference rhf
	basis cc-pvtz
}

set_num_threads( 4 )
memory 2 gb

molecule MOL {
0 1

O	 0.623971	 1.347241	 -0.000777
C	 0.485107	 0.171416	 -0.000134
C	 1.606966	 -0.836201	 0.000174
O	 -0.695554	 -0.422406	 0.000602
C	 2.988788	 -0.202529	 -0.000115
H	 1.465110	 -1.474645	 -0.864821
H	 1.465209	 -1.474077	 0.865596
H	 3.131767	 0.419673	 -0.873407
H	 3.750876	 -0.972315	 0.000098
H	 3.131883	 0.420264	 0.872742
C	 -1.095043	 -1.104957	 -1.179576
C	 -2.463608	 -1.694657	 -0.931039
H	 -0.367914	 -1.871643	 -1.407224
H	 -1.107645	 -0.406439	 -2.004341
H	 -2.438854	 -2.391504	 -0.102689
H	 -2.799395	 -2.224364	 -1.814719
H	 -3.182819	 -0.917978	 -0.703273

	symmetry c1
}
set optking {
	frozen_dihedral = ("
		11 4 2 3
	")
}

ee,wfn = optimize('scf', return_wfn=True)
oeprop( wfn, 'DIPOLE', 'QUADRUPOLE', 'MULLIKEN_CHARGES')
f=open( 'psi4out.xyz', 'w' )
f.write( "17  " )
f.write( str(ee) + "\n" )
f.write( MOL.save_string_xyz() )
f.close()
--------------------------------------------------------------------------

    Molecular point group: c1
  Charge       = 0
  Multiplicity = 1
  Basis Set: CC-PVTZ
  Basis Set:
  @DF-RHF Final Energy:  -345.01790970441641
    Total Energy =                       -345.0179097044165246
    Molecular point group: c1
  Basis Set: CC-PVTZ
  Basis Set:
  Basis Set: CC-PVTZ
  Basis Set:
  @DF-RHF Final Energy:  -345.01867584425082
    Total Energy =                       -345.0186758442503105
  Basis Set: CC-PVTZ
  Basis Set:
  Basis Set: CC-PVTZ
  Basis Set:
  @DF-RHF Final Energy:  -345.02097771310639
    Total Energy =                       -345.0209777131062765
  Basis Set: CC-PVTZ
  Basis Set:
  Basis Set: CC-PVTZ
  Basis Set:
  @DF-RHF Final Energy:  -345.02078384385942
    Total Energy =                       -345.0207838438591352
  Basis Set: CC-PVTZ
  Basis Set:
  Basis Set: CC-PVTZ
  Basis Set:
  @DF-RHF Final Energy:  -345.02117241051906
    Total Energy =                       -345.0211724105192843
  Basis Set: CC-PVTZ
  Basis Set:
  Basis Set: CC-PVTZ
  Basis Set:
  @DF-RHF Final Energy:  -345.02118869913858
    Total Energy =                       -345.0211886991385200
  Basis Set: CC-PVTZ
  Basis Set:
  Charge       = 0
  Multiplicity = 1
  Basis Set: CC-PVTZ
  Basis Set:

    Orbital Energies (a.u.)
    -----------------------

    Doubly Occupied:

       1A    -20.577458     2A    -20.541618     3A    -11.366086
       4A    -11.295145     5A    -11.241563     6A    -11.223112
       7A    -11.217345     8A     -1.460098     9A     -1.368929
      10A     -1.064913    11A     -1.040407    12A     -0.903185
      13A     -0.870786    14A     -0.770988    15A     -0.703916
      16A     -0.687933    17A     -0.658252    18A     -0.640748
      19A     -0.603050    20A     -0.563593    21A     -0.558984
      22A     -0.535849    23A     -0.527598    24A     -0.519593
      25A     -0.508529    26A     -0.488390    27A     -0.454011
      28A     -0.436678

  @DF-RHF Final Energy:  -345.02118965704852

   => Energetics <=

    Nuclear Repulsion Energy =            314.9593708531204470
    One-Electron Energy =               -1094.3036065652117941
    Two-Electron Energy =                 434.3230460550430507
    DFT Exchange-Correlation Energy =       0.0000000000000000
    Empirical Dispersion Energy =           0.0000000000000000
    PCM Polarization Energy =               0.0000000000000000
    EFP Energy =                            0.0000000000000000
    Total Energy =                       -345.0211896570483532
    Molecular point group: c1
  Basis Set: CC-PVTZ
  Basis Set:

  -Total Gradient:
     Atom            X                  Y                   Z
    ------   -----------------  -----------------  -----------------
       1        0.000022356222    -0.000040040885    -0.000010460279
       2       -0.000567037557     0.000653890622    -0.001830682669
       3        0.000082677463    -0.000028338365     0.001154428528
       4        0.001097485882    -0.001621498779     0.000994804175
       5       -0.000031546700    -0.000013191440    -0.000009016326
       6        0.000020760514    -0.000024429796     0.000001499557
       7        0.000006311939     0.000008136213    -0.000011636437
       8       -0.000006118110    -0.000012783322     0.000006481527
       9       -0.000020649935    -0.000004433688    -0.000004676098
      10       -0.000011007895    -0.000000822262     0.000003109021
      11       -0.000601758227     0.001068405046    -0.000354997874
      12        0.000002889790    -0.000008130563     0.000030166893
      13       -0.000005041834     0.000000463184    -0.000002863518
      14        0.000013441454     0.000006288484     0.000035111389
      15       -0.000009637281     0.000004655430    -0.000013801179
      16        0.000014670471     0.000006341539     0.000010757495
      17       -0.000007796197     0.000005488579     0.000001775791

  **** Optimization is complete! (in 7 steps) ****
    Final optimized geometry and variables:
    Molecular point group: c1

    Geometry (in Angstrom), charge = 0, multiplicity = 1:

    O            0.352985194154     1.657955590757     0.466822432031
    C            0.311887227673     0.493461217174     0.305651024332
    C            1.532109078428    -0.386242079054     0.167167044317
    O           -0.864326754594    -0.160285344698     0.321134249992
    C            2.844099095753     0.375517733772     0.268337359092
    H            1.469390486199    -0.912902023085    -0.779141694740
    H            1.456569687388    -1.148172915591     0.935873558921
    H            2.919725126490     1.124396716273    -0.508536785797
    H            3.679570165255    -0.306799466285     0.169176274596
    H            2.926058992246     0.881776016992     1.220436067050
    C           -1.333923950382    -0.774583763274    -0.864846082613
    C           -2.764683884329    -1.201582485718    -0.633497860766
    H           -0.718776594217    -1.632478632568    -1.111458424488
    H           -1.275399353669    -0.064807932172    -1.682819329865
    H           -2.823008562851    -1.900904199695     0.190754820451
    H           -3.154908227527    -1.682486272576    -1.522910760251
    H           -3.382787556838    -0.344727184436    -0.401104138707

  Mulliken Charges: (a.u.)
   Center  Symbol    Alpha    Beta     Spin     Total
       1     O     4.16865  4.16865  0.00000 -0.33729
       2     C     2.80243  2.80243  0.00000  0.39514
       3     C     3.11314  3.11314  0.00000 -0.22628
       4     O     4.16055  4.16055  0.00000 -0.32109
       5     C     3.13866  3.13866  0.00000 -0.27732
       6     H     0.44621  0.44621  0.00000  0.10758
       7     H     0.43818  0.43818  0.00000  0.12364
       8     H     0.44811  0.44811  0.00000  0.10377
       9     H     0.45108  0.45108  0.00000  0.09784
      10     H     0.44561  0.44561  0.00000  0.10877
      11     C     2.98214  2.98214  0.00000  0.03572
      12     C     3.13303  3.13303  0.00000 -0.26606
      13     H     0.46129  0.46129  0.00000  0.07742
      14     H     0.45911  0.45911  0.00000  0.08179
      15     H     0.44959  0.44959  0.00000  0.10083
      16     H     0.45716  0.45716  0.00000  0.08568
      17     H     0.44506  0.44506  0.00000  0.10988

   Total alpha = 28.00000, Total beta = 28.00000, Total charge = -0.00000

*** Psi4 exiting successfully. Buy a developer a beer!
