                              Psi4 1.0.54 Driver

  ==> Input File <==

--------------------------------------------------------------------------
set {
	reference rhf
	basis cc-pvtz
}

set_num_threads( 4 )
memory 2 gb

molecule MOL {
0 1

O	 -0.938708	 2.214530	 1.735023
C	 -0.882018	 1.984697	 0.570808
C	 0.365834	 1.386619	 -0.048236
C	 -2.049662	 2.256192	 -0.347705
C	 0.376695	 -0.140025	 0.100361
H	 1.220654	 1.807688	 0.465666
H	 0.431547	 1.655609	 -1.097136
C	 1.630207	 -0.772146	 -0.501001
H	 0.299029	 -0.379257	 1.153435
H	 -0.501790	 -0.561517	 -0.382244
C	 2.907848	 -0.545876	 0.309149
H	 1.772784	 -0.391628	 -1.509394
H	 1.468529	 -1.842059	 -0.599744
C	 3.373802	 0.906639	 0.372125
H	 3.699140	 -1.146831	 -0.127906
H	 2.764321	 -0.923458	 1.318191
H	 3.519798	 1.311927	 -0.623875
H	 4.316899	 0.983758	 0.900700
H	 2.661122	 1.540651	 0.885346
H	 -1.789997	 3.062775	 -1.025935
H	 -2.918737	 2.535361	 0.227918
H	 -2.269557	 1.385426	 -0.955160

	symmetry c1
}
set optking {
	frozen_dihedral = ("
		3 5 8 12
	")
}

ee,wfn = optimize('scf', return_wfn=True)
oeprop( wfn, 'DIPOLE', 'QUADRUPOLE', 'MULLIKEN_CHARGES')
f=open( 'psi4out.xyz', 'w' )
f.write( "22  " )
f.write( str(ee) + "\n" )
f.write( MOL.save_string_xyz() )
f.close()
--------------------------------------------------------------------------

    Molecular point group: c1
  Charge       = 0
  Multiplicity = 1
  Basis Set: CC-PVTZ
  Basis Set:
  @DF-RHF Final Energy:  -348.20900670165076
    Total Energy =                       -348.2090067016509920
    Molecular point group: c1
  Basis Set: CC-PVTZ
  Basis Set:
  Basis Set: CC-PVTZ
  Basis Set:
  @DF-RHF Final Energy:  -348.21686036471306
    Total Energy =                       -348.2168603647129430
  Basis Set: CC-PVTZ
  Basis Set:
  Basis Set: CC-PVTZ
  Basis Set:
  @DF-RHF Final Energy:  -348.21810843853700
    Total Energy =                       -348.2181084385372287
  Basis Set: CC-PVTZ
  Basis Set:
  Basis Set: CC-PVTZ
  Basis Set:
  @DF-RHF Final Energy:  -348.21825859950906
    Total Energy =                       -348.2182585995091131
  Basis Set: CC-PVTZ
  Basis Set:
  @DF-RHF Final Energy:  -348.21761296942520
    Total Energy =                       -348.2176129694254314
  @DF-RHF Final Energy:  -348.21848464735189
    Total Energy =                       -348.2184846473520565
  @DF-RHF Final Energy:  -348.21850696095896
    Total Energy =                       -348.2185069609583934
  @DF-RHF Final Energy:  -348.21854090970163
    Total Energy =                       -348.2185409097020283
  Basis Set: CC-PVTZ
  Basis Set:
  @DF-RHF Final Energy:  -348.21855640506112
    Total Energy =                       -348.2185564050608946
  Basis Set: CC-PVTZ
  Basis Set:
  Basis Set: CC-PVTZ
  Basis Set:
  @DF-RHF Final Energy:  -348.21856615484336
    Total Energy =                       -348.2185661548433018
  Basis Set: CC-PVTZ
  Basis Set:
  Basis Set: CC-PVTZ
  Basis Set:
  @DF-RHF Final Energy:  -348.21856964376934
    Total Energy =                       -348.2185696437691149
  Basis Set: CC-PVTZ
  Basis Set:
  Charge       = 0
  Multiplicity = 1
  Basis Set: CC-PVTZ
  Basis Set:

    Orbital Energies (a.u.)
    -----------------------

    Doubly Occupied:

       1A    -20.536819     2A    -11.319144     3A    -11.229128
       4A    -11.227010     5A    -11.226862     6A    -11.221554
       7A    -11.218881     8A    -11.210339     9A     -1.396889
      10A     -1.095298    11A     -1.043755    12A     -0.999734
      13A     -0.945769    14A     -0.856575    15A     -0.785997
      16A     -0.736068    17A     -0.658351    18A     -0.654557
      19A     -0.625046    20A     -0.611063    21A     -0.597552
      22A     -0.595450    23A     -0.556801    24A     -0.552587
      25A     -0.531900    26A     -0.528939    27A     -0.497597
      28A     -0.490824    29A     -0.471950    30A     -0.465326
      31A     -0.455135    32A     -0.398081

  @DF-RHF Final Energy:  -348.21857011666958

   => Energetics <=

    Nuclear Repulsion Energy =            378.2382739691565234
    One-Electron Energy =               -1221.4317279033186878
    Two-Electron Energy =                 494.9748838174925822
    DFT Exchange-Correlation Energy =       0.0000000000000000
    Empirical Dispersion Energy =           0.0000000000000000
    PCM Polarization Energy =               0.0000000000000000
    EFP Energy =                            0.0000000000000000
    Total Energy =                       -348.2185701166695253
    Molecular point group: c1
  Basis Set: CC-PVTZ
  Basis Set:

  -Total Gradient:
     Atom            X                  Y                   Z
    ------   -----------------  -----------------  -----------------
       1        0.000002188717     0.000001906514    -0.000013544274
       2        0.000016084181     0.000000029766    -0.000021563802
       3       -0.000299777462    -0.000050207318    -0.000606107474
       4       -0.000009718712    -0.000006969644    -0.000000857491
       5        0.000586392965     0.000239600668     0.001030017473
       6        0.000011484290     0.000004467253    -0.000007294942
       7       -0.000012618360    -0.000001944495     0.000010043448
       8       -0.000736021815    -0.000903220061    -0.000784096327
       9       -0.000005695562     0.000005872508    -0.000000860580
      10        0.000009164775    -0.000018139909    -0.000002416891
      11       -0.000026339528    -0.000004882114     0.000000535894
      12        0.000514240627     0.000727428112     0.000405533486
      13        0.000014768154    -0.000002256162     0.000001930863
      14       -0.000015677763     0.000033834303    -0.000000131269
      15       -0.000026611691    -0.000004050727     0.000004613197
      16       -0.000000079115     0.000008452202    -0.000023554802
      17       -0.000020168395    -0.000001319150     0.000053573263
      18       -0.000034644439     0.000002302290    -0.000027208443
      19        0.000043211046    -0.000039563185    -0.000026781326
      20       -0.000001856131    -0.000003334290     0.000005664455
      21       -0.000009457047     0.000003666063    -0.000002529122
      22        0.000001131265     0.000008327375     0.000005034668

  **** Optimization is complete! (in 12 steps) ****
    Final optimized geometry and variables:
    Molecular point group: c1

    Geometry (in Angstrom), charge = 0, multiplicity = 1:

    O           -1.914147020573     1.105879519096     1.454862759699
    C           -1.669814047332     0.977946728891     0.299283462519
    C           -0.286743136722     0.566661610518    -0.166053794989
    C           -2.721054721705     1.203200696926    -0.761528004635
    C           -0.148898848692    -0.962522561135    -0.141203924792
    H            0.423974647881     1.025630280258     0.504355967977
    H           -0.103358470815     0.936233784948    -1.169465414133
    C            1.140084353680    -1.529677736834    -0.747043736615
    H           -0.254282793828    -1.304917853793     0.882300648944
    H           -0.983176901907    -1.389709349218    -0.690980855235
    C            2.422605152769    -1.384338288119     0.084815645457
    H            1.300879082612    -1.096217649252    -1.731250955866
    H            0.970634484369    -2.589207279229    -0.907634198484
    C            3.157980575420    -0.051242372969    -0.042946317262
    H            3.106585830735    -2.168607902242    -0.223451096089
    H            2.197477611384    -1.578789114701     1.129622506782
    H            3.393269123399     0.162431302338    -1.080444706075
    H            4.092784690653    -0.081356135591     0.505041889643
    H            2.584936650017     0.780508299160     0.343248693572
    H           -2.471115500033     2.097911943683    -1.322917145532
    H           -3.690769498246     1.325657389424    -0.304102670316
    H           -2.742367288647     0.379045334603    -1.465327952190

  Mulliken Charges: (a.u.)
   Center  Symbol    Alpha    Beta     Spin     Total
       1     O     4.17715  4.17715  0.00000 -0.35431
       2     C     2.85817  2.85817  0.00000  0.28365
       3     C     3.10776  3.10776  0.00000 -0.21551
       4     C     3.15475  3.15475  0.00000 -0.30949
       5     C     3.10477  3.10477  0.00000 -0.20953
       6     H     0.43518  0.43518  0.00000  0.12965
       7     H     0.44685  0.44685  0.00000  0.10631
       8     C     3.10262  3.10262  0.00000 -0.20525
       9     H     0.44052  0.44052  0.00000  0.11896
      10     H     0.44576  0.44576  0.00000  0.10848
      11     C     3.09030  3.09030  0.00000 -0.18059
      12     H     0.45391  0.45391  0.00000  0.09218
      13     H     0.44309  0.44309  0.00000  0.11383
      14     C     3.15236  3.15236  0.00000 -0.30473
      15     H     0.44743  0.44743  0.00000  0.10515
      16     H     0.45154  0.45154  0.00000  0.09692
      17     H     0.45441  0.45441  0.00000  0.09119
      18     H     0.44509  0.44509  0.00000  0.10982
      19     H     0.45354  0.45354  0.00000  0.09292
      20     H     0.44808  0.44808  0.00000  0.10384
      21     H     0.43603  0.43603  0.00000  0.12794
      22     H     0.45071  0.45071  0.00000  0.09858

   Total alpha = 32.00000, Total beta = 32.00000, Total charge = -0.00000

*** Psi4 exiting successfully. Buy a developer a beer!
