                              Psi4 1.0.54 Driver

  ==> Input File <==

--------------------------------------------------------------------------
set {
	reference rhf
	basis cc-pvtz
}

set_num_threads( 4 )
memory 2 gb

molecule MOL {
0 1

H	 3.854789	 0.367050	 0.600552
N	 3.048199	 -0.219903	 0.623263
C	 1.837324	 0.543492	 0.365448
H	 3.017081	 -0.642776	 1.527453
C	 0.620283	 -0.368304	 0.318917
H	 1.953354	 1.034423	 -0.594984
H	 1.667676	 1.331064	 1.100911
C	 -0.678115	 0.376691	 0.025731
H	 0.789861	 -1.132271	 -0.432750
H	 0.529940	 -0.888050	 1.270854
C	 -1.900706	 -0.535531	 -0.022488
H	 -0.586165	 0.899425	 -0.923610
H	 -0.835521	 1.143855	 0.780420
C	 -3.220513	 0.226854	 0.028039
H	 -1.865036	 -1.134397	 -0.928236
H	 -1.857948	 -1.236381	 0.806820
H	 -3.309098	 0.911849	 -0.808725
H	 -4.066838	 -0.449485	 -0.008086
H	 -3.301685	 0.809374	 0.939860

	symmetry c1
}
set optking {
	frozen_dihedral = ("
		12 8 11 15
	")
}

ee,wfn = optimize('scf', return_wfn=True)
oeprop( wfn, 'DIPOLE', 'QUADRUPOLE', 'MULLIKEN_CHARGES')
f=open( 'psi4out.xyz', 'w' )
f.write( "19  " )
f.write( str(ee) + "\n" )
f.write( MOL.save_string_xyz() )
f.close()
--------------------------------------------------------------------------

    Molecular point group: c1
  Charge       = 0
  Multiplicity = 1
  Basis Set: CC-PVTZ
  Basis Set:
  @DF-RHF Final Energy:  -251.44737441436880
    Total Energy =                       -251.4473744143691647
    Molecular point group: c1
  Basis Set: CC-PVTZ
  Basis Set:
  Basis Set: CC-PVTZ
  Basis Set:
  @DF-RHF Final Energy:  -251.44747002355234
    Total Energy =                       -251.4474700235522846
  Basis Set: CC-PVTZ
  Basis Set:
  Basis Set: CC-PVTZ
  Basis Set:
  @DF-RHF Final Energy:  -251.44749663295994
    Total Energy =                       -251.4474966329597692
  Basis Set: CC-PVTZ
  Basis Set:
  Charge       = 0
  Multiplicity = 1
  Basis Set: CC-PVTZ
  Basis Set:

    Orbital Energies (a.u.)
    -----------------------

    Doubly Occupied:

       1A    -15.526357     2A    -11.237832     3A    -11.211921
       4A    -11.210513     5A    -11.207571     6A    -11.205357
       7A     -1.178102     8A     -1.074019     9A     -0.999472
      10A     -0.900700    11A     -0.813301    12A     -0.789331
      13A     -0.665281    14A     -0.644565    15A     -0.617650
      16A     -0.589633    17A     -0.564760    18A     -0.552127
      19A     -0.528174    20A     -0.499498    21A     -0.481147
      22A     -0.464530    23A     -0.461637    24A     -0.450431
      25A     -0.383722

  @DF-RHF Final Energy:  -251.44749685137589

   => Energetics <=

    Nuclear Repulsion Energy =            246.0694529829737576
    One-Electron Energy =                -826.5186393704439070
    Two-Electron Energy =                 329.0016895360942613
    DFT Exchange-Correlation Energy =       0.0000000000000000
    Empirical Dispersion Energy =           0.0000000000000000
    PCM Polarization Energy =               0.0000000000000000
    EFP Energy =                            0.0000000000000000
    Total Energy =                       -251.4474968513758881
    Molecular point group: c1
  Basis Set: CC-PVTZ
  Basis Set:

  -Total Gradient:
     Atom            X                  Y                   Z
    ------   -----------------  -----------------  -----------------
       1        0.000003168207    -0.000000787579    -0.000003371124
       2        0.000003396898     0.000000027573    -0.000017804390
       3        0.000004118740     0.000012857491     0.000019644444
       4       -0.000007677055     0.000004212836    -0.000000506489
       5       -0.000018210899     0.000013040086     0.000030988207
       6        0.000009212204     0.000002625247    -0.000002043447
       7        0.000005879763    -0.000001525042     0.000000928685
       8       -0.002140007679     0.002788755483     0.000782839280
       9       -0.000009803806    -0.000007287789     0.000006713118
      10        0.000013071690    -0.000009956633     0.000004561438
      11        0.001947575981    -0.002730827523     0.001385082372
      12        0.001487033197    -0.001923619789    -0.000901150925
      13        0.000009329151    -0.000015315533    -0.000002558642
      14       -0.000006730647     0.000007850768     0.000006462869
      15       -0.001294603764     0.001848557644    -0.001301231060
      16        0.000008038191     0.000007569103    -0.000006078334
      17       -0.000002477801     0.000002222636     0.000002403868
      18       -0.000005386074     0.000001594841     0.000000503787
      19       -0.000005926296     0.000000006181    -0.000005383657

  **** Optimization is complete! (in 4 steps) ****
    Final optimized geometry and variables:
    Molecular point group: c1

    Geometry (in Angstrom), charge = 0, multiplicity = 1:

    H            3.876744759032     0.324266342788     0.354158095267
    N            3.063723921426    -0.252975062011     0.392360119641
    C            1.859598038665     0.519755359865     0.130984196276
    H            3.034706910772    -0.660378135903     1.303699805829
    C            0.631814016005    -0.378433609751     0.109347424460
    H            1.973625831090     0.993204346161    -0.838437932814
    H            1.704600386391     1.321654883127     0.854267383738
    C           -0.661977404422     0.377645927162    -0.181605776569
    H            0.784873629154    -1.154957484291    -0.633237612660
    H            0.545085085037    -0.883818201176     1.069190050105
    C           -1.884708633263    -0.535092413620    -0.260367962658
    H           -0.550698857866     0.901308152859    -1.127986933753
    H           -0.820043624109     1.134742004646     0.582016072173
    C           -3.202653963715     0.234362619149    -0.269233545213
    H           -1.825662749858    -1.129930892481    -1.167143417859
    H           -1.878516073185    -1.229545516534     0.574443462152
    H           -3.243263680309     0.930403379596    -1.100825939751
    H           -4.049402358048    -0.436562446784    -0.359297015356
    H           -3.328912622335     0.806016605868     0.644200908358

  Mulliken Charges: (a.u.)
   Center  Symbol    Alpha    Beta     Spin     Total
       1     H     0.43025  0.43025  0.00000  0.13951
       2     N     3.68906  3.68906  0.00000 -0.37812
       3     C     3.02714  3.02714  0.00000 -0.05427
       4     H     0.43099  0.43099  0.00000  0.13801
       5     C     3.08160  3.08160  0.00000 -0.16321
       6     H     0.45714  0.45714  0.00000  0.08573
       7     H     0.46869  0.46869  0.00000  0.06262
       8     C     3.09351  3.09351  0.00000 -0.18702
       9     H     0.44909  0.44909  0.00000  0.10181
      10     H     0.46031  0.46031  0.00000  0.07937
      11     C     3.08327  3.08327  0.00000 -0.16653
      12     H     0.45441  0.45441  0.00000  0.09119
      13     H     0.45686  0.45686  0.00000  0.08628
      14     C     3.14956  3.14956  0.00000 -0.29911
      15     H     0.45323  0.45323  0.00000  0.09355
      16     H     0.45500  0.45500  0.00000  0.09001
      17     H     0.45522  0.45522  0.00000  0.08956
      18     H     0.44883  0.44883  0.00000  0.10234
      19     H     0.45586  0.45586  0.00000  0.08827

   Total alpha = 25.00000, Total beta = 25.00000, Total charge = -0.00000

*** Psi4 exiting successfully. Buy a developer a beer!
