                              Psi4 1.0.54 Driver

  ==> Input File <==

--------------------------------------------------------------------------
set {
	reference rhf
	basis cc-pvtz
}

set_num_threads( 4 )
memory 2 gb

molecule MOL {
0 1

H	 -0.000105	 1.988529	 0.748933
O	 -0.000098	 1.879786	 -0.188206
C	 -0.000014	 0.545691	 -0.532416
C	 -1.286000	 -0.125171	 -0.046657
C	 1.286016	 -0.125031	 -0.046584
H	 0.000021	 0.481103	 -1.610604
F	 -0.980903	 -1.133413	 0.732588
F	 -2.047605	 0.693182	 0.634495
F	 -1.989370	 -0.597459	 -1.053429
F	 2.317750	 0.468717	 -0.594166
F	 1.336617	 -1.393765	 -0.365123
F	 1.414467	 -0.024806	 1.259108

	symmetry c1
}
set optking {
	frozen_dihedral = ("
		7 4 3 6
	")
}

ee,wfn = optimize('scf', return_wfn=True)
oeprop( wfn, 'DIPOLE', 'QUADRUPOLE', 'MULLIKEN_CHARGES')
f=open( 'psi4out.xyz', 'w' )
f.write( "12  " )
f.write( str(ee) + "\n" )
f.write( MOL.save_string_xyz() )
f.close()
--------------------------------------------------------------------------

    Molecular point group: c1
  Charge       = 0
  Multiplicity = 1
  Basis Set: CC-PVTZ
  Basis Set:
  @DF-RHF Final Energy:  -786.58159812210420
    Total Energy =                       -786.5815981221051061
    Molecular point group: c1
  Basis Set: CC-PVTZ
  Basis Set:
  Basis Set: CC-PVTZ
  Basis Set:
  @DF-RHF Final Energy:  -786.58297039497211
    Total Energy =                       -786.5829703949716531
  Basis Set: CC-PVTZ
  Basis Set:
  Basis Set: CC-PVTZ
  Basis Set:
  @DF-RHF Final Energy:  -786.58350816089649
    Total Energy =                       -786.5835081608963719
  Basis Set: CC-PVTZ
  Basis Set:
  Basis Set: CC-PVTZ
  Basis Set:
  @DF-RHF Final Energy:  -786.58357180688381
    Total Energy =                       -786.5835718068840379
  Basis Set: CC-PVTZ
  Basis Set:
  Basis Set: CC-PVTZ
  Basis Set:
  @DF-RHF Final Energy:  -786.58358652265986
    Total Energy =                       -786.5835865226605392
  Basis Set: CC-PVTZ
  Basis Set:
  Basis Set: CC-PVTZ
  Basis Set:
  @DF-RHF Final Energy:  -786.58358918402200
    Total Energy =                       -786.5835891840218892
  Basis Set: CC-PVTZ
  Basis Set:
  Charge       = 0
  Multiplicity = 1
  Basis Set: CC-PVTZ
  Basis Set:

    Orbital Energies (a.u.)
    -----------------------

    Doubly Occupied:

       1A    -26.358402     2A    -26.356787     3A    -26.356252
       4A    -26.355798     5A    -26.355783     6A    -26.351911
       7A    -20.608763     8A    -11.522595     9A    -11.517185
      10A    -11.351809    11A     -1.772142    12A     -1.765404
      13A     -1.665634    14A     -1.664134    15A     -1.663661
      16A     -1.658989    17A     -1.438735    18A     -1.100202
      19A     -1.000643    20A     -0.943921    21A     -0.872458
      22A     -0.865673    23A     -0.857733    24A     -0.853535
      25A     -0.841521    26A     -0.819748    27A     -0.739763
      28A     -0.736873    29A     -0.735705    30A     -0.730112
      31A     -0.694676    32A     -0.691406    33A     -0.688615
      34A     -0.684125    35A     -0.674745    36A     -0.668831
      37A     -0.662393    38A     -0.654442    39A     -0.622443
      40A     -0.552056    41A     -0.509003

  @DF-RHF Final Energy:  -786.58358952423737

   => Energetics <=

    Nuclear Repulsion Energy =            669.6165626001391047
    One-Electron Energy =               -2426.4710867094531750
    Two-Electron Energy =                 970.2709345850769296
    DFT Exchange-Correlation Energy =       0.0000000000000000
    Empirical Dispersion Energy =           0.0000000000000000
    PCM Polarization Energy =               0.0000000000000000
    EFP Energy =                            0.0000000000000000
    Total Energy =                       -786.5835895242371407
    Molecular point group: c1
  Basis Set: CC-PVTZ
  Basis Set:

  -Total Gradient:
     Atom            X                  Y                   Z
    ------   -----------------  -----------------  -----------------
       1       -0.000001920979     0.000007891413     0.000007289988
       2       -0.000001325806    -0.000026205676     0.000023462928
       3        0.000173651421    -0.000294546868     0.000080937820
       4        0.000025240871    -0.000270241174    -0.000300822939
       5        0.000033617611    -0.000010580679    -0.000029483702
       6       -0.000157091636     0.000323841447    -0.000045295675
       7       -0.000015484775     0.000216602731     0.000240841600
       8       -0.000006432649     0.000059419649     0.000018254223
       9        0.000006276294    -0.000011422274    -0.000017209401
      10       -0.000002937173     0.000045691721    -0.000015522129
      11       -0.000023013752    -0.000035582686     0.000006398831
      12       -0.000030579422    -0.000004867601     0.000031148464

  **** Optimization is complete! (in 7 steps) ****
    Final optimized geometry and variables:
    Molecular point group: c1

    Geometry (in Angstrom), charge = 0, multiplicity = 1:

    H            0.026774832233     2.054272628000     0.707785603639
    O            0.100072178135     1.905493591528    -0.220080534432
    C            0.019633142225     0.567039733502    -0.527877096172
    C           -1.294254946998    -0.083752163732    -0.014000034690
    C            1.280927142470    -0.159889923059    -0.064937553699
    H            0.002494364513     0.491141041806    -1.603758605597
    F           -1.090673262647    -1.105638245616     0.782672079350
    F           -2.014144517999     0.787835834462     0.650645548327
    F           -2.013198605591    -0.509551616384    -1.026397647437
    F            2.331599591234     0.392882867049    -0.618552055530
    F            1.264503715309    -1.423978001439    -0.411718995431
    F            1.432126153580    -0.085098948045     1.239451774228

  Mulliken Charges: (a.u.)
   Center  Symbol    Alpha    Beta     Spin     Total
       1     H     0.38239  0.38239  0.00000  0.23523
       2     O     4.18354  4.18354  0.00000 -0.36707
       3     C     3.02246  3.02246  0.00000 -0.04491
       4     C     2.67377  2.67377  0.00000  0.65246
       5     C     2.67822  2.67822  0.00000  0.64355
       6     H     0.42834  0.42834  0.00000  0.14331
       7     F     4.60209  4.60209  0.00000 -0.20418
       8     F     4.60532  4.60532  0.00000 -0.21064
       9     F     4.60496  4.60496  0.00000 -0.20993
      10     F     4.60157  4.60157  0.00000 -0.20313
      11     F     4.60588  4.60588  0.00000 -0.21175
      12     F     4.61147  4.61147  0.00000 -0.22294

   Total alpha = 41.00000, Total beta = 41.00000, Total charge = -0.00000

*** Psi4 exiting successfully. Buy a developer a beer!
