  ==> Input File <==

--------------------------------------------------------------------------
set {
	reference rhf
	basis cc-pvtz
}

set_num_threads( 4 )
memory 2 gb

molecule MOL {
0 1

H	 1.651322	 -0.822465	 0.000000
O	 0.729993	 -1.034364	 0.000000
C	 0.037305	 0.100061	 0.000000
C	 0.337526	 0.942007	 1.203774
O	 -0.718456	 0.380156	 -0.864388
H	 0.102395	 0.385360	 2.101731
H	 -0.242976	 1.848742	 1.164092
H	 1.394386	 1.174259	 1.227736

	symmetry c1
}
set optking {
	frozen_dihedral = ("
		4 3 2 1
	")
}

ee = optimize('scf')
oeprop('DIPOLE', 'QUADRUPOLE', 'MULLIKEN_CHARGES')
f=open( 'psi4out.xyz', 'w' )
f.write( "8  " )
f.write( str(ee) + "\n" )
f.write( MOL.save_string_xyz() )
f.close()
--------------------------------------------------------------------------

    Molecular point group: c1
  Charge       = 0
  Multiplicity = 1
  Basis Set: CC-PVTZ
  Basis Set:
  @DF-RHF Final Energy:  -227.88498423088805
    Total Energy =                       -227.8849842308881080
    Molecular point group: c1
  Basis Set: CC-PVTZ
  Basis Set:
  Basis Set: CC-PVTZ
  Basis Set:
  @DF-RHF Final Energy:  -227.88501114564539
    Total Energy =                       -227.8850111456454215
  Basis Set: CC-PVTZ
  Basis Set:
  Basis Set: CC-PVTZ
  Basis Set:
  @DF-RHF Final Energy:  -227.88638353649841
    Total Energy =                       -227.8863835364984993
  Basis Set: CC-PVTZ
  Basis Set:
  Basis Set: CC-PVTZ
  Basis Set:
  @DF-RHF Final Energy:  -227.88700551461980
    Total Energy =                       -227.8870055146197728
  Basis Set: CC-PVTZ
  Basis Set:
  @DF-RHF Final Energy:  -227.88706905583695
    Total Energy =                       -227.8870690558369461
  Basis Set: CC-PVTZ
  Basis Set:
  @DF-RHF Final Energy:  -227.88708429060938
    Total Energy =                       -227.8870842906093230
  Basis Set: CC-PVTZ
  Basis Set:
  Basis Set: CC-PVTZ
  Basis Set:
  @DF-RHF Final Energy:  -227.88709271686349
    Total Energy =                       -227.8870927168634353
  Basis Set: CC-PVTZ
  Basis Set:
  Basis Set: CC-PVTZ
  Basis Set:
  @DF-RHF Final Energy:  -227.88709323985961
    Total Energy =                       -227.8870932398595528
  Basis Set: CC-PVTZ
  Basis Set:
  Charge       = 0
  Multiplicity = 1
  Basis Set: CC-PVTZ
  Basis Set:

    Orbital Energies (a.u.)
    -----------------------

    Doubly Occupied:

       1A    -20.595205     2A    -20.547959     3A    -11.378420
       4A    -11.245427     5A     -1.467946     6A     -1.375256
       7A     -1.024929     8A     -0.834945     9A     -0.716622
      10A     -0.670944    11A     -0.664711    12A     -0.598709
      13A     -0.577272    14A     -0.528663    15A     -0.495598
      16A     -0.452611

  @DF-RHF Final Energy:  -227.88709368382149

   => Energetics <=

    Nuclear Repulsion Energy =            122.2183468815415068
    One-Electron Energy =                -553.8604450224459015
    Two-Electron Energy =                 203.7550044570828618
    DFT Exchange-Correlation Energy =       0.0000000000000000
    Empirical Dispersion Energy =           0.0000000000000000
    PCM Polarization Energy =               0.0000000000000000
    EFP Energy =                            0.0000000000000000
    Total Energy =                       -227.8870936838215471
    Molecular point group: c1
  Basis Set: CC-PVTZ
  Basis Set:

  -Total Gradient:
     Atom            X                  Y                   Z
    ------   -----------------  -----------------  -----------------
       1       -0.000115404949     0.000192849650    -0.006099873499
       2       -0.000973051951    -0.000928864408     0.008431816732
       3        0.003427465771     0.002263028811    -0.003929722421
       4       -0.002678258767    -0.001734884998     0.001841888904
       5        0.000309883801     0.000172644285    -0.000210424513
       6        0.000021433763     0.000021785849     0.000004999898
       7        0.000005439712     0.000009310506    -0.000010088733
       8        0.000002492620     0.000004130308    -0.000028596369

  **** Optimization is complete! (in 9 steps) ****
    Final optimized geometry and variables:
    Molecular point group: c1

    Geometry (in Angstrom), charge = 0, multiplicity = 1:

    H            1.567593832679    -0.960097088681    -0.147459801293
    O            0.637725832265    -1.112965217155    -0.136667403270
    C           -0.067975763916     0.038636636150    -0.091490572259
    C            0.209864110404     0.893057701887     1.115696267124
    O           -0.895515400487     0.268809953258    -0.890602970668
    H           -0.089365715300     0.342276818876     1.998763212379
    H           -0.345081472048     1.814573869823     1.049975478255
    H            1.268720641782     1.107078157826     1.207205671185

  Mulliken Charges: (a.u.)
   Center  Symbol    Alpha    Beta     Spin     Total
       1     H     0.38900  0.38900  0.00000  0.22200
       2     O     4.16150  4.16150  0.00000 -0.32300
       3     C     2.80969  2.80969  0.00000  0.38063
       4     C     3.14101  3.14101  0.00000 -0.28201
       5     O     4.16359  4.16359  0.00000 -0.32718
       6     H     0.44139  0.44139  0.00000  0.11722
       7     H     0.43678  0.43678  0.00000  0.12644
       8     H     0.45705  0.45705  0.00000  0.08590

   Total alpha = 16.00000, Total beta = 16.00000, Total charge = -0.00000
