                              Psi4 1.0.54 Driver

  ==> Input File <==

--------------------------------------------------------------------------
set {
	reference rhf
	basis cc-pvtz
}

set_num_threads( 4 )
memory 2 gb

molecule MOL {
0 1

H	 1.651322	 -0.822465	 0.000000
O	 0.729993	 -1.034364	 0.000000
C	 0.037305	 0.100061	 0.000000
C	 0.912666	 1.293192	 -0.241371
O	 -1.131444	 0.127983	 0.173320
H	 1.673298	 1.344564	 0.526919
H	 0.313204	 2.188350	 -0.233414
H	 1.414239	 1.186381	 -1.194515

	symmetry c1
}
set optking {
	frozen_dihedral = ("
		4 3 2 1
	")
}

ee,wfn = optimize('scf', return_wfn=True)
oeprop( wfn, 'DIPOLE', 'QUADRUPOLE', 'MULLIKEN_CHARGES')
f=open( 'psi4out.xyz', 'w' )
f.write( "8  " )
f.write( str(ee) + "\n" )
f.write( MOL.save_string_xyz() )
f.close()
--------------------------------------------------------------------------

    Molecular point group: c1
  Charge       = 0
  Multiplicity = 1
  Basis Set: CC-PVTZ
  Basis Set:
  @DF-RHF Final Energy:  -227.89320318357147
    Total Energy =                       -227.8932031835714724
    Molecular point group: c1
  Basis Set: CC-PVTZ
  Basis Set:
  Basis Set: CC-PVTZ
  Basis Set:
  @DF-RHF Final Energy:  -226.91702997630046
    Total Energy =                       -226.9170299763005971
  Basis Set: CC-PVTZ
  Basis Set:
  Basis Set: CC-PVTZ
  Basis Set:
  @DF-RHF Final Energy:  -227.03053994994758
    Total Energy =                       -227.0305399499475527
  Basis Set: CC-PVTZ
  Basis Set:
  Basis Set: CC-PVTZ
  Basis Set:
  @DF-RHF Final Energy:  -227.27130703270575
    Total Energy =                       -227.2713070327058347
  Basis Set: CC-PVTZ
  Basis Set:
  @DF-RHF Final Energy:  -227.15035947314587
    Total Energy =                       -227.1503594731457838
  @DF-RHF Final Energy:  -227.32670025149037
    Total Energy =                       -227.3267002514902515
  @DF-RHF Final Energy:  -227.47144542563322
    Total Energy =                       -227.4714454256333056
  @DF-RHF Final Energy:  -227.65638037915087
    Total Energy =                       -227.6563803791508747
  @DF-RHF Final Energy:  -227.58830742622305
    Total Energy =                       -227.5883074262230537
  @DF-RHF Final Energy:  -227.60794590700147
    Total Energy =                       -227.6079459070014650
  @DF-RHF Final Energy:  -227.64155091234755
    Total Energy =                       -227.6415509123474976
  @DF-RHF Final Energy:  -227.72395518770500
    Total Energy =                       -227.7239551877050872
  @DF-RHF Final Energy:  -226.98807134286329
    Total Energy =                       -226.9880713428631793
  @DF-RHF Final Energy:  -227.11893078324096
    Total Energy =                       -227.1189307832408986
  @DF-RHF Final Energy:  -227.37952022632874
    Total Energy =                       -227.3795202263287081
  @DF-RHF Final Energy:  -227.05335036616640
    Total Energy =                       -227.0533503661663985
  @DF-RHF Final Energy:  -227.44845414586433
    Total Energy =                       -227.4484541458643605
  @DF-RHF Final Energy:  -227.57171181878772
    Total Energy =                       -227.5717118187876906
  @DF-RHF Final Energy:  -227.60697262397088
    Total Energy =                       -227.6069726239709041
  @DF-RHF Final Energy:  -227.65235688046761
    Total Energy =                       -227.6523568804675790
  @DF-RHF Final Energy:  -227.70055741744636
    Total Energy =                       -227.7005574174462197
  @DF-RHF Final Energy:  -227.74233491095191
    Total Energy =                       -227.7423349109518824
  @DF-RHF Final Energy:  -227.80156134040038
    Total Energy =                       -227.8015613404004682
  @DF-RHF Final Energy:  -227.51533337185836
    Total Energy =                       -227.5153333718583610
  @DF-RHF Final Energy:  -227.68677140519037
    Total Energy =                       -227.6867714051903704
  @DF-RHF Final Energy:  -227.81737354616104
    Total Energy =                       -227.8173735461610363
  @DF-RHF Final Energy:  -227.88372495798976
    Total Energy =                       -227.8837249579897843
  @DF-RHF Final Energy:  -227.89325663051778
    Total Energy =                       -227.8932566305176977
  @DF-RHF Final Energy:  -227.89122332133346
    Total Energy =                       -227.8912233213335696
  @DF-RHF Final Energy:  -227.86535328134613
    Total Energy =                       -227.8653532813459606
  @DF-RHF Final Energy:  -227.88632813837870
    Total Energy =                       -227.8863281383785875
  @DF-RHF Final Energy:  -227.89424443940624
    Total Energy =                       -227.8942444394061226
  @DF-RHF Final Energy:  -227.89265127871073
    Total Energy =                       -227.8926512787108152
  @DF-RHF Final Energy:  -227.89451200952021
    Total Energy =                       -227.8945120095202412
  @DF-RHF Final Energy:  -227.89469668819959
    Total Energy =                       -227.8946966881994740
  @DF-RHF Final Energy:  -227.89472581094742
    Total Energy =                       -227.8947258109474774
  Basis Set: CC-PVTZ
  Basis Set:
  @DF-RHF Final Energy:  -227.89473745714787
    Total Energy =                       -227.8947374571478122
  Basis Set: CC-PVTZ
  Basis Set:
  Basis Set: CC-PVTZ
  Basis Set:
  @DF-RHF Final Energy:  -227.89473946757241
    Total Energy =                       -227.8947394675724070
  Basis Set: CC-PVTZ
  Basis Set:
  Basis Set: CC-PVTZ
  Basis Set:
  @DF-RHF Final Energy:  -227.89474077386188
    Total Energy =                       -227.8947407738618267
  Basis Set: CC-PVTZ
  Basis Set:
  Charge       = 0
  Multiplicity = 1
  Basis Set: CC-PVTZ
  Basis Set:

    Orbital Energies (a.u.)
    -----------------------

    Doubly Occupied:

       1A    -20.607494     2A    -20.538280     3A    -11.377903
       4A    -11.250435     5A     -1.474314     6A     -1.376108
       7A     -1.027884     8A     -0.843567     9A     -0.722968
      10A     -0.672546    11A     -0.659207    12A     -0.604825
      13A     -0.573009    14A     -0.557055    15A     -0.483306
      16A     -0.449559

  @DF-RHF Final Energy:  -227.89474084566137

   => Energetics <=

    Nuclear Repulsion Energy =            122.5989991079310784
    One-Electron Energy =                -554.5505605312278021
    Two-Electron Energy =                 204.0568205776352784
    DFT Exchange-Correlation Energy =       0.0000000000000000
    Empirical Dispersion Energy =           0.0000000000000000
    PCM Polarization Energy =               0.0000000000000000
    EFP Energy =                            0.0000000000000000
    Total Energy =                       -227.8947408456614312
    Molecular point group: c1
  Basis Set: CC-PVTZ
  Basis Set:

  -Total Gradient:
     Atom            X                  Y                   Z
    ------   -----------------  -----------------  -----------------
       1       -0.000525204047    -0.000124977331    -0.001902685067
       2        0.000850415364     0.000290526892     0.002971113341
       3       -0.000685851939    -0.000471238366    -0.002242494359
       4        0.000400593813     0.000286423947     0.001170707917
       5       -0.000008635387    -0.000002430913     0.000003212417
       6        0.000002367451     0.000010165024    -0.000003424358
       7       -0.000035547928     0.000003605199     0.000006912700
       8        0.000001862671     0.000007925548    -0.000003342592

  **** Optimization is complete! (in 38 steps) ****
    Final optimized geometry and variables:
    Molecular point group: c1

    Geometry (in Angstrom), charge = 0, multiplicity = 1:

    H            1.389368209395    -1.100979648275    -0.347834684749
    O            1.219892887323    -0.175463250826    -0.354499235032
    C           -0.041363063238     0.108167302557    -0.019199461238
    C           -0.841161411808    -1.051448647899     0.517613989709
    O           -0.450532576657     1.205216433485    -0.120524408577
    H           -0.870161968866    -1.860213365455    -0.204247316739
    H           -1.844816147281    -0.725537733876     0.733525171662
    H           -0.376628800995    -1.424710155143     1.422990366091

  Mulliken Charges: (a.u.)
   Center  Symbol    Alpha    Beta     Spin     Total
       1     H     0.38910  0.38910  0.00000  0.22179
       2     O     4.14312  4.14312  0.00000 -0.28624
       3     C     2.80911  2.80911  0.00000  0.38177
       4     C     3.15373  3.15373  0.00000 -0.30746
       5     O     4.17570  4.17570  0.00000 -0.35141
       6     H     0.45139  0.45139  0.00000  0.09723
       7     H     0.43311  0.43311  0.00000  0.13377
       8     H     0.44473  0.44473  0.00000  0.11054

   Total alpha = 16.00000, Total beta = 16.00000, Total charge = -0.00000

*** Psi4 exiting successfully. Buy a developer a beer!
