  ==> Input File <==

--------------------------------------------------------------------------
set {
	reference rhf
	basis 6-31G*
}

set_num_threads( 4 )
memory 2 gb

molecule MOL {
0 1

H	 2.275012	 -0.201236	 0.452310
O	 1.586534	 -0.678666	 -0.000226
C	 0.489431	 0.077273	 0.000046
C	 -0.764129	 -0.759190	 0.000191
O	 0.537743	 1.263962	 0.000257
C	 -2.038368	 0.075731	 -0.000248
H	 -0.717284	 -1.412404	 -0.866059
H	 -0.717458	 -1.411724	 0.866967
H	 -2.086483	 0.712501	 -0.875098
H	 -2.908485	 -0.571682	 -0.000042
H	 -2.086576	 0.713280	 0.874068

	symmetry c1
}
set optking {
	frozen_dihedral = ("
		1 2 3 5
	")
}

ee = optimize('scf')
oeprop('DIPOLE', 'QUADRUPOLE', 'MULLIKEN_CHARGES')
f=open( 'psi4out.xyz', 'w' )
f.write( "11  " )
f.write( str(ee) + "\n" )
f.write( MOL.save_string_xyz() )
f.close()
--------------------------------------------------------------------------

    Molecular point group: c1
  Charge       = 0
  Multiplicity = 1
  Basis Set: 6-31G*
  Basis Set:
  @DF-RHF Final Energy:  -266.84073901284921
    Total Energy =                       -266.8407390128489851
    Molecular point group: c1
  Basis Set: 6-31G*
  Basis Set:
  Basis Set: 6-31G*
  Basis Set:
  @DF-RHF Final Energy:  -266.83744316829922
    Total Energy =                       -266.8374431682990462
  Basis Set: 6-31G*
  Basis Set:
  Basis Set: 6-31G*
  Basis Set:
  @DF-RHF Final Energy:  -266.84118830976831
    Total Energy =                       -266.8411883097681994
  Basis Set: 6-31G*
  Basis Set:
  Basis Set: 6-31G*
  Basis Set:
  @DF-RHF Final Energy:  -266.84124725341451
    Total Energy =                       -266.8412472534144513
  Basis Set: 6-31G*
  Basis Set:
  @DF-RHF Final Energy:  -266.84125398560099
    Total Energy =                       -266.8412539856010426
  @DF-RHF Final Energy:  -266.84125549265980
    Total Energy =                       -266.8412554926595703
  @DF-RHF Final Energy:  -266.84125353856314
    Total Energy =                       -266.8412535385633646
  Basis Set: 6-31G*
  Basis Set:
  @DF-RHF Final Energy:  -266.84125571257886
    Total Energy =                       -266.8412557125789135
  Basis Set: 6-31G*
  Basis Set:
  Basis Set: 6-31G*
  Basis Set:
  @DF-RHF Final Energy:  -266.84124367371771
    Total Energy =                       -266.8412436737178268
  Basis Set: 6-31G*
  Basis Set:
  Basis Set: 6-31G*
  Basis Set:
  @DF-RHF Final Energy:  -266.84125700094944
    Total Energy =                       -266.8412570009494971
  Basis Set: 6-31G*
  Basis Set:
  Charge       = 0
  Multiplicity = 1
  Basis Set: 6-31G*
  Basis Set:

    Orbital Energies (a.u.)
    -----------------------

    Doubly Occupied:

       1A    -20.609810     2A    -20.554842     3A    -11.382155
       4A    -11.243766     5A    -11.220156     6A     -1.471739
       7A     -1.367658     8A     -1.064555     9A     -0.915721
      10A     -0.801953    11A     -0.703537    12A     -0.687882
      13A     -0.659868    14A     -0.604486    15A     -0.582149
      16A     -0.529181    17A     -0.525820    18A     -0.505219
      19A     -0.481306    20A     -0.445655

  @DF-RHF Final Energy:  -266.84125700506848

   => Energetics <=

    Nuclear Repulsion Energy =            179.6013069966513171
    One-Electron Energy =                -720.1702165501186528
    Two-Electron Energy =                 273.7276525483986234
    DFT Exchange-Correlation Energy =       0.0000000000000000
    Empirical Dispersion Energy =           0.0000000000000000
    PCM Polarization Energy =               0.0000000000000000
    EFP Energy =                            0.0000000000000000
    Total Energy =                       -266.8412570050687691
    Molecular point group: c1
  Basis Set: 6-31G*
  Basis Set:

  -Total Gradient:
     Atom            X                  Y                   Z
    ------   -----------------  -----------------  -----------------
       1       -0.002121075868    -0.004547645832     0.008739983084
       2        0.002232245496     0.005830121838    -0.015142581353
       3        0.000641936563    -0.001698233476     0.015559364858
       4       -0.000000624462    -0.000015318222    -0.000081273916
       5       -0.000745395705     0.000411293320    -0.009086969326
       6       -0.000001808100     0.000004596143     0.000000836862
       7        0.000007255555    -0.000005526913     0.000004883790
       8       -0.000007770475     0.000017261878     0.000007936135
       9       -0.000000112520    -0.000000992537    -0.000000415234
      10        0.000000178847     0.000000788830    -0.000001058541
      11       -0.000004829332     0.000003654972    -0.000000706360

  **** Optimization is complete! (in 11 steps) ****
    Final optimized geometry and variables:
    Molecular point group: c1

    Geometry (in Angstrom), charge = 0, multiplicity = 1:

    H            2.323214559845    -0.224777772282     0.321604862297
    O            1.591027657925    -0.672197785461    -0.089108835546
    C            0.490140578813     0.080362679649     0.034576985908
    C           -0.762038037615    -0.757466933437     0.003660276736
    O            0.531877483391     1.264564096003     0.083333506605
    C           -2.038255834010     0.072689473591    -0.045410491156
    H           -0.685254757489    -1.423297595497    -0.850472481763
    H           -0.740519156671    -1.398673381663     0.880621255053
    H           -2.064315291256     0.694315970087    -0.932288160311
    H           -2.906474868393    -0.577208407732    -0.058363176159
    H           -2.112096142431     0.725021210855     0.815966765240

  Mulliken Charges: (a.u.)
   Center  Symbol    Alpha    Beta     Spin     Total
       1     H     0.26702  0.26702  0.00000  0.46596
       2     O     4.35412  4.35412  0.00000 -0.70825
       3     C     2.62764  2.62764  0.00000  0.74472
       4     C     3.20819  3.20819  0.00000 -0.41638
       5     O     4.27096  4.27096  0.00000 -0.54191
       6     C     3.23964  3.23964  0.00000 -0.47928
       7     H     0.39708  0.39708  0.00000  0.20585
       8     H     0.40037  0.40037  0.00000  0.19925
       9     H     0.40934  0.40934  0.00000  0.18132
      10     H     0.41677  0.41677  0.00000  0.16645
      11     H     0.40887  0.40887  0.00000  0.18226

   Total alpha = 20.00000, Total beta = 20.00000, Total charge = -0.00000
