                              Psi4 1.0.54 Driver

  ==> Input File <==

--------------------------------------------------------------------------
set {
	reference rhf
	basis cc-pvtz
}

set_num_threads( 4 )
memory 2 gb

molecule MOL {
0 1

H	 -1.835220	 1.385985	 0.000069
C	 -1.300654	 0.441155	 -0.000028
O	 -0.006742	 0.654346	 -0.000106
O	 -1.829058	 -0.612306	 0.000113
C	 0.851955	 -0.482519	 -0.000161
C	 2.277395	 0.016302	 0.000164
H	 0.638785	 -1.081153	 -0.874320
H	 0.638500	 -1.081485	 0.873704
H	 2.475678	 0.617390	 -0.878100
H	 2.958227	 -0.826504	 0.000125
H	 2.475387	 0.617083	 0.878703

	symmetry c1
}
ee,wfn = energy('scf', return_wfn=True)
oeprop( wfn, 'DIPOLE', 'QUADRUPOLE', 'MULLIKEN_CHARGES')
oeprop( wfn, 'GRID_ESP')
f=open( 'psi4out.xyz', 'w' )
f.write( "11  " )
f.write( str(ee) + "\n" )
f.write( MOL.save_string_xyz() )
f.close()
--------------------------------------------------------------------------

    Molecular point group: c1

    Geometry (in Angstrom), charge = 0, multiplicity = 1:

       Center              X                  Y                   Z               Mass
    ------------   -----------------  -----------------  -----------------  -----------------
           H         -1.835081816595     1.385983470402     0.000069075898     1.007825032070
           C         -1.300515816595     0.441153470402    -0.000027924102    12.000000000000
           O         -0.006603816595     0.654344470402    -0.000105924102    15.994914619560
           O         -1.828919816595    -0.612307529598     0.000113075898    15.994914619560
           C          0.852093183405    -0.482520529598    -0.000160924102    12.000000000000
           C          2.277533183405     0.016300470402     0.000164075898    12.000000000000
           H          0.638923183405    -1.081154529598    -0.874319924102     1.007825032070
           H          0.638638183405    -1.081486529598     0.873704075898     1.007825032070
           H          2.475816183405     0.617388470402    -0.878099924102     1.007825032070
           H          2.958365183405    -0.826505529598     0.000125075898     1.007825032070
           H          2.475525183405     0.617081470402     0.878703075898     1.007825032070

  Charge       = 0
  Multiplicity = 1
  Basis Set: CC-PVTZ
  Basis Set:

    Orbital Energies (a.u.)
    -----------------------

    Doubly Occupied:

       1A    -20.605711     2A    -20.545734     3A    -11.370084
       4A    -11.290069     5A    -11.225153     6A     -1.479589
       7A     -1.377437     8A     -1.053896     9A     -0.903814
      10A     -0.806102    11A     -0.740610    12A     -0.693505
      13A     -0.682527    14A     -0.593489    15A     -0.578613
      16A     -0.558144    17A     -0.519301    18A     -0.516183
      19A     -0.463777    20A     -0.458231

  @DF-RHF Final Energy:  -266.93189477655187

   => Energetics <=

    Nuclear Repulsion Energy =            179.6469650422393443
    One-Electron Energy =                -720.2335626421200914
    Two-Electron Energy =                 273.6547028233289893
    DFT Exchange-Correlation Energy =       0.0000000000000000
    Empirical Dispersion Energy =           0.0000000000000000
    PCM Polarization Energy =               0.0000000000000000
    EFP Energy =                            0.0000000000000000
    Total Energy =                       -266.9318947765517578

  Mulliken Charges: (a.u.)
   Center  Symbol    Alpha    Beta     Spin     Total
       1     H     0.44779  0.44779  0.00000  0.10443
       2     C     2.84643  2.84643  0.00000  0.30715
       3     O     4.14419  4.14419  0.00000 -0.28838
       4     O     4.19491  4.19491  0.00000 -0.38982
       5     C     2.97239  2.97239  0.00000  0.05523
       6     C     3.13325  3.13325  0.00000 -0.26650
       7     H     0.45309  0.45309  0.00000  0.09382
       8     H     0.45308  0.45308  0.00000  0.09384
       9     H     0.45033  0.45033  0.00000  0.09933
      10     H     0.45422  0.45422  0.00000  0.09157
      11     H     0.45033  0.45033  0.00000  0.09934

   Total alpha = 20.00000, Total beta = 20.00000, Total charge =  0.00000

*** Psi4 exiting successfully. Buy a developer a beer!
