  ==> Input File <==

--------------------------------------------------------------------------
set {
	reference rhf
	basis cc-pvtz
}

set_num_threads( 4 )
memory 2 gb

molecule MOL {
0 1

H	 3.459101	 0.139266	 -0.762951
C	 2.749156	 -0.051729	 0.031265
C	 1.322304	 0.099773	 -0.484271
H	 2.929445	 -1.053887	 0.403481
H	 2.954281	 0.646699	 0.834672
C	 0.308557	 -0.162619	 0.622645
H	 1.143368	 -0.594400	 -1.295960
H	 1.169532	 1.100095	 -0.870217
N	 -1.069352	 -0.004081	 0.085342
H	 0.371632	 -1.172932	 0.991288
H	 0.400391	 0.548875	 1.426218
O	 -1.623915	 1.019396	 0.307894
O	 -1.531046	 -0.922847	 -0.504278

	symmetry c1
}
set optking {
	frozen_dihedral = ("
		12 9 6 3
	")
}

ee = optimize('scf')
oeprop('DIPOLE', 'QUADRUPOLE', 'MULLIKEN_CHARGES')
f=open( 'psi4out.xyz', 'w' )
f.write( "13  " )
f.write( str(ee) + "\n" )
f.write( MOL.save_string_xyz() )
f.close()
--------------------------------------------------------------------------

    Molecular point group: c1
  Charge       = 0
  Multiplicity = 1
  Basis Set: CC-PVTZ
  Basis Set:
  @DF-RHF Final Energy:  -321.86130725340661
    Total Energy =                       -321.8613072534067783
    Molecular point group: c1
  Basis Set: CC-PVTZ
  Basis Set:
  Basis Set: CC-PVTZ
  Basis Set:
  @DF-RHF Final Energy:  -321.85649012432447
    Total Energy =                       -321.8564901243243526
  Basis Set: CC-PVTZ
  Basis Set:
  Basis Set: CC-PVTZ
  Basis Set:
  @DF-RHF Final Energy:  -321.86138949071858
    Total Energy =                       -321.8613894907183521
  Basis Set: CC-PVTZ
  Basis Set:
  Basis Set: CC-PVTZ
  Basis Set:
  @DF-RHF Final Energy:  -321.86150042587929
    Total Energy =                       -321.8615004258795125
  Basis Set: CC-PVTZ
  Basis Set:
  Basis Set: CC-PVTZ
  Basis Set:
  @DF-RHF Final Energy:  -321.86150216403735
    Total Energy =                       -321.8615021640372333
  Basis Set: CC-PVTZ
  Basis Set:
  Charge       = 0
  Multiplicity = 1
  Basis Set: CC-PVTZ
  Basis Set:

    Orbital Energies (a.u.)
    -----------------------

    Doubly Occupied:

       1A    -20.591389     2A    -20.589453     3A    -15.836984
       4A    -11.297319     5A    -11.253994     6A    -11.237170
       7A     -1.636033     8A     -1.420340     9A     -1.134225
      10A     -1.027883    11A     -0.884091    12A     -0.834232
      13A     -0.761703    14A     -0.738901    15A     -0.727714
      16A     -0.673090    17A     -0.604217    18A     -0.588187
      19A     -0.551465    20A     -0.520820    21A     -0.514482
      22A     -0.487026    23A     -0.475097    24A     -0.453009

  @DF-RHF Final Energy:  -321.86150243424760

   => Energetics <=

    Nuclear Repulsion Energy =            247.9899370493272386
    One-Electron Energy =                -930.0252335731713629
    Two-Electron Energy =                 360.1737940895966403
    DFT Exchange-Correlation Energy =       0.0000000000000000
    Empirical Dispersion Energy =           0.0000000000000000
    PCM Polarization Energy =               0.0000000000000000
    EFP Energy =                            0.0000000000000000
    Total Energy =                       -321.8615024342475408
    Molecular point group: c1
  Basis Set: CC-PVTZ
  Basis Set:

  -Total Gradient:
     Atom            X                  Y                   Z
    ------   -----------------  -----------------  -----------------
       1        0.000001294901     0.000003072183     0.000000954018
       2        0.000000815178     0.000012555088     0.000000749267
       3       -0.000003447159    -0.000143596657    -0.000030991997
       4       -0.000002690456    -0.000000189949    -0.000004952346
       5        0.000001379993    -0.000003008539     0.000003355655
       6       -0.000027713000     0.000141343542     0.000110837539
       7       -0.000004143637    -0.000007098124     0.000002883625
       8        0.000004525370    -0.000003740121    -0.000002529465
       9        0.000116032383     0.000019639426    -0.000285744609
      10        0.000013400247    -0.000000841023     0.000002651879
      11       -0.000003169989     0.000001641809    -0.000001772569
      12       -0.000099142462    -0.000065123832     0.000171670356
      13        0.000002858629     0.000045346197     0.000032888646

  **** Optimization is complete! (in 6 steps) ****
    Final optimized geometry and variables:
    Molecular point group: c1

    Geometry (in Angstrom), charge = 0, multiplicity = 1:

    H            3.459587404256     0.136621365183    -0.774141105830
    C            2.751013339699    -0.049121908189     0.022538744314
    C            1.323189410807     0.094841859231    -0.492664919654
    H            2.933492624829    -1.048077278028     0.402401115394
    H            2.956347019945     0.655809233530     0.820179989452
    C            0.312014857189    -0.161929554970     0.617457486481
    H            1.143767789431    -0.603813054564    -1.299346258684
    H            1.168910406477     1.093159257000    -0.885064490155
    N           -1.069407316915    -0.002905979396     0.088410110745
    H            0.374383678456    -1.174055604482     0.983692838663
    H            0.407491551222     0.545372462505     1.423529931028
    O           -1.625132837340     1.020060432574     0.309003518398
    O           -1.513425742513    -0.905443861394    -0.539232546391

  Mulliken Charges: (a.u.)
   Center  Symbol    Alpha    Beta     Spin     Total
       1     H     0.44166  0.44166  0.00000  0.11669
       2     C     3.15110  3.15110  0.00000 -0.30220
       3     C     3.09609  3.09609  0.00000 -0.19217
       4     H     0.45165  0.45165  0.00000  0.09669
       5     H     0.45162  0.45162  0.00000  0.09675
       6     C     3.03940  3.03940  0.00000 -0.07881
       7     H     0.43610  0.43610  0.00000  0.12781
       8     H     0.43998  0.43998  0.00000  0.12004
       9     N     3.27616  3.27616  0.00000  0.44768
      10     H     0.43541  0.43541  0.00000  0.12918
      11     H     0.43393  0.43393  0.00000  0.13214
      12     O     4.17185  4.17185  0.00000 -0.34369
      13     O     4.17505  4.17505  0.00000 -0.35011

   Total alpha = 24.00000, Total beta = 24.00000, Total charge = -0.00000
