  ==> Input File <==

--------------------------------------------------------------------------
set {
	reference rhf
	basis 6-31G*
}

set_num_threads( 4 )
memory 2 gb

molecule MOL {
0 1

H	 -2.405602	 -1.684187	 0.766821
C	 -1.647195	 -1.000004	 0.441065
C	 -1.965845	 0.335983	 0.027389
C	 -0.360505	 -1.369752	 0.407406
H	 -2.990461	 0.663027	 0.043117
C	 -0.999982	 1.173718	 -0.376060
H	 -0.039169	 -2.351195	 0.700523
N	 0.640212	 -0.532897	 -0.000111
H	 -1.200525	 2.178831	 -0.692107
C	 0.400083	 0.771139	 -0.412550
C	 2.010177	 -1.032049	 0.000042
O	 1.297421	 1.493876	 -0.768416
H	 2.187698	 -1.635381	 -0.882279
H	 2.677579	 -0.189247	 -0.001871
H	 2.188882	 -1.632203	 0.884288

	symmetry c1
}
set optking {
	frozen_dihedral = ("
		10 8 11 13
	")
}

ee = optimize('scf')
oeprop('DIPOLE', 'QUADRUPOLE', 'MULLIKEN_CHARGES')
f=open( 'psi4out.xyz', 'w' )
f.write( "15  " )
f.write( str(ee) + "\n" )
f.write( MOL.save_string_xyz() )
f.close()
--------------------------------------------------------------------------

    Molecular point group: c1
  Charge       = 0
  Multiplicity = 1
  Basis Set: 6-31G*
  Basis Set:
  @DF-RHF Final Energy:  -360.59586653782952
    Total Energy =                       -360.5958665378292949
    Molecular point group: c1
  Basis Set: 6-31G*
  Basis Set:
  Basis Set: 6-31G*
  Basis Set:
  @DF-RHF Final Energy:  -360.59594993722993
    Total Energy =                       -360.5959499372301593
  Basis Set: 6-31G*
  Basis Set:
  Basis Set: 6-31G*
  Basis Set:
  @DF-RHF Final Energy:  -360.59595521468646
    Total Energy =                       -360.5959552146862279
  Basis Set: 6-31G*
  Basis Set:
  Basis Set: 6-31G*
  Basis Set:
  @DF-RHF Final Energy:  -360.59596492259334
    Total Energy =                       -360.5959649225933958
  Basis Set: 6-31G*
  Basis Set:
  Charge       = 0
  Multiplicity = 1
  Basis Set: 6-31G*
  Basis Set:

    Orbital Energies (a.u.)
    -----------------------

    Doubly Occupied:

       1A    -20.508677     2A    -15.621475     3A    -11.343074
       4A    -11.296866     5A    -11.264753     6A    -11.260425
       7A    -11.233588     8A    -11.229139     9A     -1.384435
      10A     -1.281019    11A     -1.114826    12A     -1.025846
      13A     -0.970052    14A     -0.872261    15A     -0.835398
      16A     -0.715528    17A     -0.698308    18A     -0.660835
      19A     -0.647998    20A     -0.621889    21A     -0.606636
      22A     -0.572518    23A     -0.552251    24A     -0.547080
      25A     -0.526442    26A     -0.476453    27A     -0.413904
      28A     -0.405712    29A     -0.305088

  @DF-RHF Final Energy:  -360.59596705083646

   => Energetics <=

    Nuclear Repulsion Energy =            357.6530497861709250
    One-Electron Energy =               -1198.5130774876333817
    Two-Electron Energy =                 480.2640606506259928
    DFT Exchange-Correlation Energy =       0.0000000000000000
    Empirical Dispersion Energy =           0.0000000000000000
    PCM Polarization Energy =               0.0000000000000000
    EFP Energy =                            0.0000000000000000
    Total Energy =                       -360.5959670508365207
    Molecular point group: c1
  Basis Set: 6-31G*
  Basis Set:

  -Total Gradient:
     Atom            X                  Y                   Z
    ------   -----------------  -----------------  -----------------
       1       -0.000007326494    -0.000004969158    -0.000008850417
       2        0.000022375902    -0.000009942830    -0.000008816511
       3       -0.000011139467     0.000022594074     0.000009790531
       4       -0.000029769186     0.000017186525     0.000054087526
       5       -0.000005509809    -0.000008830424    -0.000002027587
       6       -0.000034696618    -0.000003723387    -0.000007868172
       7        0.000008086581    -0.000003737926    -0.000012028325
       8       -0.000052379165    -0.000200154323    -0.000590251234
       9        0.000006152949    -0.000007992316     0.000003513946
      10        0.000053104182     0.000115615426     0.000404731601
      11        0.000184772236     0.000524413222    -0.000106129828
      12        0.000011379233    -0.000036014575     0.000004880745
      13       -0.000158646501    -0.000393985114     0.000239127729
      14       -0.000032806512     0.000010992232     0.000008088900
      15        0.000046402664    -0.000021451429     0.000011751098

  **** Optimization is complete! (in 5 steps) ****
    Final optimized geometry and variables:
    Molecular point group: c1

    Geometry (in Angstrom), charge = 0, multiplicity = 1:

    H           -2.405429490586    -1.668767828443     0.849556281587
    C           -1.644804153219    -0.984157430058     0.530072229721
    C           -1.960418224832     0.354105875712     0.122051077912
    C           -0.357936572211    -1.354883916775     0.503935365311
    H           -2.984752712326     0.682020486957     0.136499796612
    C           -0.992285103921     1.192832258063    -0.274352762791
    H           -0.039837270864    -2.337307524791     0.796264323105
    N            0.645314655134    -0.515364027014     0.109150073390
    H           -1.190334893666     2.199412509585    -0.587569664135
    C            0.405703840187     0.784559152923    -0.314848876277
    C            2.017482098346    -1.008143128951     0.093303259483
    O            1.305930691456     1.497348618165    -0.683368405244
    H            2.194477837134    -1.621402521085    -0.782867475227
    H            2.685090574794    -0.165203134414     0.074702660668
    H            2.199653905773    -1.598499493490     0.981981708554

  Mulliken Charges: (a.u.)
   Center  Symbol    Alpha    Beta     Spin     Total
       1     H     0.39289  0.39289  0.00000  0.21421
       2     C     3.16170  3.16170  0.00000 -0.32340
       3     C     3.05827  3.05827  0.00000 -0.11653
       4     C     2.92104  2.92104  0.00000  0.15793
       5     H     0.39085  0.39085  0.00000  0.21830
       6     C     3.16970  3.16970  0.00000 -0.33940
       7     H     0.38793  0.38793  0.00000  0.22414
       8     N     3.86527  3.86527  0.00000 -0.73055
       9     H     0.38637  0.38637  0.00000  0.22726
      10     C     2.59450  2.59450  0.00000  0.81100
      11     C     3.15161  3.15161  0.00000 -0.30323
      12     O     4.32193  4.32193  0.00000 -0.64387
      13     H     0.40768  0.40768  0.00000  0.18464
      14     H     0.37716  0.37716  0.00000  0.24567
      15     H     0.41310  0.41310  0.00000  0.17381

   Total alpha = 29.00000, Total beta = 29.00000, Total charge =  0.00000
