                              Psi4 1.0.54 Driver

  ==> Input File <==

--------------------------------------------------------------------------
set {
	reference rhf
	basis cc-pvtz
}

set_num_threads( 4 )
memory 2 gb

molecule MOL {
0 1

O	 -2.974519	 0.988724	 -0.750673
C	 -2.664672	 0.129869	 0.003507
C	 -3.580698	 -0.423260	 1.061443
O	 -1.481217	 -0.452708	 0.001092
H	 -4.469350	 -0.808650	 0.579933
H	 -3.106878	 -1.201454	 1.638114
H	 -3.883599	 0.386482	 1.711553
C	 -0.332055	 0.384012	 -0.000250
C	 0.892252	 -0.506059	 -0.000295
H	 -0.360822	 1.020205	 -0.874146
H	 -0.359817	 1.021310	 0.872861
C	 2.188199	 0.299473	 -0.001416
H	 0.857046	 -1.152781	 -0.871031
H	 0.857910	 -1.151798	 0.871202
C	 3.437151	 -0.577593	 -0.000991
H	 2.209565	 0.950707	 -0.871712
H	 2.210062	 0.952234	 0.867721
C	 4.732399	 0.226982	 -0.000914
H	 3.417321	 -1.229122	 -0.869998
H	 3.416993	 -1.228707	 0.868337
H	 4.797903	 0.863451	 -0.876963
H	 5.598517	 -0.424436	 -0.000420
H	 4.797415	 0.864118	 0.874691

	symmetry c1
}
set optking {
	frozen_dihedral = ("
		1 2 4 8
	")
}

ee,wfn = optimize('scf', return_wfn=True)
oeprop( wfn, 'DIPOLE', 'QUADRUPOLE', 'MULLIKEN_CHARGES')
f=open( 'psi4out.xyz', 'w' )
f.write( "23  " )
f.write( str(ee) + "\n" )
f.write( MOL.save_string_xyz() )
f.close()
--------------------------------------------------------------------------

    Molecular point group: c1
  Charge       = 0
  Multiplicity = 1
  Basis Set: CC-PVTZ
  Basis Set:
  @DF-RHF Final Energy:  -423.12249913951615
    Total Energy =                       -423.1224991395160941
    Molecular point group: c1
  Basis Set: CC-PVTZ
  Basis Set:
  Basis Set: CC-PVTZ
  Basis Set:
  @DF-RHF Final Energy:  -422.95967905944639
    Total Energy =                       -422.9596790594468985
  Basis Set: CC-PVTZ
  Basis Set:
  Basis Set: CC-PVTZ
  Basis Set:
  @DF-RHF Final Energy:  -423.07841969779042
    Total Energy =                       -423.0784196977903093
  Basis Set: CC-PVTZ
  Basis Set:
  Basis Set: CC-PVTZ
  Basis Set:
  @DF-RHF Final Energy:  -423.11982340441125
    Total Energy =                       -423.1198234044113633
  Basis Set: CC-PVTZ
  Basis Set:
  @DF-RHF Final Energy:  -423.10532283314348
    Total Energy =                       -423.1053228331438731
  @DF-RHF Final Energy:  -423.11960130631542
    Total Energy =                       -423.1196013063149621
  @DF-RHF Final Energy:  -423.12323109758108
    Total Energy =                       -423.1232310975807422
  @DF-RHF Final Energy:  -423.12335090914866
    Total Energy =                       -423.1233509091493943
  @DF-RHF Final Energy:  -423.12340077180050
    Total Energy =                       -423.1234007718009025
  @DF-RHF Final Energy:  -423.12346007924805
    Total Energy =                       -423.1234600792479341
  @DF-RHF Final Energy:  -423.11629483725807
    Total Energy =                       -423.1162948372578967
  @DF-RHF Final Energy:  -422.91729781772807
    Total Energy =                       -422.9172978177284676
  @DF-RHF Final Energy:  -423.07068396871512
    Total Energy =                       -423.0706839687151160
  @DF-RHF Final Energy:  -422.93287296005792
    Total Energy =                       -422.9328729600580346
  @DF-RHF Final Energy:  -422.93010796861364
    Total Energy =                       -422.9301079686138110
  @DF-RHF Final Energy:  -423.04929609366059
    Total Energy =                       -423.0492960936607005
  @DF-RHF Final Energy:  -422.94549393561368
    Total Energy =                       -422.9454939356130581
  @DF-RHF Final Energy:  -422.89315812404857
    Total Energy =                       -422.8931581240486821
  @DF-RHF Final Energy:  -422.87368379914204
    Total Energy =                       -422.8736837991422135
  @DF-RHF Final Energy:  -422.95250287891201
    Total Energy =                       -422.9525028789120142
  @DF-RHF Final Energy:  -423.12309865561031
    Total Energy =                       -423.1230986556106473
  @DF-RHF Final Energy:  -423.09754797098003
    Total Energy =                       -423.0975479709796900
  @DF-RHF Final Energy:  -423.11708198518443
    Total Energy =                       -423.1170819851844271
  @DF-RHF Final Energy:  -423.12391758889845
    Total Energy =                       -423.1239175888980526
  @DF-RHF Final Energy:  -423.12488870174394
    Total Energy =                       -423.1248887017434299
  @DF-RHF Final Energy:  -423.12501134758259
    Total Energy =                       -423.1250113475831540
  @DF-RHF Final Energy:  -423.12506415655679
    Total Energy =                       -423.1250641565571868
  @DF-RHF Final Energy:  -423.12510114744833
    Total Energy =                       -423.1251011474481629
  @DF-RHF Final Energy:  -423.12513064158497
    Total Energy =                       -423.1251306415852014
  @DF-RHF Final Energy:  -423.12515200803244
    Total Energy =                       -423.1251520080323871
  @DF-RHF Final Energy:  -423.12517042069231
    Total Energy =                       -423.1251704206921431
  @DF-RHF Final Energy:  -423.12517759672824
    Total Energy =                       -423.1251775967280082
  @DF-RHF Final Energy:  -423.12507135085360
    Total Energy =                       -423.1250713508544550
  @DF-RHF Final Energy:  -423.11315185475058
    Total Energy =                       -423.1131518547506403
  @DF-RHF Final Energy:  -423.11875257339466
    Total Energy =                       -423.1187525733948860
  @DF-RHF Final Energy:  -423.12467661699901
    Total Energy =                       -423.1246766169992952
  Basis Set: CC-PVTZ
  Basis Set:
  @DF-RHF Final Energy:  -423.12516260115956
    Total Energy =                       -423.1251626011597864
  Basis Set: CC-PVTZ
  Basis Set:
  Basis Set: CC-PVTZ
  Basis Set:
  @DF-RHF Final Energy:  -423.12519584120838
    Total Energy =                       -423.1251958412083241
  Basis Set: CC-PVTZ
  Basis Set:
  Basis Set: CC-PVTZ
  Basis Set:
  @DF-RHF Final Energy:  -423.12519732763479
    Total Energy =                       -423.1251973276346234
  Basis Set: CC-PVTZ
  Basis Set:
  Charge       = 0
  Multiplicity = 1
  Basis Set: CC-PVTZ
  Basis Set:

    Orbital Energies (a.u.)
    -----------------------

    Doubly Occupied:

       1A    -20.582588     2A    -20.538363     3A    -11.368012
       4A    -11.283621     5A    -11.232441     6A    -11.222735
       7A    -11.222012     8A    -11.219867     9A    -11.211314
      10A     -1.463548    11A     -1.366274    12A     -1.095111
      13A     -1.041363    14A     -1.006121    15A     -0.931880
      16A     -0.841758    17A     -0.803382    18A     -0.774598
      19A     -0.698419    20A     -0.686726    21A     -0.662359
      22A     -0.649257    23A     -0.613137    24A     -0.589691
      25A     -0.585173    26A     -0.570334    27A     -0.557260
      28A     -0.547245    29A     -0.517252    30A     -0.504890
      31A     -0.495682    32A     -0.478770    33A     -0.472124
      34A     -0.469573    35A     -0.452616    36A     -0.436575

  @DF-RHF Final Energy:  -423.12519751951089

   => Energetics <=

    Nuclear Repulsion Energy =            449.6921564619247533
    One-Electron Energy =               -1467.2505655133056734
    Two-Electron Energy =                 594.4332115318704837
    DFT Exchange-Correlation Energy =       0.0000000000000000
    Empirical Dispersion Energy =           0.0000000000000000
    PCM Polarization Energy =               0.0000000000000000
    EFP Energy =                            0.0000000000000000
    Total Energy =                       -423.1251975195104933
    Molecular point group: c1
  Basis Set: CC-PVTZ
  Basis Set:

  -Total Gradient:
     Atom            X                  Y                   Z
    ------   -----------------  -----------------  -----------------
       1        0.006069844114    -0.005536665108     0.004036963050
       2       -0.008702818692     0.010120203896    -0.008960707948
       3       -0.000015224881     0.000052179861    -0.000092165876
       4        0.002024176817    -0.008595410155     0.010955814120
       5       -0.000000564376    -0.000007726647     0.000009129600
       6        0.000004925762    -0.000006758177    -0.000001782442
       7        0.000007625803    -0.000034272624     0.000040269948
       8        0.000621522233     0.004014201673    -0.005999354370
       9        0.000001055887    -0.000008169049     0.000007863359
      10       -0.000005857111     0.000004608260     0.000001190467
      11       -0.000003699594    -0.000026392974     0.000013471774
      12       -0.000011265019     0.000013039174    -0.000012286354
      13        0.000000129841     0.000017982477    -0.000012685730
      14       -0.000007082463    -0.000001965666     0.000008194474
      15        0.000010406163    -0.000015893931     0.000007023865
      16        0.000007421218     0.000006852785    -0.000008904763
      17        0.000001864771    -0.000014395249     0.000009835007
      18       -0.000009947846     0.000016703330    -0.000007336758
      19        0.000003578372     0.000012166968    -0.000009257338
      20       -0.000006185458    -0.000002282098     0.000008299473
      21        0.000004777642     0.000006428241    -0.000003469820
      22        0.000003509671     0.000007295880    -0.000001932941
      23        0.000001807150    -0.000021730869     0.000011829212

  **** Optimization is complete! (in 43 steps) ****
    Final optimized geometry and variables:
    Molecular point group: c1

    Geometry (in Angstrom), charge = 0, multiplicity = 1:

    O            1.360586576629     1.845404463784     2.263846081242
    C            1.813698483548     1.566388785804     1.210685610266
    C            3.002291172755     2.239761443334     0.587717771348
    O            1.378612204150     0.537333264900     0.478381838764
    H            3.405051858157     2.978639341180     1.261428552467
    H            3.752031067818     1.496754043266     0.348806901882
    H            2.701548616802     2.708312604002    -0.341816721729
    C           -0.021030830172     0.426291550199     0.259291808923
    C           -0.279135740903    -0.842057547293    -0.524785037002
    H           -0.534643009145     0.410765370347     1.210321567165
    H           -0.355060727678     1.297462677105    -0.294445151043
    C           -1.761736634485    -1.044553647206    -0.823284413690
    H            0.104610326165    -1.683270169464     0.042800616722
    H            0.285197599718    -0.804319276925    -1.450847810300
    C           -2.043178676839    -2.320750972650    -1.611417583738
    H           -2.318846661250    -1.070906414197     0.109840977851
    H           -2.140471456302    -0.190825679778    -1.380368724951
    C           -3.524644144210    -2.524486727905    -1.909225641777
    H           -1.666118758141    -3.174615011732    -1.055841569604
    H           -1.487721570918    -2.295221443332    -2.544697504548
    H           -4.102826810346    -2.588345957793    -0.993522541824
    H           -3.689738761674    -3.437958490944    -2.468548280808
    H           -3.923407229432    -1.702236118487    -2.493953758807

  Mulliken Charges: (a.u.)
   Center  Symbol    Alpha    Beta     Spin     Total
       1     O     4.18359  4.18359  0.00000 -0.36719
       2     C     2.80889  2.80889  0.00000  0.38221
       3     C     3.13816  3.13816  0.00000 -0.27633
       4     O     4.16317  4.16317  0.00000 -0.32634
       5     H     0.43814  0.43814  0.00000  0.12371
       6     H     0.44368  0.44368  0.00000  0.11263
       7     H     0.44996  0.44996  0.00000  0.10008
       8     C     2.97510  2.97510  0.00000  0.04980
       9     C     3.08465  3.08465  0.00000 -0.16930
      10     H     0.44744  0.44744  0.00000  0.10513
      11     H     0.46518  0.46518  0.00000  0.06965
      12     C     3.09924  3.09924  0.00000 -0.19849
      13     H     0.44777  0.44777  0.00000  0.10445
      14     H     0.45084  0.45084  0.00000  0.09831
      15     C     3.08507  3.08507  0.00000 -0.17014
      16     H     0.45206  0.45206  0.00000  0.09587
      17     H     0.45425  0.45425  0.00000  0.09150
      18     C     3.14953  3.14953  0.00000 -0.29907
      19     H     0.45277  0.45277  0.00000  0.09445
      20     H     0.45364  0.45364  0.00000  0.09273
      21     H     0.45428  0.45428  0.00000  0.09144
      22     H     0.44754  0.44754  0.00000  0.10492
      23     H     0.45502  0.45502  0.00000  0.08996

   Total alpha = 36.00000, Total beta = 36.00000, Total charge = -0.00000

*** Psi4 exiting successfully. Buy a developer a beer!
