  ==> Input File <==

--------------------------------------------------------------------------
set {
	reference rhf
	basis 6-31G*
}

set_num_threads( 4 )
memory 2 gb

molecule MOL {
0 1

O	 1.214711	 1.306902	 -0.000018
C	 1.122059	 0.121804	 -0.000188
C	 -0.170150	 -0.657997	 -0.000612
O	 2.172624	 -0.688929	 0.000216
C	 -1.412532	 0.227344	 -0.000452
H	 -0.153702	 -1.313099	 -0.867402
H	 -0.153924	 -1.313811	 0.865644
C	 -2.705632	 -0.585444	 0.080994
H	 -1.417547	 0.838009	 -0.897987
H	 -1.359476	 0.919131	 0.834484
C	 -3.955359	 0.293864	 0.082977
H	 -2.753355	 -1.277478	 -0.757389
H	 -2.694228	 -1.197377	 0.980704
H	 -4.013588	 0.893426	 -0.820787
H	 -4.857735	 -0.306653	 0.141051
H	 -3.954336	 0.973651	 0.930048
C	 3.452279	 -0.082609	 0.000533
H	 3.583069	 0.529321	 -0.880332
H	 4.163299	 -0.894027	 0.001117
H	 3.582335	 0.529955	 0.881077

	symmetry c1
}
set optking {
	frozen_dihedral = ("
		9 5 3 6
	")
}

ee = optimize('scf')
oeprop('DIPOLE', 'QUADRUPOLE', 'MULLIKEN_CHARGES')
f=open( 'psi4out.xyz', 'w' )
f.write( "20  " )
f.write( str(ee) + "\n" )
f.write( MOL.save_string_xyz() )
f.close()
--------------------------------------------------------------------------

    Molecular point group: c1
  Charge       = 0
  Multiplicity = 1
  Basis Set: 6-31G*
  Basis Set:
  @DF-RHF Final Energy:  -383.94155559765318
    Total Energy =                       -383.9415555976529504
    Molecular point group: c1
  Basis Set: 6-31G*
  Basis Set:
  Basis Set: 6-31G*
  Basis Set:
  @DF-RHF Final Energy:  -383.94155764699309
    Total Energy =                       -383.9415576469932603
  Basis Set: 6-31G*
  Basis Set:
  Charge       = 0
  Multiplicity = 1
  Basis Set: 6-31G*
  Basis Set:

    Orbital Energies (a.u.)
    -----------------------

    Doubly Occupied:

       1A    -20.603738     2A    -20.545530     3A    -11.372362
       4A    -11.280934     5A    -11.235781     6A    -11.220293
       7A    -11.219380     8A    -11.210655     9A     -1.469440
      10A     -1.362876    11A     -1.088781    12A     -1.024436
      13A     -0.969116    14A     -0.885899    15A     -0.803948
      16A     -0.767559    17A     -0.696649    18A     -0.683883
      19A     -0.671991    20A     -0.646268    21A     -0.597423
      22A     -0.592214    23A     -0.578878    24A     -0.539276
      25A     -0.537531    26A     -0.522768    27A     -0.500909
      28A     -0.478215    29A     -0.473260    30A     -0.470801
      31A     -0.455816    32A     -0.436951

  @DF-RHF Final Energy:  -383.94155795970113

   => Energetics <=

    Nuclear Repulsion Energy =            381.0851598323851590
    One-Electron Energy =               -1278.1663162804507010
    Two-Electron Energy =                 513.1395984883644132
    DFT Exchange-Correlation Energy =       0.0000000000000000
    Empirical Dispersion Energy =           0.0000000000000000
    PCM Polarization Energy =               0.0000000000000000
    EFP Energy =                            0.0000000000000000
    Total Energy =                       -383.9415579597010719
    Molecular point group: c1
  Basis Set: 6-31G*
  Basis Set:

  -Total Gradient:
     Atom            X                  Y                   Z
    ------   -----------------  -----------------  -----------------
       1       -0.000002064969     0.000003825498     0.000422818934
       2       -0.000028084223    -0.000082806164    -0.001232691504
       3       -0.000503913100    -0.000679358341     0.000764240057
       4       -0.000015673972     0.000020599006     0.000325533148
       5        0.000488606128     0.000703037635     0.000553235418
       6        0.000425470022     0.000529683046    -0.000337636683
       7       -0.000033840665    -0.000062922713     0.000060879842
       8        0.000043383256     0.000040458711    -0.000192757496
       9       -0.000364793622    -0.000479713345    -0.000376916598
      10       -0.000013697956     0.000009485092     0.000001930811
      11       -0.000005504179    -0.000000633059     0.000024416213
      12       -0.000050585675    -0.000027528255    -0.000017397829
      13        0.000052849847     0.000028501547    -0.000024466405
      14       -0.000001323343    -0.000017883582    -0.000000906170
      15       -0.000001065629    -0.000000657034     0.000014892046
      16        0.000007368532     0.000013234516    -0.000001529102
      17        0.000004696193     0.000003823878     0.000008712778
      18       -0.000011632197    -0.000002481604    -0.000000486994
      19       -0.000001162513    -0.000000748740     0.000007103941
      20        0.000010968063     0.000002083907     0.000001025593

  **** Optimization is complete! (in 3 steps) ****
    Final optimized geometry and variables:
    Molecular point group: c1

    Geometry (in Angstrom), charge = 0, multiplicity = 1:

    O            1.214622679816     1.306343691980    -0.018493721599
    C            1.121614979615     0.121271550154    -0.020590534204
    C           -0.170744257558    -0.658623973106    -0.012716582460
    O            2.172088458215    -0.689637326676    -0.023050411464
    C           -1.412412962195     0.227893083061    -0.011498722415
    H           -0.155511473646    -1.312331171112    -0.880500679354
    H           -0.150648420450    -1.312779221667     0.854684853177
    C           -2.705869553925    -0.585676330410     0.058838845229
    H           -1.416016797838     0.839405868557    -0.908752048684
    H           -1.363190030271     0.915955071093     0.826298437024
    C           -3.955927633512     0.293146674784     0.055495079007
    H           -2.748373889326    -1.275810532016    -0.781451127974
    H           -2.699664885706    -1.199684379327     0.957133650209
    H           -4.011041317262     0.892059311797    -0.848902163323
    H           -4.858318570389    -0.307645632240     0.110585869324
    H           -3.958233555047     0.973531344479     0.902104529984
    C            3.451831129219    -0.083544859529    -0.026633021946
    H            3.580103739101     0.528223293731    -0.907993897410
    H            4.162695791810    -0.895105143807    -0.028031087841
    H            3.584656292056     0.529137809247     0.853415035372

  Mulliken Charges: (a.u.)
   Center  Symbol    Alpha    Beta     Spin     Total
       1     O     4.28596  4.28596  0.00000 -0.57193
       2     C     2.60546  2.60546  0.00000  0.78907
       3     C     3.20799  3.20799  0.00000 -0.41599
       4     O     4.30723  4.30723  0.00000 -0.61446
       5     C     3.15105  3.15105  0.00000 -0.30210
       6     H     0.40067  0.40067  0.00000  0.19866
       7     H     0.40058  0.40058  0.00000  0.19884
       8     C     3.15428  3.15428  0.00000 -0.30856
       9     H     0.41288  0.41288  0.00000  0.17423
      10     H     0.41094  0.41094  0.00000  0.17811
      11     C     3.23930  3.23930  0.00000 -0.47860
      12     H     0.42302  0.42302  0.00000  0.15397
      13     H     0.42296  0.42296  0.00000  0.15409
      14     H     0.42007  0.42007  0.00000  0.15986
      15     H     0.41874  0.41874  0.00000  0.16252
      16     H     0.41990  0.41990  0.00000  0.16020
      17     C     3.09243  3.09243  0.00000 -0.18487
      18     H     0.40908  0.40908  0.00000  0.18183
      19     H     0.40842  0.40842  0.00000  0.18316
      20     H     0.40903  0.40903  0.00000  0.18194

   Total alpha = 32.00000, Total beta = 32.00000, Total charge =  0.00000
