  ==> Input File <==

--------------------------------------------------------------------------
set {
	reference rhf
	basis 6-31G*
}

set_num_threads( 4 )
memory 2 gb

molecule MOL {
0 1

H	 2.381460	 -0.971345	 0.006807
O	 2.064459	 -0.086912	 -0.111827
C	 0.745630	 0.005118	 0.354752
H	 0.739005	 0.037656	 1.444976
C	 -0.064159	 -1.194875	 -0.122754
C	 -0.046302	 1.193543	 -0.190431
H	 0.197384	 -1.376065	 -1.160690
H	 0.162855	 -2.097978	 0.431858
C	 -1.535782	 -0.752177	 0.006642
H	 0.154512	 1.271315	 -1.255561
H	 0.226209	 2.140461	 0.267302
C	 -1.509193	 0.801505	 0.065617
H	 -2.127797	 -1.112194	 -0.826847
H	 -1.986849	 -1.158408	 0.905561
H	 -2.183670	 1.254107	 -0.651985
H	 -1.821727	 1.144320	 1.047089

	symmetry c1
}
set optking {
	frozen_dihedral = ("
		1 2 3 6
	")
}

ee = optimize('scf')
oeprop('DIPOLE', 'QUADRUPOLE', 'MULLIKEN_CHARGES')
f=open( 'psi4out.xyz', 'w' )
f.write( "16  " )
f.write( str(ee) + "\n" )
f.write( MOL.save_string_xyz() )
f.close()
--------------------------------------------------------------------------

    Molecular point group: c1
  Charge       = 0
  Multiplicity = 1
  Basis Set: 6-31G*
  Basis Set:
  @DF-RHF Final Energy:  -270.01208537363470
    Total Energy =                       -270.0120853736347044
    Molecular point group: c1
  Basis Set: 6-31G*
  Basis Set:
  Basis Set: 6-31G*
  Basis Set:
  @DF-RHF Final Energy:  -270.01363526408829
    Total Energy =                       -270.0136352640881228
  Basis Set: 6-31G*
  Basis Set:
  Basis Set: 6-31G*
  Basis Set:
  @DF-RHF Final Energy:  -270.01381577336832
    Total Energy =                       -270.0138157733683784
  Basis Set: 6-31G*
  Basis Set:
  Basis Set: 6-31G*
  Basis Set:
  @DF-RHF Final Energy:  -270.01382276540767
    Total Energy =                       -270.0138227654075536
  Basis Set: 6-31G*
  Basis Set:
  @DF-RHF Final Energy:  -270.01382535760013
    Total Energy =                       -270.0138253576002967
  Basis Set: 6-31G*
  Basis Set:
  @DF-RHF Final Energy:  -270.01383168824725
    Total Energy =                       -270.0138316882471372
  Basis Set: 6-31G*
  Basis Set:
  Basis Set: 6-31G*
  Basis Set:
  @DF-RHF Final Energy:  -270.01383776875815
    Total Energy =                       -270.0138377687582079
  Basis Set: 6-31G*
  Basis Set:
  Basis Set: 6-31G*
  Basis Set:
  @DF-RHF Final Energy:  -270.01384107243751
    Total Energy =                       -270.0138410724375717
  Basis Set: 6-31G*
  Basis Set:
  Charge       = 0
  Multiplicity = 1
  Basis Set: 6-31G*
  Basis Set:

    Orbital Energies (a.u.)
    -----------------------

    Doubly Occupied:

       1A    -20.551365     2A    -11.268196     3A    -11.218654
       4A    -11.215883     5A    -11.215436     6A    -11.208284
       7A     -1.360544     8A     -1.114326     9A     -0.967219
      10A     -0.948299    11A     -0.792001    12A     -0.778387
      13A     -0.693587    14A     -0.660511    15A     -0.616353
      16A     -0.593212    17A     -0.570483    18A     -0.524772
      19A     -0.501407    20A     -0.483322    21A     -0.471519
      22A     -0.457494    23A     -0.444587    24A     -0.423151

  @DF-RHF Final Energy:  -270.01384140585446

   => Energetics <=

    Nuclear Repulsion Energy =            255.2542994754241761
    One-Electron Energy =                -872.3782956521018832
    Two-Electron Energy =                 347.1101547708232715
    DFT Exchange-Correlation Energy =       0.0000000000000000
    Empirical Dispersion Energy =           0.0000000000000000
    PCM Polarization Energy =               0.0000000000000000
    EFP Energy =                            0.0000000000000000
    Total Energy =                       -270.0138414058544072
    Molecular point group: c1
  Basis Set: 6-31G*
  Basis Set:

  -Total Gradient:
     Atom            X                  Y                   Z
    ------   -----------------  -----------------  -----------------
       1       -0.000583809081    -0.000382581287    -0.001749891361
       2        0.000576671925     0.000244335276     0.001789485140
       3        0.000310234587     0.000752715440     0.000917901582
       4        0.000001656443     0.000007343946     0.000005377004
       5       -0.000033356290    -0.000000519013     0.000005366418
       6       -0.000312888146    -0.000625557568    -0.000950039570
       7        0.000002259596    -0.000001882293    -0.000007950111
       8        0.000001095250    -0.000006610345    -0.000000687749
       9        0.000022991083    -0.000016371989    -0.000001694425
      10       -0.000004851385     0.000008851527    -0.000003584222
      11       -0.000001620472     0.000003821813    -0.000001895593
      12        0.000011230946     0.000006098139    -0.000010489227
      13        0.000007818553     0.000000462790     0.000001769454
      14       -0.000002285630    -0.000000386816     0.000002494375
      15        0.000000155477     0.000006787635     0.000001087195
      16        0.000004697140     0.000003492746     0.000002751089

  **** Optimization is complete! (in 9 steps) ****
    Final optimized geometry and variables:
    Molecular point group: c1

    Geometry (in Angstrom), charge = 0, multiplicity = 1:

    H            2.444730219589    -0.862658758927    -0.020530609443
    O            2.072426801297     0.005454979898    -0.085891015957
    C            0.743336689181    -0.016335527408     0.361153504783
    H            0.721517616664    -0.009913680491     1.451363186043
    C           -0.086002296580    -1.193730545553    -0.153880852547
    C           -0.021665045431     1.188840736638    -0.172013217549
    H            0.137298947660    -1.326051193525    -1.209582880381
    H            0.137308225941    -2.129969682747     0.350470410927
    C           -1.543472279403    -0.740264006702     0.042091933921
    H            0.217142080203     1.292270759598    -1.226126252631
    H            0.255875061410     2.114763208828     0.318753165103
    C           -1.501313129235     0.814599052399     0.025552275062
    H           -2.193023732050    -1.141526827688    -0.727091576711
    H           -1.927727199818    -1.097460258294     0.991789735673
    H           -2.126159526646     1.231039866697    -0.756027139369
    H           -1.872946729572     1.210563866038     0.964878657492

  Mulliken Charges: (a.u.)
   Center  Symbol    Alpha    Beta     Spin     Total
       1     H     0.28137  0.28137  0.00000  0.43727
       2     O     4.37855  4.37855  0.00000 -0.75709
       3     C     2.90190  2.90190  0.00000  0.19620
       4     H     0.42985  0.42985  0.00000  0.14029
       5     C     3.18351  3.18351  0.00000 -0.36703
       6     C     3.16592  3.16592  0.00000 -0.33183
       7     H     0.41515  0.41515  0.00000  0.16969
       8     H     0.41936  0.41936  0.00000  0.16128
       9     C     3.16751  3.16751  0.00000 -0.33502
      10     H     0.41297  0.41297  0.00000  0.17407
      11     H     0.41222  0.41222  0.00000  0.17556
      12     C     3.16992  3.16992  0.00000 -0.33984
      13     H     0.41392  0.41392  0.00000  0.17217
      14     H     0.41679  0.41679  0.00000  0.16641
      15     H     0.41423  0.41423  0.00000  0.17155
      16     H     0.41684  0.41684  0.00000  0.16632

   Total alpha = 24.00000, Total beta = 24.00000, Total charge =  0.00000
