  ==> Input File <==

--------------------------------------------------------------------------
set {
	reference rhf
	basis cc-pvtz
}

set_num_threads( 4 )
memory 2 gb

molecule MOL {
0 1

O	 1.847685	 1.294399	 -0.000190
C	 1.704209	 0.119472	 -0.000093
C	 0.380337	 -0.600947	 -0.000234
O	 2.715427	 -0.733672	 0.000025
C	 -0.824290	 0.329213	 -0.000115
H	 0.371455	 -1.255476	 -0.865660
H	 0.371410	 -1.255787	 0.864952
C	 -2.146151	 -0.432825	 -0.000068
H	 -0.773936	 0.979158	 -0.866319
H	 -0.773838	 0.979034	 0.866186
C	 -3.366283	 0.483552	 0.000557
H	 -2.189286	 -1.084450	 -0.869996
H	 -2.188867	 -1.085083	 0.869399
C	 -3.257199	 1.625635	 1.005126
H	 -4.254511	 -0.103340	 0.216811
H	 -3.507495	 0.892131	 -0.996078
H	 -3.149549	 1.248555	 2.016786
H	 -4.138591	 2.255908	 0.979861
H	 -2.396855	 2.252133	 0.794076
C	 4.020999	 -0.192556	 0.000019
H	 4.182809	 0.412891	 -0.879449
H	 4.692590	 -1.035653	 0.000152
H	 4.182726	 0.413087	 0.879368

	symmetry c1
}
set optking {
	frozen_dihedral = ("
		15 11 8 12
	")
}

ee = optimize('scf')
oeprop('DIPOLE', 'QUADRUPOLE', 'MULLIKEN_CHARGES')
f=open( 'psi4out.xyz', 'w' )
f.write( "23  " )
f.write( str(ee) + "\n" )
f.write( MOL.save_string_xyz() )
f.close()
--------------------------------------------------------------------------

    Molecular point group: c1
  Charge       = 0
  Multiplicity = 1
  Basis Set: CC-PVTZ
  Basis Set:
  @DF-RHF Final Energy:  -423.12651674737009
    Total Energy =                       -423.1265167473702604
    Molecular point group: c1
  Basis Set: CC-PVTZ
  Basis Set:
  Basis Set: CC-PVTZ
  Basis Set:
  @DF-RHF Final Energy:  -423.12725798604879
    Total Energy =                       -423.1272579860487895
  Basis Set: CC-PVTZ
  Basis Set:
  Basis Set: CC-PVTZ
  Basis Set:
  @DF-RHF Final Energy:  -423.12809252642859
    Total Energy =                       -423.1280925264286452
  Basis Set: CC-PVTZ
  Basis Set:
  Basis Set: CC-PVTZ
  Basis Set:
  @DF-RHF Final Energy:  -423.12810474557034
    Total Energy =                       -423.1281047455702264
  Basis Set: CC-PVTZ
  Basis Set:
  Basis Set: CC-PVTZ
  Basis Set:
  @DF-RHF Final Energy:  -423.12788411146687
    Total Energy =                       -423.1278841114672105
  Basis Set: CC-PVTZ
  Basis Set:
  Basis Set: CC-PVTZ
  Basis Set:
  @DF-RHF Final Energy:  -423.12817023972360
    Total Energy =                       -423.1281702397235449
  Basis Set: CC-PVTZ
  Basis Set:
  Basis Set: CC-PVTZ
  Basis Set:
  @DF-RHF Final Energy:  -423.12817326141584
    Total Energy =                       -423.1281732614157818
  Basis Set: CC-PVTZ
  Basis Set:
  Charge       = 0
  Multiplicity = 1
  Basis Set: CC-PVTZ
  Basis Set:

    Orbital Energies (a.u.)
    -----------------------

    Doubly Occupied:

       1A    -20.596233     2A    -20.534049     3A    -11.364447
       4A    -11.278425     5A    -11.233563     6A    -11.216611
       7A    -11.216018     8A    -11.215007     9A    -11.205530
      10A     -1.472114    11A     -1.365676    12A     -1.094076
      13A     -1.042590    14A     -0.985742    15A     -0.931534
      16A     -0.857922    17A     -0.781731    18A     -0.768049
      19A     -0.698843    20A     -0.686547    21A     -0.676037
      22A     -0.647485    23A     -0.613621    24A     -0.598573
      25A     -0.591259    26A     -0.561212    27A     -0.535466
      28A     -0.526443    29A     -0.520292    30A     -0.517120
      31A     -0.491696    32A     -0.465646    33A     -0.463514
      34A     -0.460027    35A     -0.457603    36A     -0.438217

  @DF-RHF Final Energy:  -423.12817382964721

   => Energetics <=

    Nuclear Repulsion Energy =            458.6625931564954612
    One-Electron Energy =               -1485.3636895321394604
    Two-Electron Energy =                 603.5729225459966756
    DFT Exchange-Correlation Energy =       0.0000000000000000
    Empirical Dispersion Energy =           0.0000000000000000
    PCM Polarization Energy =               0.0000000000000000
    EFP Energy =                            0.0000000000000000
    Total Energy =                       -423.1281738296473804
    Molecular point group: c1
  Basis Set: CC-PVTZ
  Basis Set:

  -Total Gradient:
     Atom            X                  Y                   Z
    ------   -----------------  -----------------  -----------------
       1       -0.000004651370     0.000002631083    -0.000013137708
       2        0.000001381071     0.000005952254     0.000027119992
       3        0.000001722251    -0.000002132891     0.000005598306
       4       -0.000005642673    -0.000007519974    -0.000004351911
       5       -0.000001129240     0.000006400888    -0.000022294480
       6       -0.000002796171     0.000000680436    -0.000006665607
       7        0.000000860749     0.000000050712    -0.000004656891
       8       -0.002439549122    -0.003090775380     0.003410338242
       9        0.000011154791     0.000004286478    -0.000000762168
      10        0.000000526194    -0.000001950919     0.000001026683
      11        0.000098053537    -0.000348908418    -0.005191868424
      12        0.002045812845     0.002675912766    -0.002076241224
      13       -0.000004715839    -0.000011902173     0.000004725011
      14        0.000003499469    -0.000011471724     0.000007683174
      15        0.000303190672     0.000774866686     0.003870580450
      16       -0.000002497139    -0.000001172263    -0.000011706912
      17        0.000000206973     0.000006722013     0.000006372316
      18        0.000002275087    -0.000004989911    -0.000000761824
      19       -0.000002969958     0.000001172502    -0.000000590886
      20       -0.000002536169     0.000003030124     0.000000594222
      21       -0.000000167963     0.000000079247    -0.000000476305
      22       -0.000002055580    -0.000000862468    -0.000000370191
      23        0.000000027590    -0.000000099064    -0.000000153866

  **** Optimization is complete! (in 8 steps) ****
    Final optimized geometry and variables:
    Molecular point group: c1

    Geometry (in Angstrom), charge = 0, multiplicity = 1:

    O            1.724789034136     1.060666664542    -0.062902895337
    C            1.562882646184    -0.110900788735    -0.112104583476
    C            0.228158730386    -0.810986670385    -0.119388959000
    O            2.560614649784    -0.978006788817    -0.168729298278
    C           -0.961455228767     0.136955750808    -0.061606824158
    H            0.196074811755    -1.431227881879    -1.009039310390
    H            0.222677920083    -1.498909053974     0.719983989989
    C           -2.290393306507    -0.618606095619    -0.055400716309
    H           -0.923159213270     0.809526532001    -0.911968142522
    H           -0.870768982912     0.758688992790     0.819138667738
    C           -3.534404782970     0.271974556455    -0.139755083980
    H           -2.293576569006    -1.284711687826    -0.914152144256
    H           -2.347029757345    -1.241222128422     0.833556667747
    C           -3.567771300613     1.428975588228     0.858219442706
    H           -4.405078632536    -0.347566106271     0.051394590433
    H           -3.633964940760     0.663766767255    -1.147210601823
    H           -3.438468039111     1.072806481323     1.875595189892
    H           -4.520723796395     1.943217490383     0.809528707129
    H           -2.792914309934     2.159477077077     0.662576181418
    C            3.874168777104    -0.456828501636    -0.168800551234
    H            4.029792322325     0.184975171496    -1.023269339125
    H            4.532480864093    -1.308899212945    -0.218669467786
    H            4.061102584939     0.106346263485     0.733495916833

  Mulliken Charges: (a.u.)
   Center  Symbol    Alpha    Beta     Spin     Total
       1     O     4.19723  4.19723  0.00000 -0.39445
       2     C     2.80599  2.80599  0.00000  0.38802
       3     C     3.10274  3.10274  0.00000 -0.20548
       4     O     4.14633  4.14633  0.00000 -0.29265
       5     C     3.08692  3.08692  0.00000 -0.17385
       6     H     0.43915  0.43915  0.00000  0.12169
       7     H     0.44010  0.44010  0.00000  0.11980
       8     C     3.09882  3.09882  0.00000 -0.19763
       9     H     0.44597  0.44597  0.00000  0.10806
      10     H     0.44360  0.44360  0.00000  0.11281
      11     C     3.08903  3.08903  0.00000 -0.17807
      12     H     0.45164  0.45164  0.00000  0.09673
      13     H     0.45262  0.45262  0.00000  0.09477
      14     C     3.15670  3.15670  0.00000 -0.31339
      15     H     0.44961  0.44961  0.00000  0.10078
      16     H     0.45216  0.45216  0.00000  0.09569
      17     H     0.45461  0.45461  0.00000  0.09078
      18     H     0.44573  0.44573  0.00000  0.10854
      19     H     0.44920  0.44920  0.00000  0.10161
      20     C     3.03775  3.03775  0.00000 -0.07550
      21     H     0.45440  0.45440  0.00000  0.09120
      22     H     0.44538  0.44538  0.00000  0.10925
      23     H     0.45435  0.45435  0.00000  0.09130

   Total alpha = 36.00000, Total beta = 36.00000, Total charge = -0.00000
