  ==> Input File <==

--------------------------------------------------------------------------
set {
	reference rhf
	basis 6-31G*
}

set_num_threads( 4 )
memory 2 gb

molecule MOL {
0 1

O	 0.625848	 1.349995	 -0.000749
C	 0.486307	 0.169203	 0.000779
C	 1.608116	 -0.841643	 0.000302
O	 -0.698257	 -0.426125	 0.001050
C	 2.990107	 -0.200498	 -0.000684
H	 1.468623	 -1.481519	 -0.865924
H	 1.469683	 -1.481289	 0.866878
H	 3.129736	 0.423364	 -0.875135
H	 3.757882	 -0.966877	 -0.001197
H	 3.130964	 0.423383	 0.873533
C	 -1.091747	 -1.107602	 1.187707
C	 -2.465249	 -1.694410	 0.939798
H	 -1.099344	 -0.406282	 2.010918
H	 -0.363471	 -1.875138	 1.411521
H	 -3.181786	 -0.913574	 0.711700
H	 -2.805176	 -2.225140	 1.823214
H	 -2.441984	 -2.390542	 0.109066

	symmetry c1
}
set optking {
	frozen_dihedral = ("
		11 4 2 3
	")
}

ee = optimize('scf')
oeprop('DIPOLE', 'QUADRUPOLE', 'MULLIKEN_CHARGES')
f=open( 'psi4out.xyz', 'w' )
f.write( "17  " )
f.write( str(ee) + "\n" )
f.write( MOL.save_string_xyz() )
f.close()
--------------------------------------------------------------------------

    Molecular point group: c1
  Charge       = 0
  Multiplicity = 1
  Basis Set: 6-31G*
  Basis Set:
  @DF-RHF Final Energy:  -344.88826881639710
    Total Energy =                       -344.8882688163969306
    Molecular point group: c1
  Basis Set: 6-31G*
  Basis Set:
  Basis Set: 6-31G*
  Basis Set:
  @DF-RHF Final Energy:  -344.89018696219051
    Total Energy =                       -344.8901869621905689
  Basis Set: 6-31G*
  Basis Set:
  Basis Set: 6-31G*
  Basis Set:
  @DF-RHF Final Energy:  -344.89107368437732
    Total Energy =                       -344.8910736843772611
  Basis Set: 6-31G*
  Basis Set:
  Basis Set: 6-31G*
  Basis Set:
  @DF-RHF Final Energy:  -344.89164129850764
    Total Energy =                       -344.8916412985080910
  Basis Set: 6-31G*
  Basis Set:
  Basis Set: 6-31G*
  Basis Set:
  @DF-RHF Final Energy:  -344.89166946710202
    Total Energy =                       -344.8916694671021332
  Basis Set: 6-31G*
  Basis Set:
  Basis Set: 6-31G*
  Basis Set:
  @DF-RHF Final Energy:  -344.89167876251315
    Total Energy =                       -344.8916787625130382
  Basis Set: 6-31G*
  Basis Set:
  Charge       = 0
  Multiplicity = 1
  Basis Set: 6-31G*
  Basis Set:

    Orbital Energies (a.u.)
    -----------------------

    Doubly Occupied:

       1A    -20.584999     2A    -20.553433     3A    -11.373676
       4A    -11.297967     5A    -11.243231     6A    -11.225287
       7A    -11.219201     8A     -1.457207     9A     -1.366494
      10A     -1.064069    11A     -1.039938    12A     -0.902199
      13A     -0.870614    14A     -0.769997    15A     -0.701943
      16A     -0.685571    17A     -0.655324    18A     -0.639088
      19A     -0.601715    20A     -0.562793    21A     -0.558107
      22A     -0.535489    23A     -0.526916    24A     -0.518680
      25A     -0.507960    26A     -0.484758    27A     -0.451454
      28A     -0.433843

  @DF-RHF Final Energy:  -344.89167946361272

   => Energetics <=

    Nuclear Repulsion Energy =            314.3530496470873459
    One-Electron Energy =               -1092.8255472739365359
    Two-Electron Energy =                 433.5808181632363585
    DFT Exchange-Correlation Energy =       0.0000000000000000
    Empirical Dispersion Energy =           0.0000000000000000
    PCM Polarization Energy =               0.0000000000000000
    EFP Energy =                            0.0000000000000000
    Total Energy =                       -344.8916794636128316
    Molecular point group: c1
  Basis Set: 6-31G*
  Basis Set:

  -Total Gradient:
     Atom            X                  Y                   Z
    ------   -----------------  -----------------  -----------------
       1       -0.000014639507    -0.000076805750    -0.000006404626
       2       -0.000312852390     0.000527571540     0.001780647579
       3        0.000070033879     0.000036047061    -0.001060644514
       4        0.000852893365    -0.001559873004    -0.001092044889
       5       -0.000001080577    -0.000033520361    -0.000006472134
       6       -0.000020965251     0.000020597877    -0.000009151712
       7       -0.000019155225    -0.000009951094    -0.000000553260
       8       -0.000000811954     0.000003251832    -0.000009356607
       9       -0.000009049805     0.000008625880     0.000001970312
      10        0.000003990726     0.000006880387     0.000014021459
      11       -0.000548494799     0.001121050289     0.000355239435
      12       -0.000012535807    -0.000015776511     0.000020112339
      13       -0.000022600162    -0.000020157996     0.000054369210
      14        0.000024061123    -0.000002139026    -0.000033800843
      15        0.000007972575     0.000002959147     0.000000062829
      16        0.000005297190    -0.000009147362    -0.000004879247
      17       -0.000002063382     0.000000387091    -0.000003115329

  **** Optimization is complete! (in 7 steps) ****
    Final optimized geometry and variables:
    Molecular point group: c1

    Geometry (in Angstrom), charge = 0, multiplicity = 1:

    O            0.381722708833     1.681823320886    -0.365670780123
    C            0.315418340158     0.505247155510    -0.279135614251
    C            1.519054097348    -0.410902683661    -0.235787278174
    O           -0.879497427425    -0.122136471939    -0.301141825388
    C            2.844298252140     0.333030427961    -0.347911608998
    H            1.398826375228    -1.129716457243    -1.041481881974
    H            1.483973800112    -0.988369911068     0.684067011745
    H            2.899840252978     0.889446903596    -1.275324533999
    H            3.671017832066    -0.368711692493    -0.318978128161
    H            2.965086121763     1.037757584803     0.465707945000
    C           -1.327202302794    -0.803420915018     0.859669171251
    C           -2.776870833124    -1.180152274908     0.638627929703
    H           -1.227109223372    -0.151062105371     1.720824940461
    H           -0.724639380191    -1.689412908424     1.029307583751
    H           -3.376653024988    -0.292547675539     0.478835316963
    H           -3.160702825028    -1.710847985440     1.504012441259
    H           -2.872419235480    -1.820511444197    -0.230515059117

  Mulliken Charges: (a.u.)
   Center  Symbol    Alpha    Beta     Spin     Total
       1     O     4.25198  4.25198  0.00000 -0.50395
       2     C     2.61177  2.61177  0.00000  0.77646
       3     C     3.21736  3.21736  0.00000 -0.43472
       4     O     4.31878  4.31878  0.00000 -0.63755
       5     C     3.23750  3.23750  0.00000 -0.47501
       6     H     0.39920  0.39920  0.00000  0.20161
       7     H     0.40679  0.40679  0.00000  0.18643
       8     H     0.40799  0.40799  0.00000  0.18401
       9     H     0.41841  0.41841  0.00000  0.16318
      10     H     0.40973  0.40973  0.00000  0.18055
      11     C     3.00342  3.00342  0.00000 -0.00684
      12     C     3.24549  3.24549  0.00000 -0.49098
      13     H     0.41597  0.41597  0.00000  0.16807
      14     H     0.42209  0.42209  0.00000  0.15581
      15     H     0.40562  0.40562  0.00000  0.18875
      16     H     0.41809  0.41809  0.00000  0.16383
      17     H     0.40982  0.40982  0.00000  0.18037

   Total alpha = 28.00000, Total beta = 28.00000, Total charge = -0.00000
