  ==> Input File <==

--------------------------------------------------------------------------
set {
	reference rhf
	basis 6-31G*
}

set_num_threads( 4 )
memory 2 gb

molecule MOL {
0 1

O	 1.846825	 1.296220	 0.000415
C	 1.705091	 0.115954	 0.001797
C	 0.381791	 -0.609817	 0.001258
O	 2.721346	 -0.737485	 -0.000216
C	 -0.823008	 0.326187	 0.001381
H	 0.371250	 -1.265087	 -0.865474
H	 0.370908	 -1.265746	 0.867490
C	 -1.180315	 0.812501	 -1.403927
H	 -0.615640	 1.175844	 0.644241
H	 -1.673046	 -0.185094	 0.442217
C	 -2.386306	 1.753304	 -1.422256
H	 -0.322760	 1.321161	 -1.841948
H	 -1.384832	 -0.044193	 -2.044342
C	 -2.743584	 2.237912	 -2.826805
H	 -2.182581	 2.610929	 -0.784984
H	 -3.243987	 1.246313	 -0.985815
H	 -1.916617	 2.779697	 -3.277147
H	 -3.601883	 2.902271	 -2.806785
H	 -2.986029	 1.404122	 -3.479740
C	 4.024888	 -0.184556	 -0.001949
H	 4.179030	 0.422472	 -0.882452
H	 4.701782	 -1.024608	 -0.003642
H	 4.181981	 0.421185	 0.878906

	symmetry c1
}
set optking {
	frozen_dihedral = ("
		9 5 3 6
	")
}

ee = optimize('scf')
oeprop('DIPOLE', 'QUADRUPOLE', 'MULLIKEN_CHARGES')
f=open( 'psi4out.xyz', 'w' )
f.write( "23  " )
f.write( str(ee) + "\n" )
f.write( MOL.save_string_xyz() )
f.close()
--------------------------------------------------------------------------

    Molecular point group: c1
  Charge       = 0
  Multiplicity = 1
  Basis Set: 6-31G*
  Basis Set:
  @DF-RHF Final Energy:  -422.97508385539248
    Total Energy =                       -422.9750838553928816
    Molecular point group: c1
  Basis Set: 6-31G*
  Basis Set:
  Basis Set: 6-31G*
  Basis Set:
  @DF-RHF Final Energy:  -422.97520833890150
    Total Energy =                       -422.9752083389016661
  Basis Set: 6-31G*
  Basis Set:
  Basis Set: 6-31G*
  Basis Set:
  @DF-RHF Final Energy:  -422.97405295116806
    Total Energy =                       -422.9740529511690283
  Basis Set: 6-31G*
  Basis Set:
  Basis Set: 6-31G*
  Basis Set:
  @DF-RHF Final Energy:  -422.97532530221230
    Total Energy =                       -422.9753253022121271
  Basis Set: 6-31G*
  Basis Set:
  Basis Set: 6-31G*
  Basis Set:
  @DF-RHF Final Energy:  -422.97533008700890
    Total Energy =                       -422.9753300870085013
  Basis Set: 6-31G*
  Basis Set:
  Basis Set: 6-31G*
  Basis Set:
  @DF-RHF Final Energy:  -422.97533561069196
    Total Energy =                       -422.9753356106915589
  Basis Set: 6-31G*
  Basis Set:
  Charge       = 0
  Multiplicity = 1
  Basis Set: 6-31G*
  Basis Set:

    Orbital Energies (a.u.)
    -----------------------

    Doubly Occupied:

       1A    -20.604486     2A    -20.546492     3A    -11.373063
       4A    -11.281454     5A    -11.235716     6A    -11.218693
       7A    -11.212906     8A    -11.211982     9A    -11.206257
      10A     -1.470299    11A     -1.363574    12A     -1.090586
      13A     -1.041282    14A     -0.986035    15A     -0.929990
      16A     -0.843119    17A     -0.793057    18A     -0.766334
      19A     -0.702218    20A     -0.681112    21A     -0.672128
      22A     -0.639229    23A     -0.613633    24A     -0.598793
      25A     -0.568772    26A     -0.556335    27A     -0.553072
      28A     -0.531315    29A     -0.522524    30A     -0.499161
      31A     -0.491435    32A     -0.465312    33A     -0.464646
      34A     -0.455578    35A     -0.450296    36A     -0.437403

  @DF-RHF Final Energy:  -422.97533653807227

   => Energetics <=

    Nuclear Repulsion Energy =            461.5301359156987928
    One-Electron Energy =               -1490.8543789244008622
    Two-Electron Energy =                 606.3489064706301406
    DFT Exchange-Correlation Energy =       0.0000000000000000
    Empirical Dispersion Energy =           0.0000000000000000
    PCM Polarization Energy =               0.0000000000000000
    EFP Energy =                            0.0000000000000000
    Total Energy =                       -422.9753365380719288
    Molecular point group: c1
  Basis Set: 6-31G*
  Basis Set:

  -Total Gradient:
     Atom            X                  Y                   Z
    ------   -----------------  -----------------  -----------------
       1       -0.000047759883    -0.000014983409    -0.000034480019
       2        0.000022143719     0.000028839797     0.000026330536
       3       -0.001484886047    -0.001886065328     0.001196191120
       4       -0.000010310008     0.000002869117     0.000018779887
       5       -0.000866073989    -0.001097236094     0.002140699080
       6        0.001333150285     0.001728546731    -0.001347152612
       7       -0.000029145777    -0.000001652897    -0.000022372566
       8        0.000088103285    -0.000014381026    -0.000038373865
       9        0.000988129801     0.001218754638    -0.001967895873
      10        0.000019812541     0.000026614133     0.000026246062
      11       -0.000013371129    -0.000015834580     0.000027551470
      12       -0.000004742778    -0.000001644803     0.000003885797
      13        0.000004853851     0.000022292202    -0.000018000233
      14       -0.000003297285    -0.000008696046    -0.000010826714
      15       -0.000001436280     0.000012081795    -0.000008459529
      16        0.000008524320     0.000007791155     0.000011738629
      17       -0.000001234864    -0.000003465338     0.000003800973
      18       -0.000002234654    -0.000003702677     0.000001171812
      19       -0.000002281574    -0.000000533962    -0.000003550513
      20        0.000002472447     0.000000063905    -0.000004789275
      21        0.000001102721    -0.000000134581     0.000000006069
      22       -0.000000216373     0.000000373253    -0.000000590546
      23       -0.000001302335     0.000000104016     0.000000090310

  **** Optimization is complete! (in 7 steps) ****
    Final optimized geometry and variables:
    Molecular point group: c1

    Geometry (in Angstrom), charge = 0, multiplicity = 1:

    O            1.403561543241     0.737871746656     0.672906535134
    C            1.264399280979    -0.442799118105     0.646007454656
    C           -0.055929889140    -1.179344281735     0.659336358789
    O            2.283366118973    -1.291329940479     0.605138697045
    C           -1.271833232439    -0.252027578572     0.630003949891
    H           -0.046415283806    -1.847296488783    -0.197129517564
    H           -0.054756221005    -1.812101965779     1.541723599803
    C           -1.613281114023     0.245016831978    -0.777126196034
    H           -1.077013902268     0.605402100241     1.264096905368
    H           -2.126777495945    -0.779155549022     1.044256044498
    C           -2.810681988162     1.196014183655    -0.799179020053
    H           -0.747601866920     0.749573791060    -1.198189939880
    H           -1.821640823660    -0.608687295535    -1.421005670382
    C           -3.159620890739     1.682095700357    -2.205408822179
    H           -2.598855640076     2.052725722320    -0.163706368539
    H           -3.675460918652     0.698433494648    -0.364528272930
    H           -2.325014626711     2.213387251577    -2.653773180660
    H           -4.010340233743     2.356355365001    -2.188795902291
    H           -3.410037840200     0.849989596359    -2.857654638660
    C            3.585208236660    -0.733996022817     0.597238182978
    H            3.723731714694    -0.104900386258    -0.270229862219
    H            4.264410324342    -1.571538477493     0.564131547877
    H            3.753992814765    -0.149941090333     1.490454161208

  Mulliken Charges: (a.u.)
   Center  Symbol    Alpha    Beta     Spin     Total
       1     O     4.28680  4.28680  0.00000 -0.57359
       2     C     2.60798  2.60798  0.00000  0.78404
       3     C     3.20836  3.20836  0.00000 -0.41673
       4     O     4.30632  4.30632  0.00000 -0.61264
       5     C     3.15721  3.15721  0.00000 -0.31443
       6     H     0.40016  0.40016  0.00000  0.19968
       7     H     0.39748  0.39748  0.00000  0.20504
       8     C     3.15527  3.15527  0.00000 -0.31053
       9     H     0.40464  0.40464  0.00000  0.19073
      10     H     0.41908  0.41908  0.00000  0.16185
      11     C     3.15234  3.15234  0.00000 -0.30469
      12     H     0.41282  0.41282  0.00000  0.17435
      13     H     0.42678  0.42678  0.00000  0.14645
      14     C     3.23950  3.23950  0.00000 -0.47900
      15     H     0.41947  0.41947  0.00000  0.16107
      16     H     0.42455  0.42455  0.00000  0.15090
      17     H     0.42028  0.42028  0.00000  0.15944
      18     H     0.41951  0.41951  0.00000  0.16098
      19     H     0.42283  0.42283  0.00000  0.15435
      20     C     3.09229  3.09229  0.00000 -0.18459
      21     H     0.40902  0.40902  0.00000  0.18196
      22     H     0.40833  0.40833  0.00000  0.18334
      23     H     0.40899  0.40899  0.00000  0.18202

   Total alpha = 36.00000, Total beta = 36.00000, Total charge =  0.00000
