  ==> Input File <==

--------------------------------------------------------------------------
set {
	reference rhf
	basis 6-31G*
}

set_num_threads( 4 )
memory 2 gb

molecule MOL {
0 1

H	 -2.780847	 0.406381	 -0.160255
C	 -2.238075	 0.590301	 -1.079449
C	 -0.965468	 -0.246131	 -1.139533
H	 -2.009630	 1.648420	 -1.117923
H	 -2.887573	 0.349588	 -1.914606
C	 -0.000005	 0.033229	 -0.000001
H	 -0.436577	 -0.077361	 -2.075581
H	 -1.201019	 -1.308552	 -1.126377
C	 1.290528	 -0.768786	 0.000276
O	 -0.241716	 0.837582	 0.847216
C	 2.545731	 0.095645	 -0.000061
H	 1.275672	 -1.427874	 -0.865626
H	 1.275566	 -1.427086	 0.866768
H	 2.577157	 0.734767	 -0.874036
H	 3.433520	 -0.528139	 0.000137
H	 2.577172	 0.735117	 0.873581

	symmetry c1
}
set optking {
	frozen_dihedral = ("
		3 6 9 12
	")
}

ee = optimize('scf')
oeprop('DIPOLE', 'QUADRUPOLE', 'MULLIKEN_CHARGES')
f=open( 'psi4out.xyz', 'w' )
f.write( "16  " )
f.write( str(ee) + "\n" )
f.write( MOL.save_string_xyz() )
f.close()
--------------------------------------------------------------------------

    Molecular point group: c1
  Charge       = 0
  Multiplicity = 1
  Basis Set: 6-31G*
  Basis Set:
  @DF-RHF Final Energy:  -270.03100657292453
    Total Energy =                       -270.0310065729245252
    Molecular point group: c1
  Basis Set: 6-31G*
  Basis Set:
  Basis Set: 6-31G*
  Basis Set:
  @DF-RHF Final Energy:  -270.03134085082092
    Total Energy =                       -270.0313408508210955
  Basis Set: 6-31G*
  Basis Set:
  Basis Set: 6-31G*
  Basis Set:
  @DF-RHF Final Energy:  -270.02940940319650
    Total Energy =                       -270.0294094031963823
  Basis Set: 6-31G*
  Basis Set:
  Basis Set: 6-31G*
  Basis Set:
  @DF-RHF Final Energy:  -270.03157723849091
    Total Energy =                       -270.0315772384909678
  Basis Set: 6-31G*
  Basis Set:
  Basis Set: 6-31G*
  Basis Set:
  @DF-RHF Final Energy:  -270.03160536588030
    Total Energy =                       -270.0316053658802389
  Basis Set: 6-31G*
  Basis Set:
  Basis Set: 6-31G*
  Basis Set:
  @DF-RHF Final Energy:  -270.03160643010563
    Total Energy =                       -270.0316064301058532
  Basis Set: 6-31G*
  Basis Set:
  Charge       = 0
  Multiplicity = 1
  Basis Set: 6-31G*
  Basis Set:

    Orbital Energies (a.u.)
    -----------------------

    Doubly Occupied:

       1A    -20.548746     2A    -11.323514     3A    -11.234539
       4A    -11.232461     5A    -11.221248     6A    -11.213323
       7A     -1.394862     8A     -1.068668     9A     -1.036903
      10A     -0.913921    11A     -0.850757    12A     -0.725700
      13A     -0.665854    14A     -0.642236    15A     -0.622838
      16A     -0.601251    17A     -0.565167    18A     -0.535639
      19A     -0.527684    20A     -0.511840    21A     -0.502531
      22A     -0.496736    23A     -0.476830    24A     -0.396802

  @DF-RHF Final Energy:  -270.03160661568228

   => Energetics <=

    Nuclear Repulsion Energy =            240.0865672830841504
    One-Electron Energy =                -841.6162499142458273
    Two-Electron Energy =                 331.4980760154792847
    DFT Exchange-Correlation Energy =       0.0000000000000000
    Empirical Dispersion Energy =           0.0000000000000000
    PCM Polarization Energy =               0.0000000000000000
    EFP Energy =                            0.0000000000000000
    Total Energy =                       -270.0316066156823922
    Molecular point group: c1
  Basis Set: 6-31G*
  Basis Set:

  -Total Gradient:
     Atom            X                  Y                   Z
    ------   -----------------  -----------------  -----------------
       1        0.000005119803    -0.000003461359    -0.000001742747
       2        0.000003111901     0.000008227297    -0.000009407520
       3        0.000246546143     0.000395801865    -0.000306072729
       4       -0.000003518310     0.000002377034     0.000000687711
       5       -0.000002451817     0.000001550297     0.000000045274
       6       -0.000459457037    -0.000738625179     0.000570027295
       7       -0.000001904644     0.000003460005     0.000002214923
       8        0.000002234665    -0.000000005563    -0.000002703973
       9        0.000555314083     0.000887541145    -0.000674964127
      10       -0.000005466780     0.000008938450     0.000003193498
      11       -0.000003857897    -0.000012414628     0.000000563111
      12       -0.000337560882    -0.000546759165     0.000420577989
      13       -0.000001387139    -0.000006689539     0.000000572251
      14        0.000001033370     0.000000507822     0.000002209941
      15        0.000005564505     0.000001139698     0.000000520882
      16       -0.000003319964    -0.000001588180    -0.000005721779

  **** Optimization is complete! (in 7 steps) ****
    Final optimized geometry and variables:
    Molecular point group: c1

    Geometry (in Angstrom), charge = 0, multiplicity = 1:

    H           -2.843464547951     0.315045954245     0.089027478166
    C           -2.308654601228     0.503799578269    -0.833922793260
    C           -1.044106623685    -0.341420786257    -0.913766475413
    H           -2.071431766004     1.560273764618    -0.863614047511
    H           -2.968807088823     0.277240595154    -1.664680256670
    C           -0.063132825879    -0.084369326018     0.212689535764
    H           -0.517196529677    -0.168711933325    -1.851269551689
    H           -1.283071716145    -1.403851355759    -0.909769711449
    C            1.225629962355    -0.894252146374     0.214354371860
    O           -0.274650050107     0.721852592721     1.067099401393
    C            2.463729666072     0.005900635129     0.234677862311
    H            1.253347690798    -1.570390888687    -0.634103127359
    H            1.209920965011    -1.509222664081     1.110258687056
    H            2.525146430472     0.611266791936    -0.664623871692
    H            3.367212894744    -0.590971085191     0.296098400219
    H            2.431131487617     0.671600247084     1.087463089398

  Mulliken Charges: (a.u.)
   Center  Symbol    Alpha    Beta     Spin     Total
       1     H     0.41057  0.41057  0.00000  0.17887
       2     C     3.23538  3.23538  0.00000 -0.47075
       3     C     3.20936  3.20936  0.00000 -0.41871
       4     H     0.41026  0.41026  0.00000  0.17948
       5     H     0.42001  0.42001  0.00000  0.15998
       6     C     2.73377  2.73377  0.00000  0.53245
       7     H     0.40863  0.40863  0.00000  0.18274
       8     H     0.40853  0.40853  0.00000  0.18295
       9     C     3.19985  3.19985  0.00000 -0.39970
      10     O     4.26679  4.26679  0.00000 -0.53357
      11     C     3.24379  3.24379  0.00000 -0.48758
      12     H     0.41504  0.41504  0.00000  0.16991
      13     H     0.40210  0.40210  0.00000  0.19581
      14     H     0.41884  0.41884  0.00000  0.16231
      15     H     0.41552  0.41552  0.00000  0.16896
      16     H     0.40157  0.40157  0.00000  0.19686

   Total alpha = 24.00000, Total beta = 24.00000, Total charge =  0.00000
