  ==> Input File <==

--------------------------------------------------------------------------
set {
	reference rhf
	basis 6-31G*
}

set_num_threads( 4 )
memory 2 gb

molecule MOL {
0 1

H	 3.696710	 0.121746	 -0.778349
N	 3.092854	 -0.246221	 -0.068770
C	 1.865559	 0.531981	 0.018834
H	 3.599805	 -0.200697	 0.794803
C	 0.645745	 -0.382037	 -0.029944
H	 1.841966	 1.207024	 -0.831236
H	 1.815756	 1.155410	 0.915079
C	 -0.679275	 0.379305	 0.025956
H	 0.698998	 -0.976915	 -0.937203
H	 0.693479	 -1.083846	 0.802235
C	 -1.903357	 -0.536963	 -0.023547
H	 -0.726309	 1.082987	 -0.803784
H	 -0.717680	 0.977832	 0.934877
C	 -3.225172	 0.228290	 0.028445
H	 -1.867824	 -1.134999	 -0.931459
H	 -1.860449	 -1.239604	 0.805977
H	 -3.313397	 0.915643	 -0.808262
H	 -4.073500	 -0.448134	 -0.008893
H	 -3.306061	 0.809945	 0.942516

	symmetry c1
}
set optking {
	frozen_dihedral = ("
		1 2 3 6
	")
}

ee = optimize('scf')
oeprop('DIPOLE', 'QUADRUPOLE', 'MULLIKEN_CHARGES')
f=open( 'psi4out.xyz', 'w' )
f.write( "19  " )
f.write( str(ee) + "\n" )
f.write( MOL.save_string_xyz() )
f.close()
--------------------------------------------------------------------------

    Molecular point group: c1
  Charge       = 0
  Multiplicity = 1
  Basis Set: 6-31G*
  Basis Set:
  @DF-RHF Final Energy:  -251.34817126584920
    Total Energy =                       -251.3481712658491460
    Molecular point group: c1
  Basis Set: 6-31G*
  Basis Set:
  Basis Set: 6-31G*
  Basis Set:
  @DF-RHF Final Energy:  -251.34862673743305
    Total Energy =                       -251.3486267374331078
  Basis Set: 6-31G*
  Basis Set:
  Basis Set: 6-31G*
  Basis Set:
  @DF-RHF Final Energy:  -251.34878678308652
    Total Energy =                       -251.3487867830865525
  Basis Set: 6-31G*
  Basis Set:
  Basis Set: 6-31G*
  Basis Set:
  @DF-RHF Final Energy:  -251.34878986640135
    Total Energy =                       -251.3487898664013187
  Basis Set: 6-31G*
  Basis Set:
  Basis Set: 6-31G*
  Basis Set:
  @DF-RHF Final Energy:  -251.34879133848639
    Total Energy =                       -251.3487913384864214
  Basis Set: 6-31G*
  Basis Set:
  Charge       = 0
  Multiplicity = 1
  Basis Set: 6-31G*
  Basis Set:

    Orbital Energies (a.u.)
    -----------------------

    Doubly Occupied:

       1A    -15.530110     2A    -11.240372     3A    -11.211672
       4A    -11.209606     5A    -11.205878     6A    -11.202780
       7A     -1.172408     8A     -1.070254     9A     -0.996457
      10A     -0.899415    11A     -0.810155    12A     -0.785003
      13A     -0.675324    14A     -0.634661    15A     -0.613598
      16A     -0.577921    17A     -0.568440    18A     -0.553968
      19A     -0.517449    20A     -0.504622    21A     -0.472157
      22A     -0.462189    23A     -0.456950    24A     -0.455147
      25A     -0.374779

  @DF-RHF Final Energy:  -251.34879155650313

   => Energetics <=

    Nuclear Repulsion Energy =            245.1656210205377135
    One-Electron Energy =                -824.6261964211626037
    Two-Electron Energy =                 328.1117838441217600
    DFT Exchange-Correlation Energy =       0.0000000000000000
    Empirical Dispersion Energy =           0.0000000000000000
    PCM Polarization Energy =               0.0000000000000000
    EFP Energy =                            0.0000000000000000
    Total Energy =                       -251.3487915565031017
    Molecular point group: c1
  Basis Set: 6-31G*
  Basis Set:

  -Total Gradient:
     Atom            X                  Y                   Z
    ------   -----------------  -----------------  -----------------
       1       -0.000740984539    -0.001086365394    -0.001249208889
       2        0.001100524494     0.001658218092     0.001779440495
       3       -0.001104688551    -0.001715598383    -0.001428418011
       4       -0.000005026925    -0.000007185860    -0.000000882015
       5        0.000016301752     0.000020204308    -0.000002037536
       6        0.000748295385     0.001127861432     0.000906697326
       7        0.000001169927     0.000020291982     0.000015390108
       8       -0.000008703486    -0.000013470490    -0.000019343792
       9       -0.000008055755    -0.000002509550     0.000002259147
      10        0.000001085971    -0.000002497921     0.000000794102
      11       -0.000010887030     0.000005193152     0.000000521524
      12        0.000000569289    -0.000001042239    -0.000007566638
      13        0.000002317773    -0.000003071459    -0.000008168847
      14        0.000003783108    -0.000000959057     0.000009846041
      15       -0.000000339807     0.000005417121    -0.000002041869
      16        0.000003350374    -0.000005030558     0.000000015115
      17        0.000001753862    -0.000001270089    -0.000000291316
      18        0.000002478100    -0.000000629367     0.000001644991
      19       -0.000002943939     0.000002444280     0.000001350066

  **** Optimization is complete! (in 6 steps) ****
    Final optimized geometry and variables:
    Molecular point group: c1

    Geometry (in Angstrom), charge = 0, multiplicity = 1:

    H            3.739057873087     0.128603176110    -0.728356506051
    N            3.105414618167    -0.236731863392    -0.048183373889
    C            1.860933888654     0.526466916224     0.006248357566
    H            3.575335371226    -0.253613468205     0.833326969292
    C            0.640356265747    -0.388608106761    -0.032987101200
    H            1.826432166136     1.219277057268    -0.830190063060
    H            1.817465837710     1.145307248592     0.901932471664
    C           -0.684938664811     0.371796227986     0.026046851700
    H            0.688724754755    -0.988069662903    -0.938170073987
    H            0.703052377389    -1.087357904993     0.798480174805
    C           -1.909656083803    -0.544251545502    -0.012343076245
    H           -0.738515420189     1.073384412294    -0.805717575039
    H           -0.719120967634     0.974575401069     0.932844565934
    C           -3.231451183313     0.220438512087     0.047959746701
    H           -1.880814339503    -1.144409127402    -0.919119895102
    H           -1.859965909026    -1.245151848043     0.818139319669
    H           -3.326595624102     0.905805383623    -0.789693421249
    H           -4.079974959936    -0.456315208995     0.018976053258
    H           -3.305502135011     0.804411066968     0.961181299120

  Mulliken Charges: (a.u.)
   Center  Symbol    Alpha    Beta     Spin     Total
       1     H     0.33045  0.33045  0.00000  0.33911
       2     N     3.92886  3.92886  0.00000 -0.85772
       3     C     3.06633  3.06633  0.00000 -0.13266
       4     H     0.33127  0.33127  0.00000  0.33747
       5     C     3.13960  3.13960  0.00000 -0.27921
       6     H     0.42454  0.42454  0.00000  0.15093
       7     H     0.42851  0.42851  0.00000  0.14298
       8     C     3.15708  3.15708  0.00000 -0.31415
       9     H     0.41914  0.41914  0.00000  0.16171
      10     H     0.42330  0.42330  0.00000  0.15340
      11     C     3.15017  3.15017  0.00000 -0.30034
      12     H     0.42574  0.42574  0.00000  0.14853
      13     H     0.42596  0.42596  0.00000  0.14809
      14     C     3.23908  3.23908  0.00000 -0.47815
      15     H     0.42248  0.42248  0.00000  0.15505
      16     H     0.42288  0.42288  0.00000  0.15423
      17     H     0.42238  0.42238  0.00000  0.15523
      18     H     0.41974  0.41974  0.00000  0.16052
      19     H     0.42251  0.42251  0.00000  0.15499

   Total alpha = 25.00000, Total beta = 25.00000, Total charge = -0.00000
