  ==> Input File <==

--------------------------------------------------------------------------
set {
	reference rhf
	basis 6-31G*
}

set_num_threads( 4 )
memory 2 gb

molecule MOL {
0 1

H	 2.866480	 -0.465706	 0.876907
C	 2.405773	 -0.024801	 0.000000
N	 0.988830	 -0.304158	 0.000000
H	 2.866480	 -0.465706	 -0.876907
H	 2.629928	 1.045948	 0.000000
C	 0.644740	 -1.419478	 -0.862341
C	 0.194535	 0.864031	 -0.332265
H	 0.905286	 -1.216727	 -1.906135
H	 1.201860	 -2.296291	 -0.547602
C	 -0.845373	 -1.702646	 -0.765534
H	 0.421996	 1.659305	 0.370619
H	 0.422275	 1.233179	 -1.337433
C	 -1.283638	 0.520306	 -0.249515
H	 -1.135409	 -2.472766	 -1.468250
H	 -1.087871	 -2.041078	 0.240264
O	 -1.593245	 -0.562149	 -1.081613
H	 -1.889792	 1.353585	 -0.580030
H	 -1.546756	 0.286462	 0.780561

	symmetry c1
}
set optking {
	frozen_dihedral = ("
		6 3 2 5
	")
}

ee = optimize('scf')
oeprop('DIPOLE', 'QUADRUPOLE', 'MULLIKEN_CHARGES')
f=open( 'psi4out.xyz', 'w' )
f.write( "18  " )
f.write( str(ee) + "\n" )
f.write( MOL.save_string_xyz() )
f.close()
--------------------------------------------------------------------------

    Molecular point group: c1
  Charge       = 0
  Multiplicity = 1
  Basis Set: 6-31G*
  Basis Set:
  @DF-RHF Final Energy:  -325.02262813647553
    Total Energy =                       -325.0226281364754755
    Molecular point group: c1
  Basis Set: 6-31G*
  Basis Set:
  Basis Set: 6-31G*
  Basis Set:
  @DF-RHF Final Energy:  -325.02332423094060
    Total Energy =                       -325.0233242309404886
  Basis Set: 6-31G*
  Basis Set:
  Basis Set: 6-31G*
  Basis Set:
  @DF-RHF Final Energy:  -325.02344442423208
    Total Energy =                       -325.0234444242321956
  Basis Set: 6-31G*
  Basis Set:
  Basis Set: 6-31G*
  Basis Set:
  @DF-RHF Final Energy:  -325.02344655748209
    Total Energy =                       -325.0234465574820888
  Basis Set: 6-31G*
  Basis Set:
  Charge       = 0
  Multiplicity = 1
  Basis Set: 6-31G*
  Basis Set:

    Orbital Energies (a.u.)
    -----------------------

    Doubly Occupied:

       1A    -20.553359     2A    -15.547384     3A    -11.265453
       4A    -11.265416     5A    -11.243979     6A    -11.243793
       7A    -11.240833     8A     -1.382792     9A     -1.228322
      10A     -1.037756    11A     -0.980243    12A     -0.881909
      13A     -0.869775    14A     -0.774673    15A     -0.682847
      16A     -0.643581    17A     -0.642661    18A     -0.630845
      19A     -0.627100    20A     -0.570475    21A     -0.557897
      22A     -0.546367    23A     -0.526523    24A     -0.500321
      25A     -0.482363    26A     -0.451558    27A     -0.407048
      28A     -0.350185

  @DF-RHF Final Energy:  -325.02344698035034

   => Energetics <=

    Nuclear Repulsion Energy =            341.0831258300242439
    One-Electron Energy =               -1117.9422302682567079
    Two-Electron Energy =                 451.8356574578823484
    DFT Exchange-Correlation Energy =       0.0000000000000000
    Empirical Dispersion Energy =           0.0000000000000000
    PCM Polarization Energy =               0.0000000000000000
    EFP Energy =                            0.0000000000000000
    Total Energy =                       -325.0234469803500588
    Molecular point group: c1
  Basis Set: 6-31G*
  Basis Set:

  -Total Gradient:
     Atom            X                  Y                   Z
    ------   -----------------  -----------------  -----------------
       1       -0.000000797808     0.000001282987    -0.000004860175
       2       -0.000221010669     0.000744089738     0.004101762042
       3        0.000467309809    -0.002595449822     0.002116794496
       4       -0.000001213053    -0.000003400820     0.000005848901
       5        0.000075617612    -0.000012550925    -0.003943001405
       6       -0.000306735320     0.001894775809    -0.002262699393
       7        0.000003524018    -0.000028828338     0.000001490814
       8       -0.000001014318    -0.000002381436    -0.000002962939
       9        0.000000689215     0.000004214102    -0.000000655982
      10       -0.000006112273    -0.000011982982    -0.000019840301
      11       -0.000003363071    -0.000006704643    -0.000002906906
      12        0.000007001804     0.000002358264    -0.000002495763
      13       -0.000011666648     0.000010844936     0.000025236891
      14       -0.000009756557    -0.000004306280    -0.000001942742
      15        0.000005274408     0.000004206202    -0.000002652386
      16        0.000008849042     0.000004626114    -0.000004545212
      17       -0.000005829510    -0.000003396121    -0.000004249895
      18       -0.000000766682     0.000002603217     0.000001679955

  **** Optimization is complete! (in 5 steps) ****
    Final optimized geometry and variables:
    Molecular point group: c1

    Geometry (in Angstrom), charge = 0, multiplicity = 1:

    H            2.810825580424    -0.103757092051     1.370229883170
    C            2.347655426314     0.336031670923     0.493197811812
    N            0.916807725804     0.074341909190     0.470225398835
    H            2.847063082567    -0.065369757899    -0.388227484746
    H            2.542080984059     1.402205841457     0.490840392805
    C            0.566024179088    -1.040191054011    -0.390989084158
    C            0.119264297186     1.240767517044     0.132001793325
    H            0.819894823842    -0.834553395156    -1.435455656460
    H            1.125795571971    -1.917933134062    -0.082690846245
    C           -0.922103783372    -1.328378582282    -0.284570448055
    H            0.345168640818     2.040074862194     0.829921700828
    H            0.336650312964     1.605930843283    -0.876729588777
    C           -1.357675936643     0.895396133493     0.228561609849
    H           -1.214110764662    -2.099975106307    -0.985059681046
    H           -1.156915840594    -1.666786716036     0.722945435189
    O           -1.675119422303    -0.190195323407    -0.596366735275
    H           -1.967734299936     1.727426474904    -0.098352073149
    H           -1.609601818927     0.664489177071     1.262057475521

  Mulliken Charges: (a.u.)
   Center  Symbol    Alpha    Beta     Spin     Total
       1     H     0.41417  0.41417  0.00000  0.17166
       2     C     3.14017  3.14017  0.00000 -0.28035
       3     N     3.79001  3.79001  0.00000 -0.58003
       4     H     0.42627  0.42627  0.00000  0.14746
       5     H     0.41920  0.41920  0.00000  0.16160
       6     C     3.06968  3.06968  0.00000 -0.13936
       7     C     3.06944  3.06944  0.00000 -0.13889
       8     H     0.42801  0.42801  0.00000  0.14398
       9     H     0.41623  0.41623  0.00000  0.16754
      10     C     2.99722  2.99722  0.00000  0.00557
      11     H     0.41630  0.41630  0.00000  0.16740
      12     H     0.42857  0.42857  0.00000  0.14287
      13     C     2.99745  2.99745  0.00000  0.00510
      14     H     0.41356  0.41356  0.00000  0.17287
      15     H     0.42397  0.42397  0.00000  0.15206
      16     O     4.31215  4.31215  0.00000 -0.62430
      17     H     0.41359  0.41359  0.00000  0.17282
      18     H     0.42400  0.42400  0.00000  0.15200

   Total alpha = 28.00000, Total beta = 28.00000, Total charge =  0.00000
