  ==> Input File <==

--------------------------------------------------------------------------
set {
	reference rhf
	basis cc-pvtz
}

set_num_threads( 4 )
memory 2 gb

molecule MOL {
0 1

O	 1.188707	 1.348381	 -0.217203
C	 1.043085	 0.250098	 -0.633892
C	 -0.247499	 -0.528112	 -0.618277
O	 2.021426	 -0.452575	 -1.181137
C	 -1.413045	 0.229353	 0.001137
H	 -0.463341	 -0.811798	 -1.643175
H	 -0.056162	 -1.455989	 -0.089225
C	 -2.702562	 -0.586401	 0.000228
H	 -1.564936	 1.156995	 -0.539186
H	 -1.157733	 0.511644	 1.016357
C	 -3.953810	 0.284959	 -0.000782
H	 -2.717793	 -1.238567	 -0.869075
H	 -2.719108	 -1.238472	 0.869576
H	 -3.983727	 0.924403	 -0.876454
H	 -4.852989	 -0.320147	 -0.001515
H	 -3.985140	 0.924399	 0.874841
C	 3.293201	 0.158589	 -1.261048
H	 3.246834	 1.059218	 -1.855140
H	 3.941517	 -0.563609	 -1.730072
H	 3.660504	 0.404906	 -0.275838

	symmetry c1
}
set optking {
	frozen_dihedral = ("
		9 5 8 12
	")
}

ee = optimize('scf')
oeprop('DIPOLE', 'QUADRUPOLE', 'MULLIKEN_CHARGES')
f=open( 'psi4out.xyz', 'w' )
f.write( "20  " )
f.write( str(ee) + "\n" )
f.write( MOL.save_string_xyz() )
f.close()
--------------------------------------------------------------------------

    Molecular point group: c1
  Charge       = 0
  Multiplicity = 1
  Basis Set: CC-PVTZ
  Basis Set:
  @DF-RHF Final Energy:  -384.08087389748175
    Total Energy =                       -384.0808738974817516
    Molecular point group: c1
  Basis Set: CC-PVTZ
  Basis Set:
  Basis Set: CC-PVTZ
  Basis Set:
  @DF-RHF Final Energy:  -384.08114763896702
    Total Energy =                       -384.0811476389667405
  Basis Set: CC-PVTZ
  Basis Set:
  Basis Set: CC-PVTZ
  Basis Set:
  @DF-RHF Final Energy:  -384.08083264299091
    Total Energy =                       -384.0808326429909130
  Basis Set: CC-PVTZ
  Basis Set:
  Basis Set: CC-PVTZ
  Basis Set:
  @DF-RHF Final Energy:  -384.08119129769665
    Total Energy =                       -384.0811912976964777
  Basis Set: CC-PVTZ
  Basis Set:
  Basis Set: CC-PVTZ
  Basis Set:
  @DF-RHF Final Energy:  -384.08119376357666
    Total Energy =                       -384.0811937635762661
  Basis Set: CC-PVTZ
  Basis Set:
  Charge       = 0
  Multiplicity = 1
  Basis Set: CC-PVTZ
  Basis Set:

    Orbital Energies (a.u.)
    -----------------------

    Doubly Occupied:

       1A    -20.596508     2A    -20.534356     3A    -11.364798
       4A    -11.278626     5A    -11.234471     6A    -11.218214
       7A    -11.217013     8A    -11.209308     9A     -1.472425
      10A     -1.366019    11A     -1.089186    12A     -1.025518
      13A     -0.970166    14A     -0.886762    15A     -0.805262
      16A     -0.769841    17A     -0.700124    18A     -0.686445
      19A     -0.676246    20A     -0.642834    21A     -0.598960
      22A     -0.595069    23A     -0.579853    24A     -0.543068
      25A     -0.535630    26A     -0.524344    27A     -0.503825
      28A     -0.480348    29A     -0.474883    30A     -0.467595
      31A     -0.458426    32A     -0.440103

  @DF-RHF Final Energy:  -384.08119380855175

   => Energetics <=

    Nuclear Repulsion Energy =            381.6378223390143489
    One-Electron Energy =               -1279.5455805491453702
    Two-Electron Energy =                 513.8265644015792759
    DFT Exchange-Correlation Energy =       0.0000000000000000
    Empirical Dispersion Energy =           0.0000000000000000
    PCM Polarization Energy =               0.0000000000000000
    EFP Energy =                            0.0000000000000000
    Total Energy =                       -384.0811938085518022
    Molecular point group: c1
  Basis Set: CC-PVTZ
  Basis Set:

  -Total Gradient:
     Atom            X                  Y                   Z
    ------   -----------------  -----------------  -----------------
       1       -0.000008716038     0.000001960362    -0.000002116965
       2        0.000004454918     0.000002380834     0.000000777166
       3        0.000006872108    -0.000010632066     0.000007658658
       4        0.000001560902    -0.000007269524    -0.000000162508
       5        0.001876634275    -0.003122941583    -0.003969057779
       6       -0.000000083058     0.000006827897    -0.000004039320
       7       -0.000002884635     0.000004073245    -0.000005033315
       8       -0.002735748214     0.004190975796    -0.001856172336
       9       -0.001120861404     0.001926893203     0.003599491221
      10       -0.000006102175    -0.000002001259     0.000008145922
      11       -0.000006593410     0.000008527692    -0.000004717606
      12        0.001990434965    -0.002985970550     0.002219043987
      13       -0.000001483537    -0.000009476069     0.000004649970
      14        0.000000835305     0.000000216343     0.000002150327
      15        0.000003763531    -0.000000658338    -0.000001837671
      16        0.000002497125    -0.000003288774    -0.000000824918
      17       -0.000002217465     0.000000679102     0.000003769345
      18       -0.000000831590     0.000000357558    -0.000000703506
      19       -0.000002266150    -0.000000879931    -0.000000404418
      20        0.000000734553     0.000000226068    -0.000000616252

  **** Optimization is complete! (in 6 steps) ****
    Final optimized geometry and variables:
    Molecular point group: c1

    Geometry (in Angstrom), charge = 0, multiplicity = 1:

    O            1.253691774160     1.249817329190     0.280324013333
    C            1.109213545747     0.153527169678    -0.141836578517
    C           -0.186813129216    -0.615749595150    -0.155666441000
    O            2.093605151536    -0.554816216406    -0.670610785167
    C           -1.360673358322     0.148094901875     0.435857612277
    H           -0.381017088519    -0.899445746878    -1.184639395659
    H           -0.014909247867    -1.544461277000     0.379143531606
    C           -2.649399218857    -0.678426998717     0.475051170882
    H           -1.523065213580     1.071578814164    -0.108450471289
    H           -1.107022380037     0.462874660661     1.441969410071
    C           -3.909852030543     0.173741665869     0.549387886390
    H           -2.691971612764    -1.343488954243    -0.383323404556
    H           -2.614618067028    -1.339033890607     1.337544582000
    H           -4.012763754072     0.796494664687    -0.332611878349
    H           -4.797527484383    -0.443249274878     0.626789890520
    H           -3.885464176151     0.829114649038     1.413653698857
    C            3.370878122471     0.047675949532    -0.723412549512
    H            3.342743517274     0.949814811848    -1.316359131555
    H            4.023596193005    -0.678022088134    -1.180783840289
    H            3.719841466435     0.289446663858     0.269565811037

  Mulliken Charges: (a.u.)
   Center  Symbol    Alpha    Beta     Spin     Total
       1     O     4.19662  4.19662  0.00000 -0.39323
       2     C     2.80675  2.80675  0.00000  0.38650
       3     C     3.09998  3.09998  0.00000 -0.19996
       4     O     4.14668  4.14668  0.00000 -0.29336
       5     C     3.08346  3.08346  0.00000 -0.16692
       6     H     0.43996  0.43996  0.00000  0.12008
       7     H     0.43955  0.43955  0.00000  0.12090
       8     C     3.08713  3.08713  0.00000 -0.17426
       9     H     0.44774  0.44774  0.00000  0.10451
      10     H     0.44592  0.44592  0.00000  0.10817
      11     C     3.14804  3.14804  0.00000 -0.29608
      12     H     0.45684  0.45684  0.00000  0.08632
      13     H     0.45353  0.45353  0.00000  0.09295
      14     H     0.45453  0.45453  0.00000  0.09094
      15     H     0.44880  0.44880  0.00000  0.10240
      16     H     0.45284  0.45284  0.00000  0.09433
      17     C     3.03765  3.03765  0.00000 -0.07530
      18     H     0.45434  0.45434  0.00000  0.09132
      19     H     0.44532  0.44532  0.00000  0.10935
      20     H     0.45432  0.45432  0.00000  0.09135

   Total alpha = 32.00000, Total beta = 32.00000, Total charge = -0.00000
