  ==> Input File <==

--------------------------------------------------------------------------
set {
	reference rhf
	basis 6-31G*
}

set_num_threads( 4 )
memory 2 gb

molecule MOL {
0 1

H	 -4.243705	 0.446252	 0.175361
O	 -3.517110	 -0.026191	 -0.205115
C	 -2.306886	 0.532354	 0.237577
C	 -1.177863	 -0.397191	 -0.171080
H	 -2.156308	 1.517575	 -0.201710
H	 -2.315015	 0.655684	 1.319734
C	 0.198102	 0.111031	 0.262842
H	 -1.208843	 -0.518759	 -1.250427
H	 -1.368741	 -1.376554	 0.258909
C	 1.331804	 -0.827780	 -0.158768
H	 0.361943	 1.100838	 -0.156218
H	 0.217265	 0.229072	 1.345532
C	 2.723619	 -0.410569	 0.329459
H	 1.342964	 -0.912588	 -1.244120
H	 1.116806	 -1.824343	 0.220779
C	 3.243875	 0.895854	 -0.272975
H	 3.424222	 -1.207124	 0.091250
H	 2.714788	 -0.329854	 1.414619
H	 3.251977	 0.848779	 -1.358681
H	 2.637085	 1.747371	 0.016682
H	 4.259473	 1.094070	 0.055697

	symmetry c1
}
set optking {
	frozen_dihedral = ("
		1 2 3 5
	")
}

ee = optimize('scf')
oeprop('DIPOLE', 'QUADRUPOLE', 'MULLIKEN_CHARGES')
f=open( 'psi4out.xyz', 'w' )
f.write( "21  " )
f.write( str(ee) + "\n" )
f.write( MOL.save_string_xyz() )
f.close()
--------------------------------------------------------------------------

    Molecular point group: c1
  Charge       = 0
  Multiplicity = 1
  Basis Set: 6-31G*
  Basis Set:
  @DF-RHF Final Energy:  -310.21268313422547
    Total Energy =                       -310.2126831342254150
    Molecular point group: c1
  Basis Set: 6-31G*
  Basis Set:
  Basis Set: 6-31G*
  Basis Set:
  @DF-RHF Final Energy:  -310.21268873145590
    Total Energy =                       -310.2126887314559553
  Basis Set: 6-31G*
  Basis Set:
  Basis Set: 6-31G*
  Basis Set:
  @DF-RHF Final Energy:  -310.21269056712799
    Total Energy =                       -310.2126905671281634
  Basis Set: 6-31G*
  Basis Set:
  Charge       = 0
  Multiplicity = 1
  Basis Set: 6-31G*
  Basis Set:

    Orbital Energies (a.u.)
    -----------------------

    Doubly Occupied:

       1A    -20.551753     2A    -11.267077     3A    -11.215639
       4A    -11.215151     5A    -11.213578     6A    -11.210551
       7A    -11.208145     8A     -1.358552     9A     -1.086219
      10A     -1.033144    11A     -0.954371    12A     -0.875719
      13A     -0.807183    14A     -0.778928    15A     -0.692917
      16A     -0.661005    17A     -0.621640    18A     -0.608183
      19A     -0.586207    20A     -0.568671    21A     -0.537375
      22A     -0.520035    23A     -0.509675    24A     -0.488374
      25A     -0.478188    26A     -0.460432    27A     -0.455861
      28A     -0.444819    29A     -0.432609

  @DF-RHF Final Energy:  -310.21268981345349

   => Energetics <=

    Nuclear Repulsion Energy =            312.4668787525423568
    One-Electron Energy =               -1039.6751352987485006
    Two-Electron Energy =                 416.9955667327524793
    DFT Exchange-Correlation Energy =       0.0000000000000000
    Empirical Dispersion Energy =           0.0000000000000000
    PCM Polarization Energy =               0.0000000000000000
    EFP Energy =                            0.0000000000000000
    Total Energy =                       -310.2126898134536646
    Molecular point group: c1
  Basis Set: 6-31G*
  Basis Set:

  -Total Gradient:
     Atom            X                  Y                   Z
    ------   -----------------  -----------------  -----------------
       1        0.000003441149    -0.000598740609     0.000706678392
       2        0.000117354225     0.000631326444    -0.001009713132
       3       -0.000526107503     0.000420648683     0.000947234564
       4        0.000009642973    -0.000007902189     0.000006896677
       5        0.000406620228    -0.000329892813    -0.000647393090
       6       -0.000013346224    -0.000069133705    -0.000039708874
       7        0.000004483115     0.000000160117     0.000014143004
       8       -0.000025401688     0.000003216305    -0.000001295159
       9        0.000039386991    -0.000020254159    -0.000004715105
      10       -0.000003981668    -0.000026338560     0.000025522304
      11        0.000016921007     0.000020919637     0.000004473000
      12        0.000005656026    -0.000003940068     0.000012332224
      13        0.000018144659    -0.000016063401    -0.000040504170
      14       -0.000004446060    -0.000027670777     0.000005125355
      15       -0.000002790490     0.000010719193     0.000019841484
      16       -0.000019496320     0.000005056854     0.000010176250
      17        0.000005382184     0.000009972224    -0.000017028710
      18        0.000006847684    -0.000019979124    -0.000003043836
      19        0.000006250662    -0.000005635379     0.000008443310
      20       -0.000041710638     0.000012716915    -0.000004510520
      21       -0.000002850319     0.000010814412     0.000007046031

  **** Optimization is complete! (in 4 steps) ****
    Final optimized geometry and variables:
    Molecular point group: c1

    Geometry (in Angstrom), charge = 0, multiplicity = 1:

    H           -4.243470165130     0.459564570228     0.152285008318
    O           -3.514771459183    -0.014360707506    -0.221873977897
    C           -2.306270819448     0.530982889988     0.242279290632
    C           -1.177519921002    -0.399689204887    -0.166181872169
    H           -2.144078885585     1.518633415521    -0.187152132042
    H           -2.324431493847     0.641152428250     1.325333833692
    C            0.198932101572     0.108534311388     0.266163915704
    H           -1.209235886318    -0.520316182892    -1.245679298391
    H           -1.368083807455    -1.379502029747     0.262864389849
    C            1.332085383704    -0.831144367137    -0.154985902856
    H            0.362603829415     1.097651042805    -0.154423829919
    H            0.219234134050     0.228198737063     1.348763802890
    C            2.725058717202    -0.410503766408     0.326935511477
    H            1.339782356867    -0.920415767476    -1.240004315358
    H            1.119260612879    -1.826339025197     0.229377916608
    C            3.238466177193     0.898186190992    -0.276457388032
    H            3.426834962736    -1.204713448492     0.084396993486
    H            2.721274620364    -0.331057257729     1.412231441383
    H            3.242647918844     0.851915059298    -1.362206902925
    H            2.629722478616     1.747327691998     0.016064662779
    H            4.254580327572     1.099767257411     0.048558623421

  Mulliken Charges: (a.u.)
   Center  Symbol    Alpha    Beta     Spin     Total
       1     H     0.28108  0.28108  0.00000  0.43784
       2     O     4.37197  4.37197  0.00000 -0.74395
       3     C     2.98975  2.98975  0.00000  0.02049
       4     C     3.15882  3.15882  0.00000 -0.31763
       5     H     0.43216  0.43216  0.00000  0.13568
       6     H     0.43320  0.43320  0.00000  0.13359
       7     C     3.16197  3.16197  0.00000 -0.32394
       8     H     0.41438  0.41438  0.00000  0.17124
       9     H     0.41555  0.41555  0.00000  0.16890
      10     C     3.15173  3.15173  0.00000 -0.30346
      11     H     0.42126  0.42126  0.00000  0.15749
      12     H     0.42444  0.42444  0.00000  0.15113
      13     C     3.15249  3.15249  0.00000 -0.30497
      14     H     0.42291  0.42291  0.00000  0.15418
      15     H     0.42108  0.42108  0.00000  0.15784
      16     C     3.24121  3.24121  0.00000 -0.48242
      17     H     0.42063  0.42063  0.00000  0.15874
      18     H     0.42363  0.42363  0.00000  0.15274
      19     H     0.42191  0.42191  0.00000  0.15618
      20     H     0.42058  0.42058  0.00000  0.15883
      21     H     0.41925  0.41925  0.00000  0.16150

   Total alpha = 29.00000, Total beta = 29.00000, Total charge =  0.00000
