  ==> Input File <==

--------------------------------------------------------------------------
set {
	reference rhf
	basis 6-31G*
}

set_num_threads( 4 )
memory 2 gb

molecule MOL {
0 1

H	 2.215298	 1.823536	 -1.462493
C	 1.492885	 1.626174	 -0.678850
C	 1.322923	 0.120767	 -0.479465
H	 1.846652	 2.108271	 0.227132
H	 0.556610	 2.094873	 -0.965738
C	 0.306652	 -0.176050	 0.621399
H	 2.272909	 -0.329483	 -0.210708
H	 0.988882	 -0.345387	 -1.398910
N	 -1.068537	 -0.011044	 0.085269
H	 0.372515	 -1.192590	 0.973735
H	 0.391664	 0.520566	 1.441230
O	 -1.656956	 -0.997225	 -0.235017
O	 -1.478635	 1.104830	 -0.018026

	symmetry c1
}
set optking {
	frozen_dihedral = ("
		7 3 6 9
	")
}

ee = optimize('scf')
oeprop('DIPOLE', 'QUADRUPOLE', 'MULLIKEN_CHARGES')
f=open( 'psi4out.xyz', 'w' )
f.write( "13  " )
f.write( str(ee) + "\n" )
f.write( MOL.save_string_xyz() )
f.close()
--------------------------------------------------------------------------

    Molecular point group: c1
  Charge       = 0
  Multiplicity = 1
  Basis Set: 6-31G*
  Basis Set:
  @DF-RHF Final Energy:  -321.73295192723492
    Total Energy =                       -321.7329519272349216
    Molecular point group: c1
  Basis Set: 6-31G*
  Basis Set:
  Basis Set: 6-31G*
  Basis Set:
  @DF-RHF Final Energy:  -321.73390137524916
    Total Energy =                       -321.7339013752489336
  Basis Set: 6-31G*
  Basis Set:
  Basis Set: 6-31G*
  Basis Set:
  @DF-RHF Final Energy:  -321.71145220132775
    Total Energy =                       -321.7114522013276314
  Basis Set: 6-31G*
  Basis Set:
  Basis Set: 6-31G*
  Basis Set:
  @DF-RHF Final Energy:  -321.73193983990359
    Total Energy =                       -321.7319398399033616
  Basis Set: 6-31G*
  Basis Set:
  @DF-RHF Final Energy:  -321.73434520038234
    Total Energy =                       -321.7343452003824495
  @DF-RHF Final Energy:  -321.73451975066780
    Total Energy =                       -321.7345197506679142
  @DF-RHF Final Energy:  -321.73463174794017
    Total Energy =                       -321.7346317479400568
  @DF-RHF Final Energy:  -321.73470219734014
    Total Energy =                       -321.7347021973401411
  Basis Set: 6-31G*
  Basis Set:
  @DF-RHF Final Energy:  -321.73473167647842
    Total Energy =                       -321.7347316764783614
  Basis Set: 6-31G*
  Basis Set:
  Basis Set: 6-31G*
  Basis Set:
  @DF-RHF Final Energy:  -321.73473676226729
    Total Energy =                       -321.7347367622671754
  Basis Set: 6-31G*
  Basis Set:
  Basis Set: 6-31G*
  Basis Set:
  @DF-RHF Final Energy:  -321.73473812430359
    Total Energy =                       -321.7347381243034761
  Basis Set: 6-31G*
  Basis Set:
  Charge       = 0
  Multiplicity = 1
  Basis Set: 6-31G*
  Basis Set:

    Orbital Energies (a.u.)
    -----------------------

    Doubly Occupied:

       1A    -20.603186     2A    -20.599483     3A    -15.847319
       4A    -11.299619     5A    -11.256032     6A    -11.232436
       7A     -1.631015     8A     -1.416444     9A     -1.133891
      10A     -1.022931    11A     -0.892105    12A     -0.825169
      13A     -0.759378    14A     -0.735968    15A     -0.724021
      16A     -0.645740    17A     -0.624662    18A     -0.595934
      19A     -0.531389    20A     -0.520354    21A     -0.514385
      22A     -0.483950    23A     -0.473846    24A     -0.448161

  @DF-RHF Final Energy:  -321.73473821171888

   => Energetics <=

    Nuclear Repulsion Energy =            251.6638442166613743
    One-Electron Energy =                -937.1623309000126483
    Two-Electron Energy =                 363.7637484716325389
    DFT Exchange-Correlation Energy =       0.0000000000000000
    Empirical Dispersion Energy =           0.0000000000000000
    PCM Polarization Energy =               0.0000000000000000
    EFP Energy =                            0.0000000000000000
    Total Energy =                       -321.7347382117187635
    Molecular point group: c1
  Basis Set: 6-31G*
  Basis Set:

  -Total Gradient:
     Atom            X                  Y                   Z
    ------   -----------------  -----------------  -----------------
       1       -0.000000211605    -0.000002397020    -0.000000643344
       2       -0.000004114473    -0.000008066551    -0.000003998785
       3        0.000979682312     0.002447868975     0.001540303281
       4        0.000000357474    -0.000003162031     0.000001759938
       5       -0.000000093713    -0.000000648600     0.000000244279
       6       -0.000151277698     0.002440958453     0.000472229981
       7       -0.000808291748    -0.002641966159    -0.001428303264
       8        0.000000219689     0.000005607808    -0.000000540909
       9       -0.000025756137    -0.002184635566    -0.000550875447
      10        0.000000553741     0.000002432188    -0.000000602539
      11        0.000007785637    -0.000000835379     0.000003552098
      12       -0.000016469727    -0.000017400890    -0.000016825738
      13        0.000017616252    -0.000037755228    -0.000016299552

  **** Optimization is complete! (in 12 steps) ****
    Final optimized geometry and variables:
    Molecular point group: c1

    Geometry (in Angstrom), charge = 0, multiplicity = 1:

    H            2.470855057184     1.454766242624    -1.431402253188
    C            1.738264863512     1.321458249083    -0.643148052069
    C            1.545382538803    -0.162904584186    -0.340405029535
    H            2.088493584710     1.858625552057     0.232703147755
    H            0.812451851870     1.783490252750    -0.968545627490
    C            0.514620625306    -0.436576215422     0.755839588422
    H            2.478043221615    -0.619963298846    -0.025671766040
    H            1.239596177462    -0.698033660001    -1.232037236752
    N           -0.864986449071    -0.283777120943     0.218833104803
    H            0.568300876055    -1.460101727890     1.094911781979
    H            0.593833452979     0.243776279078     1.587780438652
    O           -1.242415311491    -1.119357892157    -0.545011810814
    O           -1.495863774872     0.664676557971     0.571038551317

  Mulliken Charges: (a.u.)
   Center  Symbol    Alpha    Beta     Spin     Total
       1     H     0.41061  0.41061  0.00000  0.17877
       2     C     3.24577  3.24577  0.00000 -0.49153
       3     C     3.17661  3.17661  0.00000 -0.35323
       4     H     0.41612  0.41612  0.00000  0.16777
       5     H     0.40645  0.40645  0.00000  0.18710
       6     C     3.09053  3.09053  0.00000 -0.18106
       7     H     0.40659  0.40659  0.00000  0.18682
       8     H     0.39376  0.39376  0.00000  0.21247
       9     N     3.22295  3.22295  0.00000  0.55411
      10     H     0.38653  0.38653  0.00000  0.22693
      11     H     0.38647  0.38647  0.00000  0.22705
      12     O     4.22986  4.22986  0.00000 -0.45972
      13     O     4.22774  4.22774  0.00000 -0.45549

   Total alpha = 24.00000, Total beta = 24.00000, Total charge = -0.00000
