                              Psi4 1.0.54 Driver

  ==> Input File <==

--------------------------------------------------------------------------
set {
	reference rhf
	basis cc-pvtz
}

set_num_threads( 4 )
memory 2 gb

molecule MOL {
0 1

O	 -0.844015	 -1.403476	 1.888641
C	 -1.619577	 -1.303881	 0.999254
C	 -2.875039	 -2.126151	 0.889843
O	 -1.481217	 -0.452708	 0.001092
H	 -3.473201	 -1.960451	 1.775747
H	 -3.444393	 -1.877179	 0.008657
H	 -2.600237	 -3.172160	 0.869269
C	 -0.332055	 0.384012	 -0.000250
C	 0.892252	 -0.506059	 -0.000295
H	 -0.360822	 1.020205	 -0.874146
H	 -0.359817	 1.021310	 0.872861
C	 2.188199	 0.299473	 -0.001416
H	 0.857046	 -1.152781	 -0.871031
H	 0.857910	 -1.151798	 0.871202
C	 3.437151	 -0.577593	 -0.000991
H	 2.209565	 0.950707	 -0.871712
H	 2.210062	 0.952234	 0.867721
C	 4.732399	 0.226982	 -0.000914
H	 3.417321	 -1.229122	 -0.869998
H	 3.416993	 -1.228707	 0.868337
H	 4.797903	 0.863451	 -0.876963
H	 5.598517	 -0.424436	 -0.000420
H	 4.797415	 0.864118	 0.874691

	symmetry c1
}
set optking {
	frozen_dihedral = ("
		2 4 8 10
	")
}

ee,wfn = optimize('scf', return_wfn=True)
oeprop( wfn, 'DIPOLE', 'QUADRUPOLE', 'MULLIKEN_CHARGES')
f=open( 'psi4out.xyz', 'w' )
f.write( "23  " )
f.write( str(ee) + "\n" )
f.write( MOL.save_string_xyz() )
f.close()
--------------------------------------------------------------------------

    Molecular point group: c1
  Charge       = 0
  Multiplicity = 1
  Basis Set: CC-PVTZ
  Basis Set:
  @DF-RHF Final Energy:  -423.12293937279412
    Total Energy =                       -423.1229393727942352
    Molecular point group: c1
  Basis Set: CC-PVTZ
  Basis Set:
  Basis Set: CC-PVTZ
  Basis Set:
  @DF-RHF Final Energy:  -423.13047830452223
    Total Energy =                       -423.1304783045217164
  Basis Set: CC-PVTZ
  Basis Set:
  Basis Set: CC-PVTZ
  Basis Set:
  @DF-RHF Final Energy:  -423.13125260850171
    Total Energy =                       -423.1312526085014269
  Basis Set: CC-PVTZ
  Basis Set:
  Basis Set: CC-PVTZ
  Basis Set:
  @DF-RHF Final Energy:  -423.13017522838686
    Total Energy =                       -423.1301752283866335
  Basis Set: CC-PVTZ
  Basis Set:
  @DF-RHF Final Energy:  -423.13134918658591
    Total Energy =                       -423.1313491865859078
  @DF-RHF Final Energy:  -423.13137342108797
    Total Energy =                       -423.1313734210879147
  @DF-RHF Final Energy:  -423.13137726383917
    Total Energy =                       -423.1313772638388855
  @DF-RHF Final Energy:  -423.13138848765192
    Total Energy =                       -423.1313884876524298
  @DF-RHF Final Energy:  -422.99031748356691
    Total Energy =                       -422.9903174835670825
  @DF-RHF Final Energy:  -422.94884095942814
    Total Energy =                       -422.9488409594280256
  @DF-RHF Final Energy:  -422.99923399219097
    Total Energy =                       -422.9992339921913072
  @DF-RHF Final Energy:  -423.03596174111459
    Total Energy =                       -423.0359617411136242
  @DF-RHF Final Energy:  -422.98307606213666
    Total Energy =                       -422.9830760621359786
  @DF-RHF Final Energy:  -423.08469579054417
    Total Energy =                       -423.0846957905444015
  @DF-RHF Final Energy:  -422.72610645561292
    Total Energy =                       -422.7261064556129213
  @DF-RHF Final Energy:  -422.96171864207264
    Total Energy =                       -422.9617186420725830
  @DF-RHF Final Energy:  -423.08938904228984
    Total Energy =                       -423.0893890422898949
  @DF-RHF Final Energy:  -423.11470795708618
    Total Energy =                       -423.1147079570860114
  @DF-RHF Final Energy:  -423.12484515940241
    Total Energy =                       -423.1248451594027529
  @DF-RHF Final Energy:  -422.89073041193330
    Total Energy =                       -422.8907304119330774
  @DF-RHF Final Energy:  -423.06707222811553
    Total Energy =                       -423.0670722281156486
  @DF-RHF Final Energy:  -423.12071146300087
    Total Energy =                       -423.1207114630011574
  @DF-RHF Final Energy:  -423.12872045881414
    Total Energy =                       -423.1287204588145414
  @DF-RHF Final Energy:  -423.13026595199995
    Total Energy =                       -423.1302659519997178
  @DF-RHF Final Energy:  -423.13132576649406
    Total Energy =                       -423.1313257664935463
  @DF-RHF Final Energy:  -423.13135198500237
    Total Energy =                       -423.1313519850025386
  @DF-RHF Final Energy:  -423.13149106398743
    Total Energy =                       -423.1314910639878235
  @DF-RHF Final Energy:  -423.13127673216644
    Total Energy =                       -423.1312767321661568
  @DF-RHF Final Energy:  -423.13185704852413
    Total Energy =                       -423.1318570485238979
  @DF-RHF Final Energy:  -423.13202078467998
    Total Energy =                       -423.1320207846804351
  @DF-RHF Final Energy:  -423.13059006195073
    Total Energy =                       -423.1305900619501017
  @DF-RHF Final Energy:  -423.13215255197576
    Total Energy =                       -423.1321525519756506
  @DF-RHF Final Energy:  -423.13185495146558
    Total Energy =                       -423.1318549514658116
  Basis Set: CC-PVTZ
  Basis Set:
  @DF-RHF Final Energy:  -423.13222274270839
    Total Energy =                       -423.1322227427085636
  Basis Set: CC-PVTZ
  Basis Set:
  Basis Set: CC-PVTZ
  Basis Set:
  @DF-RHF Final Energy:  -423.13223160510086
    Total Energy =                       -423.1322316051001735
  Basis Set: CC-PVTZ
  Basis Set:
  Basis Set: CC-PVTZ
  Basis Set:
  @DF-RHF Final Energy:  -423.13223402776742
    Total Energy =                       -423.1322340277670264
  Basis Set: CC-PVTZ
  Basis Set:
  Charge       = 0
  Multiplicity = 1
  Basis Set: CC-PVTZ
  Basis Set:

    Orbital Energies (a.u.)
    -----------------------

    Doubly Occupied:

       1A    -20.593055     2A    -20.531889     3A    -11.367001
       4A    -11.281855     5A    -11.230571     6A    -11.218879
       7A    -11.216528     8A    -11.215767     9A    -11.208769
      10A     -1.468681    11A     -1.364851    12A     -1.091748
      13A     -1.041806    14A     -1.002790    15A     -0.931481
      16A     -0.854080    17A     -0.798562    18A     -0.758949
      19A     -0.701751    20A     -0.680515    21A     -0.663661
      22A     -0.649376    23A     -0.607539    24A     -0.589902
      25A     -0.581989    26A     -0.571341    27A     -0.553402
      28A     -0.539689    29A     -0.522240    30A     -0.515155
      31A     -0.487730    32A     -0.476173    33A     -0.473268
      34A     -0.468822    35A     -0.441862    36A     -0.436304

  @DF-RHF Final Energy:  -423.13223415003210

   => Energetics <=

    Nuclear Repulsion Energy =            459.1822362190165450
    One-Electron Energy =               -1486.3529754513569969
    Two-Electron Energy =                 604.0385050823081201
    DFT Exchange-Correlation Energy =       0.0000000000000000
    Empirical Dispersion Energy =           0.0000000000000000
    PCM Polarization Energy =               0.0000000000000000
    EFP Energy =                            0.0000000000000000
    Total Energy =                       -423.1322341500324455
    Molecular point group: c1
  Basis Set: CC-PVTZ
  Basis Set:

  -Total Gradient:
     Atom            X                  Y                   Z
    ------   -----------------  -----------------  -----------------
       1       -0.000001159878    -0.000000391559     0.000004288489
       2       -0.002235413655    -0.004432051441    -0.000162794329
       3        0.000001534061     0.000005578792    -0.000028178177
       4        0.002709243974     0.005543056762     0.000235237125
       5        0.000003989487    -0.000006804150     0.000007464014
       6        0.000007972533     0.000005330360     0.000009087637
       7        0.000000402977    -0.000004453572    -0.000002417354
       8        0.001849497718     0.003894003413     0.000103060085
       9        0.000067043425    -0.000042604011     0.000021326266
      10       -0.002361910258    -0.004920169896    -0.000134400950
      11       -0.000034237508    -0.000051603452    -0.000079033944
      12        0.000009933968     0.000002723206     0.000021681035
      13        0.000007090888     0.000012783858    -0.000002610815
      14       -0.000008056177    -0.000000228774     0.000013086039
      15       -0.000011728408     0.000002423559     0.000000877856
      16       -0.000000233518     0.000004349521    -0.000000428707
      17       -0.000005003050    -0.000005077817     0.000010649606
      18        0.000008183194     0.000005574294    -0.000005606949
      19        0.000002163667     0.000006611805    -0.000009102138
      20       -0.000002772102    -0.000004474268     0.000000107609
      21        0.000003970969    -0.000000493473    -0.000001600019
      22       -0.000006252438    -0.000008596587    -0.000008889894
      23       -0.000004259859    -0.000005486571     0.000008197522

  **** Optimization is complete! (in 37 steps) ****
    Final optimized geometry and variables:
    Molecular point group: c1

    Geometry (in Angstrom), charge = 0, multiplicity = 1:

    O            2.382170864334    -0.121157060345     0.287695078739
    C            1.937534064171    -0.083552186698     1.384278274633
    C            2.618584372940    -0.648247076802     2.599257980194
    O            0.785613938385     0.480716901865     1.697898860160
    H            3.583386474284    -1.041562400818     2.323172044693
    H            2.728248232041     0.123979226952     3.349203558602
    H            2.005435766684    -1.433381267465     3.023313324354
    C           -0.082686685588     0.949225454834     0.671722463910
    C           -0.596498981721    -0.147014257691    -0.249809916069
    H           -0.924629916897     1.350877526269     1.215642409239
    H            0.409332955142     1.735234787227     0.116206560478
    C           -1.660846089005     0.389639382773    -1.204233520220
    H           -1.019756152635    -0.939267805182     0.361643469762
    H            0.219635422608    -0.573407969019    -0.813746146173
    C           -2.211344374302    -0.679011180020    -2.144551226648
    H           -2.481299263131     0.820639999556    -0.634859185058
    H           -1.240114339164     1.199899025864    -1.794788237284
    C           -3.271659041060    -0.144736590669    -3.101313571611
    H           -2.631778043795    -1.490527371625    -1.557142833791
    H           -1.393174811251    -1.108051921407    -2.715429332805
    H           -4.119578186261     0.261399695921    -2.559704628845
    H           -3.640865495241    -0.927526089645    -3.753728945612
    H           -2.871268383980     0.645690326204    -3.727307274926

  Mulliken Charges: (a.u.)
   Center  Symbol    Alpha    Beta     Spin     Total
       1     O     4.19928  4.19928  0.00000 -0.39855
       2     C     2.80445  2.80445  0.00000  0.39109
       3     C     3.13859  3.13859  0.00000 -0.27717
       4     O     4.15847  4.15847  0.00000 -0.31694
       5     H     0.43859  0.43859  0.00000  0.12283
       6     H     0.44492  0.44492  0.00000  0.11015
       7     H     0.44658  0.44658  0.00000  0.10684
       8     C     2.97974  2.97974  0.00000  0.04053
       9     C     3.10426  3.10426  0.00000 -0.20853
      10     H     0.44393  0.44393  0.00000  0.11215
      11     H     0.45197  0.45197  0.00000  0.09607
      12     C     3.09631  3.09631  0.00000 -0.19263
      13     H     0.45413  0.45413  0.00000  0.09174
      14     H     0.43370  0.43370  0.00000  0.13259
      15     C     3.08286  3.08286  0.00000 -0.16571
      16     H     0.45553  0.45553  0.00000  0.08894
      17     H     0.45265  0.45265  0.00000  0.09470
      18     C     3.15060  3.15060  0.00000 -0.30120
      19     H     0.45425  0.45425  0.00000  0.09150
      20     H     0.45143  0.45143  0.00000  0.09713
      21     H     0.45555  0.45555  0.00000  0.08889
      22     H     0.44774  0.44774  0.00000  0.10452
      23     H     0.45447  0.45447  0.00000  0.09105

   Total alpha = 36.00000, Total beta = 36.00000, Total charge =  0.00000

*** Psi4 exiting successfully. Buy a developer a beer!
