  ==> Input File <==

--------------------------------------------------------------------------
set {
	reference rhf
	basis 6-31G*
}

set_num_threads( 4 )
memory 2 gb

molecule MOL {
0 1

H	 1.166481	 0.555191	 1.836870
O	 1.367178	 0.059544	 1.054624
C	 0.709265	 0.639550	 -0.033818
C	 -0.793441	 0.596080	 0.058728
H	 1.036030	 0.092806	 -0.911029
H	 1.028720	 1.671709	 -0.173898
C	 -1.530462	 -0.493172	 -0.025500
H	 -1.268471	 1.554324	 0.202247
H	 -1.092586	 -1.461565	 -0.186463
H	 -2.602122	 -0.450675	 0.050101

	symmetry c1
}
set optking {
	frozen_dihedral = ("
		5 3 4 7
	")
}

ee = optimize('scf')
oeprop('DIPOLE', 'QUADRUPOLE', 'MULLIKEN_CHARGES')
f=open( 'psi4out.xyz', 'w' )
f.write( "10  " )
f.write( str(ee) + "\n" )
f.write( MOL.save_string_xyz() )
f.close()
--------------------------------------------------------------------------

    Molecular point group: c1
  Charge       = 0
  Multiplicity = 1
  Basis Set: 6-31G*
  Basis Set:
  @DF-RHF Final Energy:  -191.91179270929814
    Total Energy =                       -191.9117927092980835
    Molecular point group: c1
  Basis Set: 6-31G*
  Basis Set:
  Basis Set: 6-31G*
  Basis Set:
  @DF-RHF Final Energy:  -191.91231893330198
    Total Energy =                       -191.9123189333019468
  Basis Set: 6-31G*
  Basis Set:
  Basis Set: 6-31G*
  Basis Set:
  @DF-RHF Final Energy:  -191.91240251163651
    Total Energy =                       -191.9124025116365146
  Basis Set: 6-31G*
  Basis Set:
  Basis Set: 6-31G*
  Basis Set:
  @DF-RHF Final Energy:  -191.91241388289012
    Total Energy =                       -191.9124138828901778
  Basis Set: 6-31G*
  Basis Set:
  Basis Set: 6-31G*
  Basis Set:
  @DF-RHF Final Energy:  -191.91241504544524
    Total Energy =                       -191.9124150454452433
  Basis Set: 6-31G*
  Basis Set:
  Charge       = 0
  Multiplicity = 1
  Basis Set: 6-31G*
  Basis Set:

    Orbital Energies (a.u.)
    -----------------------

    Doubly Occupied:

       1A    -20.553897     2A    -11.274404     3A    -11.230214
       4A    -11.226936     5A     -1.360341     6A     -1.059843
       7A     -0.921139     8A     -0.777369     9A     -0.676998
      10A     -0.659464    11A     -0.604220    12A     -0.575066
      13A     -0.551483    14A     -0.475212    15A     -0.442429
      16A     -0.371505

  @DF-RHF Final Energy:  -191.91241510884524

   => Energetics <=

    Nuclear Repulsion Energy =            118.2136356796640655
    One-Electron Energy =                -494.7310593165711339
    Two-Electron Energy =                 184.6050085280618873
    DFT Exchange-Correlation Energy =       0.0000000000000000
    Empirical Dispersion Energy =           0.0000000000000000
    PCM Polarization Energy =               0.0000000000000000
    EFP Energy =                            0.0000000000000000
    Total Energy =                       -191.9124151088452095
    Molecular point group: c1
  Basis Set: 6-31G*
  Basis Set:

  -Total Gradient:
     Atom            X                  Y                   Z
    ------   -----------------  -----------------  -----------------
       1       -0.000002230242     0.000001452271    -0.000000675239
       2        0.000016282959    -0.000026440791     0.000001546474
       3       -0.000052593176     0.000401840705    -0.000368099922
       4        0.000021467330    -0.000132454301     0.000488754505
       5        0.000026216793    -0.000289802595     0.000196167973
       6        0.000000867057     0.000002547048    -0.000016938856
       7       -0.000019913439     0.000041656591    -0.000302604469
       8        0.000007290009     0.000001503237     0.000005824456
       9        0.000003174943     0.000002429269    -0.000000643920
      10       -0.000000562236    -0.000002731434    -0.000003331002

  **** Optimization is complete! (in 6 steps) ****
    Final optimized geometry and variables:
    Molecular point group: c1

    Geometry (in Angstrom), charge = 0, multiplicity = 1:

    H            1.012718671280     0.228556707043     1.541436701949
    O            1.349093285476    -0.148714728004     0.740353028582
    C            0.698807483530     0.438284161811    -0.359299256312
    C           -0.811872937410     0.409837509159    -0.249188260534
    H            1.022196627125    -0.130822366817    -1.220465827277
    H            1.038365031177     1.461470588179    -0.498894462481
    C           -1.525674410533    -0.697487483891    -0.300878750397
    H           -1.311865293927     1.354493243875    -0.104597272324
    H           -1.064018155870    -1.660024449077    -0.441628260109
    H           -2.596291510456    -0.687038529616    -0.198122349513

  Mulliken Charges: (a.u.)
   Center  Symbol    Alpha    Beta     Spin     Total
       1     H     0.28328  0.28328  0.00000  0.43344
       2     O     4.36637  4.36637  0.00000 -0.73274
       3     C     3.00080  3.00080  0.00000 -0.00161
       4     C     3.10840  3.10840  0.00000 -0.21680
       5     H     0.41002  0.41002  0.00000  0.17995
       6     H     0.42683  0.42683  0.00000  0.14634
       7     C     3.18064  3.18064  0.00000 -0.36128
       8     H     0.40837  0.40837  0.00000  0.18325
       9     H     0.40578  0.40578  0.00000  0.18843
      10     H     0.40950  0.40950  0.00000  0.18101

   Total alpha = 16.00000, Total beta = 16.00000, Total charge = -0.00000
