                              Psi4 1.0.54 Driver

  ==> Input File <==

--------------------------------------------------------------------------
set {
	reference rhf
	basis cc-pvtz
}

set_num_threads( 4 )
memory 2 gb

molecule MOL {
0 1

H	 3.393641	 0.654595	 -0.700744
C	 2.683728	 0.468538	 0.094672
C	 1.322304	 0.099773	 -0.484271
H	 3.079002	 -0.330241	 0.711989
H	 2.624134	 1.364320	 0.702424
C	 0.308557	 -0.162619	 0.622645
H	 1.406783	 -0.786831	 -1.100332
H	 0.955282	 0.901134	 -1.113597
N	 -1.069352	 -0.004081	 0.085342
H	 0.371632	 -1.172932	 0.991288
H	 0.400391	 0.548875	 1.426218
O	 -1.584901	 -0.965470	 -0.377818
O	 -1.548033	 1.079343	 0.130056

	symmetry c1
}
set optking {
	frozen_dihedral = ("
		7 3 6 9
	")
}

ee,wfn = optimize('scf', return_wfn=True)
oeprop( wfn, 'DIPOLE', 'QUADRUPOLE', 'MULLIKEN_CHARGES')
f=open( 'psi4out.xyz', 'w' )
f.write( "13  " )
f.write( str(ee) + "\n" )
f.write( MOL.save_string_xyz() )
f.close()
--------------------------------------------------------------------------

    Molecular point group: c1
  Charge       = 0
  Multiplicity = 1
  Basis Set: CC-PVTZ
  Basis Set:
  @DF-RHF Final Energy:  -321.85988150851182
    Total Energy =                       -321.8598815085119895
    Molecular point group: c1
  Basis Set: CC-PVTZ
  Basis Set:
  Basis Set: CC-PVTZ
  Basis Set:
  @DF-RHF Final Energy:  -321.85961849884194
    Total Energy =                       -321.8596184988421669
  Basis Set: CC-PVTZ
  Basis Set:
  Basis Set: CC-PVTZ
  Basis Set:
  @DF-RHF Final Energy:  -321.85598325079525
    Total Energy =                       -321.8559832507953047
  Basis Set: CC-PVTZ
  Basis Set:
  Basis Set: CC-PVTZ
  Basis Set:
  @DF-RHF Final Energy:  -321.85970066030063
    Total Energy =                       -321.8597006603006889
  Basis Set: CC-PVTZ
  Basis Set:
  Basis Set: CC-PVTZ
  Basis Set:
  @DF-RHF Final Energy:  -321.85980194757587
    Total Energy =                       -321.8598019475758747
  Basis Set: CC-PVTZ
  Basis Set:
  Basis Set: CC-PVTZ
  Basis Set:
  @DF-RHF Final Energy:  -321.86004978249116
    Total Energy =                       -321.8600497824908189
  Basis Set: CC-PVTZ
  Basis Set:
  Basis Set: CC-PVTZ
  Basis Set:
  @DF-RHF Final Energy:  -321.86005306335551
    Total Energy =                       -321.8600530633557355
  Basis Set: CC-PVTZ
  Basis Set:
  Charge       = 0
  Multiplicity = 1
  Basis Set: CC-PVTZ
  Basis Set:

    Orbital Energies (a.u.)
    -----------------------

    Doubly Occupied:

       1A    -20.590350     2A    -20.590293     3A    -15.836817
       4A    -11.297305     5A    -11.254774     6A    -11.236709
       7A     -1.635888     8A     -1.420218     9A     -1.133682
      10A     -1.027838    11A     -0.883649    12A     -0.834514
      13A     -0.761732    14A     -0.738477    15A     -0.727693
      16A     -0.671649    17A     -0.605481    18A     -0.590690
      19A     -0.547712    20A     -0.520457    21A     -0.515593
      22A     -0.486324    23A     -0.474844    24A     -0.453246

  @DF-RHF Final Energy:  -321.86005374276732

   => Energetics <=

    Nuclear Repulsion Energy =            248.0874160977591032
    One-Electron Energy =                -930.2230694627470484
    Two-Electron Energy =                 360.2755996222206250
    DFT Exchange-Correlation Energy =       0.0000000000000000
    Empirical Dispersion Energy =           0.0000000000000000
    PCM Polarization Energy =               0.0000000000000000
    EFP Energy =                            0.0000000000000000
    Total Energy =                       -321.8600537427673771
    Molecular point group: c1
  Basis Set: CC-PVTZ
  Basis Set:

  -Total Gradient:
     Atom            X                  Y                   Z
    ------   -----------------  -----------------  -----------------
       1       -0.000017940651    -0.000007521091    -0.000000511501
       2       -0.000004844518     0.000000705444     0.000019589019
       3       -0.003396162133     0.002475731123    -0.002505106591
       4        0.000000296308     0.000003200656     0.000001411088
       5        0.000006745239     0.000003336656    -0.000004958562
       6        0.000598451227    -0.003900099202    -0.000425657262
       7        0.002770879287    -0.001293273683     0.002214325806
       8       -0.000011057614     0.000003882608     0.000011403318
       9       -0.000022479662     0.002807274702     0.000686097514
      10        0.000021626484     0.000005489940     0.000001464775
      11        0.000008921398     0.000017590530     0.000012603113
      12       -0.000008253950    -0.000078883541    -0.000016237536
      13        0.000053818586    -0.000037434143     0.000005576821

  **** Optimization is complete! (in 8 steps) ****
    Final optimized geometry and variables:
    Molecular point group: c1

    Geometry (in Angstrom), charge = 0, multiplicity = 1:

    H            3.424789628196     0.519187894334    -0.706540852485
    C            2.700800078103     0.374402851205     0.084920839912
    C            1.333926699461     0.030598954020    -0.500640167067
    H            3.066739651486    -0.420856713573     0.725360122892
    H            2.659667291726     1.284945343593     0.671150620245
    C            0.319883074788    -0.244735014694     0.608638149223
    H            1.427281451379    -0.850822106256    -1.121611530038
    H            0.980393683012     0.847050696709    -1.116884365865
    N           -1.060564341997    -0.095852481209     0.076019475816
    H            0.396545104929    -1.248201526191     0.991742049802
    H            0.399723768147     0.477944050788     1.403349291969
    O           -1.553785418538    -1.048562739940    -0.428355144395
    O           -1.563203849387     0.973852299240     0.163725913882

  Mulliken Charges: (a.u.)
   Center  Symbol    Alpha    Beta     Spin     Total
       1     H     0.44234  0.44234  0.00000  0.11533
       2     C     3.15087  3.15087  0.00000 -0.30173
       3     C     3.09379  3.09379  0.00000 -0.18757
       4     H     0.45244  0.45244  0.00000  0.09512
       5     H     0.45025  0.45025  0.00000  0.09951
       6     C     3.03784  3.03784  0.00000 -0.07569
       7     H     0.44024  0.44024  0.00000  0.11953
       8     H     0.43765  0.43765  0.00000  0.12469
       9     N     3.27833  3.27833  0.00000  0.44334
      10     H     0.43310  0.43310  0.00000  0.13380
      11     H     0.43687  0.43687  0.00000  0.12626
      12     O     4.17389  4.17389  0.00000 -0.34779
      13     O     4.17239  4.17239  0.00000 -0.34479

   Total alpha = 24.00000, Total beta = 24.00000, Total charge =  0.00000

*** Psi4 exiting successfully. Buy a developer a beer!
