  ==> Input File <==

--------------------------------------------------------------------------
set {
	reference rhf
	basis 6-31G*
}

set_num_threads( 4 )
memory 2 gb

molecule MOL {
0 1

H	 0.770032	 -2.718575	 2.356893
O	 1.050643	 -2.231808	 1.588082
C	 0.250505	 -1.174407	 1.453555
C	 0.624473	 -0.343591	 0.253101
O	 -0.636824	 -0.953560	 2.211769
C	 -0.265902	 0.883932	 0.072916
H	 1.670079	 -0.076458	 0.365889
H	 0.576409	 -0.994565	 -0.616194
C	 -1.728698	 0.646073	 0.462102
H	 -0.209144	 1.219470	 -0.958188
H	 0.135059	 1.692851	 0.673903
C	 -2.482460	 -0.343073	 -0.431425
H	 -2.245265	 1.602650	 0.432430
H	 -1.779332	 0.308348	 1.496285
C	 -3.960546	 -0.461025	 -0.060175
H	 -2.395034	 -0.026811	 -1.468912
H	 -2.024850	 -1.327147	 -0.371646
H	 -4.472726	 -1.168004	 -0.705284
H	 -4.465146	 0.496508	 -0.151489
H	 -4.081218	 -0.800940	 0.964585

	symmetry c1
}
set optking {
	frozen_dihedral = ("
		7 4 6 10
	")
}

ee = optimize('scf')
oeprop('DIPOLE', 'QUADRUPOLE', 'MULLIKEN_CHARGES')
f=open( 'psi4out.xyz', 'w' )
f.write( "20  " )
f.write( str(ee) + "\n" )
f.write( MOL.save_string_xyz() )
f.close()
--------------------------------------------------------------------------

    Molecular point group: c1
  Charge       = 0
  Multiplicity = 1
  Basis Set: 6-31G*
  Basis Set:
  @DF-RHF Final Energy:  -383.93089566662292
    Total Energy =                       -383.9308956666227459
    Molecular point group: c1
  Basis Set: 6-31G*
  Basis Set:
  Basis Set: 6-31G*
  Basis Set:
  @DF-RHF Final Energy:  -383.94063476214052
    Total Energy =                       -383.9406347621397799
  Basis Set: 6-31G*
  Basis Set:
  Basis Set: 6-31G*
  Basis Set:
  @DF-RHF Final Energy:  -383.94244982547735
    Total Energy =                       -383.9424498254772971
  Basis Set: 6-31G*
  Basis Set:
  Basis Set: 6-31G*
  Basis Set:
  @DF-RHF Final Energy:  -383.93973372774593
    Total Energy =                       -383.9397337277458746
  Basis Set: 6-31G*
  Basis Set:
  @DF-RHF Final Energy:  -383.94327525477325
    Total Energy =                       -383.9432752547726295
  @DF-RHF Final Energy:  -383.94370402003744
    Total Energy =                       -383.9437040200374440
  @DF-RHF Final Energy:  -383.94425807160439
    Total Energy =                       -383.9442580716043949
  @DF-RHF Final Energy:  -383.94468916574226
    Total Energy =                       -383.9446891657424885
  @DF-RHF Final Energy:  -383.94495068571729
    Total Energy =                       -383.9449506857172310
  @DF-RHF Final Energy:  -383.94501599800833
    Total Energy =                       -383.9450159980081025
  Basis Set: 6-31G*
  Basis Set:
  @DF-RHF Final Energy:  -383.94505601665628
    Total Energy =                       -383.9450560166563946
  Basis Set: 6-31G*
  Basis Set:
  Basis Set: 6-31G*
  Basis Set:
  @DF-RHF Final Energy:  -383.94506487356330
    Total Energy =                       -383.9450648735630693
  Basis Set: 6-31G*
  Basis Set:
  Basis Set: 6-31G*
  Basis Set:
  @DF-RHF Final Energy:  -383.94506819916836
    Total Energy =                       -383.9450681991684178
  Basis Set: 6-31G*
  Basis Set:
  Charge       = 0
  Multiplicity = 1
  Basis Set: 6-31G*
  Basis Set:

    Orbital Energies (a.u.)
    -----------------------

    Doubly Occupied:

       1A    -20.615445     2A    -20.549443     3A    -11.381535
       4A    -11.240317     5A    -11.228185     6A    -11.218039
       7A    -11.214647     8A    -11.209824     9A     -1.475740
      10A     -1.365433    11A     -1.094386    12A     -1.037613
      13A     -0.958587    14A     -0.871959    15A     -0.816603
      16A     -0.775129    17A     -0.702590    18A     -0.683409
      19A     -0.661198    20A     -0.633184    21A     -0.607548
      22A     -0.590774    23A     -0.575714    24A     -0.556170
      25A     -0.534975    26A     -0.515243    27A     -0.499994
      28A     -0.480688    29A     -0.466999    30A     -0.464453
      31A     -0.454824    32A     -0.437088

  @DF-RHF Final Energy:  -383.94506878180118

   => Energetics <=

    Nuclear Repulsion Energy =            391.7644367017433069
    One-Electron Energy =               -1299.5835373383590650
    Two-Electron Energy =                 523.8740318548143478
    DFT Exchange-Correlation Energy =       0.0000000000000000
    Empirical Dispersion Energy =           0.0000000000000000
    PCM Polarization Energy =               0.0000000000000000
    EFP Energy =                            0.0000000000000000
    Total Energy =                       -383.9450687818014103
    Molecular point group: c1
  Basis Set: 6-31G*
  Basis Set:

  -Total Gradient:
     Atom            X                  Y                   Z
    ------   -----------------  -----------------  -----------------
       1        0.000013107116     0.000047923547    -0.000017266537
       2        0.000014591322    -0.000091059405    -0.000084824728
       3       -0.000088389905     0.000036985834     0.000225328911
       4       -0.000214458327    -0.000933221208    -0.007250124747
       5        0.000036599706     0.000047235667    -0.000176153281
       6        0.005133017817     0.004126079100     0.002898185648
       7       -0.000505180488     0.000170341109     0.005679174218
       8        0.000006672927     0.000000129112     0.000027075802
       9        0.000022089065    -0.000034010805     0.000000039861
      10       -0.004348129669    -0.003374603854    -0.001283345117
      11        0.000015695077     0.000002214003    -0.000000416952
      12       -0.000067488386     0.000039793777    -0.000014053573
      13       -0.000013589512     0.000002837290    -0.000013709185
      14       -0.000001685572    -0.000012811996     0.000007247059
      15       -0.000014790221    -0.000013021694    -0.000008311289
      16        0.000008006725    -0.000004567868     0.000009787953
      17        0.000004709645    -0.000012424006     0.000005972770
      18       -0.000008104659    -0.000001720947     0.000001710677
      19        0.000004376098     0.000000905920    -0.000000808788
      20        0.000002951234     0.000002996420    -0.000005508707

  **** Optimization is complete! (in 14 steps) ****
    Final optimized geometry and variables:
    Molecular point group: c1

    Geometry (in Angstrom), charge = 0, multiplicity = 1:

    H            1.221964665874    -2.346942009319     1.406399357802
    O            1.319488478200    -1.909892072413     0.565592575160
    C            1.247757051883    -0.596896626271     0.773479660729
    C            1.456793496502     0.204987782412    -0.488581014951
    O            1.077380787304    -0.138585972603     1.857393803172
    C            0.537204855704     1.433748658246    -0.607657301948
    H            2.487150784497     0.542970497819    -0.405906209498
    H            1.383250720595    -0.448543547291    -1.346066078841
    C           -0.943216882308     1.192876964905    -0.278913924034
    H            0.583299969376     1.765351556188    -1.641733110912
    H            0.916512993937     2.231263108526     0.019507533394
    C           -1.619921977264     0.136328617461    -1.157397001535
    H           -1.465790217708     2.138619708750    -0.404923317812
    H           -1.050920758349     0.924102894538     0.766547197407
    C           -3.114289387956     0.000818440006    -0.866121428832
    H           -1.478634982750     0.392579473612    -2.205886011128
    H           -1.143562229677    -0.830687920588    -1.013561127932
    H           -3.570826915832    -0.756686300875    -1.495582952244
    H           -3.634491247712     0.937590078370    -1.044452125205
    H           -3.286868114634    -0.280160786763     0.168804327795

  Mulliken Charges: (a.u.)
   Center  Symbol    Alpha    Beta     Spin     Total
       1     H     0.26830  0.26830  0.00000  0.46340
       2     O     4.34957  4.34957  0.00000 -0.69914
       3     C     2.62319  2.62319  0.00000  0.75362
       4     C     3.21505  3.21505  0.00000 -0.43009
       5     O     4.28168  4.28168  0.00000 -0.56336
       6     C     3.15117  3.15117  0.00000 -0.30234
       7     H     0.39589  0.39589  0.00000  0.20822
       8     H     0.39685  0.39685  0.00000  0.20629
       9     C     3.16630  3.16630  0.00000 -0.33260
      10     H     0.41754  0.41754  0.00000  0.16491
      11     H     0.40791  0.40791  0.00000  0.18417
      12     C     3.15682  3.15682  0.00000 -0.31363
      13     H     0.42002  0.42002  0.00000  0.15995
      14     H     0.40588  0.40588  0.00000  0.18825
      15     C     3.23885  3.23885  0.00000 -0.47770
      16     H     0.42393  0.42393  0.00000  0.15214
      17     H     0.42084  0.42084  0.00000  0.15833
      18     H     0.41907  0.41907  0.00000  0.16186
      19     H     0.42126  0.42126  0.00000  0.15749
      20     H     0.41988  0.41988  0.00000  0.16024

   Total alpha = 32.00000, Total beta = 32.00000, Total charge =  0.00000
