  ==> Input File <==

--------------------------------------------------------------------------
set {
	reference rhf
	basis 6-31G*
}

set_num_threads( 4 )
memory 2 gb

molecule MOL {
0 1

O	 2.966242	 1.186256	 0.603171
C	 2.843464	 0.164689	 -0.000222
C	 1.546494	 -0.624492	 -0.000609
C	 3.984378	 -0.414614	 -0.811320
C	 0.291004	 0.242674	 0.000989
H	 1.557904	 -1.283758	 -0.867573
H	 1.558622	 -1.285963	 0.864672
C	 -0.994322	 -0.586602	 0.000262
H	 0.309117	 0.896430	 -0.865270
H	 0.309661	 0.894078	 0.869017
C	 -2.259874	 0.272531	 0.000494
H	 -1.004862	 -1.240012	 -0.870939
H	 -1.005220	 -1.241071	 0.870675
C	 -3.549786	 -0.549746	 -0.000374
H	 -2.250389	 0.926680	 -0.869574
H	 -2.250838	 0.925513	 0.871430
C	 -4.809590	 0.315458	 -0.000369
H	 -3.560515	 -1.202009	 -0.871156
H	 -3.561123	 -1.202955	 0.869711
H	 -4.844746	 0.956611	 -0.876632
H	 -5.706986	 -0.295590	 -0.001609
H	 -4.845960	 0.954827	 0.877144
H	 3.695432	 -0.515826	 -1.853378
H	 4.848838	 0.230433	 -0.737455
H	 4.240317	 -1.406438	 -0.450191

	symmetry c1
}
set optking {
	frozen_dihedral = ("
		1 2 3 6
	")
}

ee = optimize('scf')
oeprop('DIPOLE', 'QUADRUPOLE', 'MULLIKEN_CHARGES')
f=open( 'psi4out.xyz', 'w' )
f.write( "25  " )
f.write( str(ee) + "\n" )
f.write( MOL.save_string_xyz() )
f.close()
--------------------------------------------------------------------------

    Molecular point group: c1
  Charge       = 0
  Multiplicity = 1
  Basis Set: 6-31G*
  Basis Set:
  @DF-RHF Final Energy:  -387.13501741455951
    Total Energy =                       -387.1350174145594565
    Molecular point group: c1
  Basis Set: 6-31G*
  Basis Set:
  Basis Set: 6-31G*
  Basis Set:
  @DF-RHF Final Energy:  -387.13421235557365
    Total Energy =                       -387.1342123555737089
  Basis Set: 6-31G*
  Basis Set:
  Basis Set: 6-31G*
  Basis Set:
  @DF-RHF Final Energy:  -387.13518803428497
    Total Energy =                       -387.1351880342849654
  Basis Set: 6-31G*
  Basis Set:
  Basis Set: 6-31G*
  Basis Set:
  @DF-RHF Final Energy:  -387.13550523795425
    Total Energy =                       -387.1355052379550443
  Basis Set: 6-31G*
  Basis Set:
  Basis Set: 6-31G*
  Basis Set:
  @DF-RHF Final Energy:  -387.13551270373279
    Total Energy =                       -387.1355127037320472
  Basis Set: 6-31G*
  Basis Set:
  Basis Set: 6-31G*
  Basis Set:
  @DF-RHF Final Energy:  -387.13551549076107
    Total Energy =                       -387.1355154907607812
  Basis Set: 6-31G*
  Basis Set:
  Charge       = 0
  Multiplicity = 1
  Basis Set: 6-31G*
  Basis Set:

    Orbital Energies (a.u.)
    -----------------------

    Doubly Occupied:

       1A    -20.548749     2A    -11.326120     3A    -11.231148
       4A    -11.228610     5A    -11.219839     6A    -11.217865
       7A    -11.216025     8A    -11.214483     9A    -11.208845
      10A     -1.394648    11A     -1.094459    12A     -1.056468
      13A     -1.014528    14A     -0.969771    15A     -0.891343
      16A     -0.814894    17A     -0.791780    18A     -0.730381
      19A     -0.663237    20A     -0.649700    21A     -0.633931
      22A     -0.618608    23A     -0.597959    24A     -0.584885
      25A     -0.567528    26A     -0.560452    27A     -0.540379
      28A     -0.530373    29A     -0.512276    30A     -0.491812
      31A     -0.486738    32A     -0.473098    33A     -0.464601
      34A     -0.463442    35A     -0.451047    36A     -0.397455

  @DF-RHF Final Energy:  -387.13551534659445

   => Energetics <=

    Nuclear Repulsion Energy =            438.2350539008455712
    One-Electron Energy =               -1393.0261846176890685
    Two-Electron Energy =                 567.6556153702482561
    DFT Exchange-Correlation Energy =       0.0000000000000000
    Empirical Dispersion Energy =           0.0000000000000000
    PCM Polarization Energy =               0.0000000000000000
    EFP Energy =                            0.0000000000000000
    Total Energy =                       -387.1355153465952981
    Molecular point group: c1
  Basis Set: 6-31G*
  Basis Set:

  -Total Gradient:
     Atom            X                  Y                   Z
    ------   -----------------  -----------------  -----------------
       1        0.000449155413    -0.000791567540     0.001266226715
       2       -0.000442726565     0.000862247140    -0.001582816529
       3       -0.000632756774     0.001029345540    -0.000592690972
       4        0.000014093621     0.000014314901     0.000034817550
       5       -0.000020408373    -0.000008998120     0.000021499209
       6        0.000642980654    -0.001113371706     0.000880881743
       7       -0.000003217679     0.000009606965    -0.000005984782
       8       -0.000010654010     0.000010190036     0.000002203469
       9       -0.000013911631     0.000009859406     0.000005122074
      10        0.000015223428    -0.000015209881     0.000006093338
      11       -0.000003814389    -0.000001633633    -0.000019102714
      12        0.000006527277    -0.000012496560     0.000010842875
      13       -0.000007615055     0.000014139860     0.000010332926
      14        0.000000069829    -0.000000911961    -0.000009364444
      15       -0.000000602572     0.000009587954    -0.000000284442
      16        0.000003575532    -0.000010606605     0.000000704161
      17        0.000001569170     0.000000768457    -0.000003641427
      18       -0.000001962026    -0.000002321882     0.000000980064
      19        0.000001874516     0.000001454066     0.000001600010
      20       -0.000000099607     0.000000925277     0.000000605214
      21        0.000000663314    -0.000000531790    -0.000000790804
      22       -0.000000031348    -0.000000584323     0.000000674910
      23       -0.000003592465     0.000001210748    -0.000011415052
      24        0.000010260985    -0.000009608086    -0.000011100784
      25       -0.000004601242     0.000004191735    -0.000005392309

  **** Optimization is complete! (in 7 steps) ****
    Final optimized geometry and variables:
    Molecular point group: c1

    Geometry (in Angstrom), charge = 0, multiplicity = 1:

    O            2.926659151956     1.178491872444     0.626790247681
    C            2.845189732777     0.161389496058     0.008371641027
    C            1.552561117460    -0.637094791923    -0.042260669453
    C            4.035140261027    -0.416416274912    -0.725177175889
    C            0.294653572465     0.231143243361    -0.021743216525
    H            1.561267360769    -1.302776936319    -0.901114505981
    H            1.566447552252    -1.286742230357     0.833153688847
    C           -0.991318004456    -0.595966785700     0.011209374367
    H            0.290428090543     0.875198618679    -0.898181495087
    H            0.338158390766     0.887791541465     0.839416929200
    C           -2.255541506073     0.265107304293     0.019749681657
    H           -1.017620359034    -1.263876835713    -0.848456724515
    H           -0.986057841040    -1.234894787430     0.892909049514
    C           -3.546095346839    -0.555331717375     0.057354628770
    H           -2.262028674957     0.903760381464    -0.861939066998
    H           -2.229255417428     0.933161044835     0.878704936825
    C           -4.804712417094     0.311543368439     0.064626670549
    H           -3.573420746874    -1.223428237007    -0.800995464352
    H           -3.542071164547    -1.192356052303     0.939328958402
    H           -4.855679539315     0.936170635962    -0.822752607330
    H           -5.702542102072    -0.298212009842     0.091649796057
    H           -4.823961849262     0.967247259305     0.930512284657
    H            3.848371799950    -0.401655376438    -1.795700232353
    H            4.921549850054     0.162620534273    -0.506711151127
    H            4.192268073523    -1.453139799218    -0.441511078277

  Mulliken Charges: (a.u.)
   Center  Symbol    Alpha    Beta     Spin     Total
       1     O     4.26331  4.26331  0.00000 -0.52663
       2     C     2.73369  2.73369  0.00000  0.53262
       3     C     3.20956  3.20956  0.00000 -0.41912
       4     C     3.28818  3.28818  0.00000 -0.57636
       5     C     3.15273  3.15273  0.00000 -0.30546
       6     H     0.41447  0.41447  0.00000  0.17107
       7     H     0.40438  0.40438  0.00000  0.19125
       8     C     3.15345  3.15345  0.00000 -0.30689
       9     H     0.41928  0.41928  0.00000  0.16143
      10     H     0.40354  0.40354  0.00000  0.19292
      11     C     3.15105  3.15105  0.00000 -0.30210
      12     H     0.42483  0.42483  0.00000  0.15035
      13     H     0.42329  0.42329  0.00000  0.15341
      14     C     3.15160  3.15160  0.00000 -0.30321
      15     H     0.42328  0.42328  0.00000  0.15343
      16     H     0.42163  0.42163  0.00000  0.15675
      17     C     3.23938  3.23938  0.00000 -0.47876
      18     H     0.42361  0.42361  0.00000  0.15278
      19     H     0.42303  0.42303  0.00000  0.15394
      20     H     0.42162  0.42162  0.00000  0.15675
      21     H     0.41936  0.41936  0.00000  0.16127
      22     H     0.42109  0.42109  0.00000  0.15782
      23     H     0.40718  0.40718  0.00000  0.18564
      24     H     0.39706  0.39706  0.00000  0.20588
      25     H     0.40940  0.40940  0.00000  0.18120

   Total alpha = 36.00000, Total beta = 36.00000, Total charge =  0.00000
