                              Psi4 1.0.54 Driver

  ==> Input File <==

--------------------------------------------------------------------------
set {
	reference rhf
	basis cc-pvtz
}

set_num_threads( 4 )
memory 2 gb

molecule MOL {
0 1

O	 -2.817697	 1.304178	 0.001046
C	 -2.664672	 0.129869	 0.003507
C	 -3.797908	 -0.860100	 -0.001145
O	 -1.481217	 -0.452708	 0.001092
H	 -4.408836	 -0.679689	 -0.875387
H	 -3.443486	 -1.878443	 -0.002770
H	 -4.412123	 -0.683688	 0.871605
C	 -0.332055	 0.384012	 -0.000250
C	 0.892252	 -0.506059	 -0.000295
H	 -0.360822	 1.020205	 -0.874146
H	 -0.359817	 1.021310	 0.872861
C	 2.188199	 0.299473	 -0.001416
H	 0.857046	 -1.152781	 -0.871031
H	 0.857910	 -1.151798	 0.871202
C	 3.437151	 -0.577593	 -0.000991
H	 2.209565	 0.950707	 -0.871712
H	 2.210062	 0.952234	 0.867721
C	 3.867731	 -1.003637	 1.398329
H	 4.250968	 -0.041810	 -0.481297
H	 3.254571	 -1.460712	 -0.606675
H	 4.090838	 -0.142014	 2.018550
H	 4.755528	 -1.624201	 1.363360
H	 3.086579	 -1.571638	 1.892324

	symmetry c1
}
set optking {
	frozen_dihedral = ("
		19 15 12 16
	")
}

ee,wfn = optimize('scf', return_wfn=True)
oeprop( wfn, 'DIPOLE', 'QUADRUPOLE', 'MULLIKEN_CHARGES')
f=open( 'psi4out.xyz', 'w' )
f.write( "23  " )
f.write( str(ee) + "\n" )
f.write( MOL.save_string_xyz() )
f.close()
--------------------------------------------------------------------------

    Molecular point group: c1
  Charge       = 0
  Multiplicity = 1
  Basis Set: CC-PVTZ
  Basis Set:
  @DF-RHF Final Energy:  -423.13180796250015
    Total Energy =                       -423.1318079625000337
    Molecular point group: c1
  Basis Set: CC-PVTZ
  Basis Set:
  Basis Set: CC-PVTZ
  Basis Set:
  @DF-RHF Final Energy:  -423.13181801749897
    Total Energy =                       -423.1318180174989720
  Basis Set: CC-PVTZ
  Basis Set:
  Basis Set: CC-PVTZ
  Basis Set:
  @DF-RHF Final Energy:  -423.13190523837051
    Total Energy =                       -423.1319052383703365
  Basis Set: CC-PVTZ
  Basis Set:
  Basis Set: CC-PVTZ
  Basis Set:
  @DF-RHF Final Energy:  -423.13201977338321
    Total Energy =                       -423.1320197733832629
  Basis Set: CC-PVTZ
  Basis Set:
  Basis Set: CC-PVTZ
  Basis Set:
  @DF-RHF Final Energy:  -423.13204849555672
    Total Energy =                       -423.1320484955568872
  Basis Set: CC-PVTZ
  Basis Set:
  Basis Set: CC-PVTZ
  Basis Set:
  @DF-RHF Final Energy:  -423.13204977602049
    Total Energy =                       -423.1320497760202670
  Basis Set: CC-PVTZ
  Basis Set:
  Charge       = 0
  Multiplicity = 1
  Basis Set: CC-PVTZ
  Basis Set:

    Orbital Energies (a.u.)
    -----------------------

    Doubly Occupied:

       1A    -20.595984     2A    -20.529560     3A    -11.366437
       4A    -11.279418     5A    -11.230713     6A    -11.222411
       7A    -11.221341     8A    -11.219528     9A    -11.211366
      10A     -1.471199    11A     -1.364046    12A     -1.094771
      13A     -1.042225    14A     -1.003210    15A     -0.931778
      16A     -0.850963    17A     -0.797605    18A     -0.774513
      19A     -0.694013    20A     -0.688500    21A     -0.672907
      22A     -0.634798    23A     -0.618340    24A     -0.597878
      25A     -0.580106    26A     -0.572061    27A     -0.547912
      28A     -0.535977    29A     -0.528403    30A     -0.507842
      31A     -0.499936    32A     -0.473341    33A     -0.467185
      34A     -0.465491    35A     -0.455219    36A     -0.438932

  @DF-RHF Final Energy:  -423.13204987217080

   => Energetics <=

    Nuclear Repulsion Energy =            453.9042675078530920
    One-Electron Energy =               -1475.7008149565563144
    Two-Electron Energy =                 598.6644975765326535
    DFT Exchange-Correlation Energy =       0.0000000000000000
    Empirical Dispersion Energy =           0.0000000000000000
    PCM Polarization Energy =               0.0000000000000000
    EFP Energy =                            0.0000000000000000
    Total Energy =                       -423.1320498721705690
    Molecular point group: c1
  Basis Set: CC-PVTZ
  Basis Set:

  -Total Gradient:
     Atom            X                  Y                   Z
    ------   -----------------  -----------------  -----------------
       1        0.000000802019    -0.000001341716     0.000008625103
       2        0.000003524142    -0.000005331671    -0.000007703894
       3       -0.000001135997     0.000001942027     0.000001550902
       4       -0.000007282943     0.000001515139     0.000015221295
       5        0.000003162778    -0.000001502404     0.000001518239
       6        0.000000527474     0.000000601589    -0.000000850670
       7        0.000001010582     0.000002207430    -0.000002224461
       8        0.000001162646     0.000003308303    -0.000046113564
       9       -0.000000419336     0.000000829208     0.000012706945
      10        0.000004370884     0.000001202845     0.000008418355
      11       -0.000003194191    -0.000003860312     0.000005372816
      12       -0.001732796550    -0.002837438725    -0.002431991450
      13       -0.000004688696     0.000004471924     0.000002327748
      14        0.000003168645    -0.000004905409     0.000001633645
      15        0.001118635959     0.001956462636     0.003445211633
      16        0.001279065026     0.002072841248     0.001497618450
      17       -0.000000604791    -0.000001919714    -0.000002934842
      18        0.000000985877    -0.000002190924     0.000002734537
      19       -0.000665529072    -0.001190686729    -0.002510847848
      20        0.000001708645     0.000001203596     0.000001777433
      21        0.000001371052    -0.000000645251     0.000000282241
      22       -0.000006009112     0.000001773120    -0.000001198999
      23        0.000002164952     0.000001463793    -0.000001133612

  **** Optimization is complete! (in 7 steps) ****
    Final optimized geometry and variables:
    Molecular point group: c1

    Geometry (in Angstrom), charge = 0, multiplicity = 1:

    O           -2.748290183645     1.383313462884    -0.157359690630
    C           -2.571149247533     0.212387812470    -0.162843306447
    C           -3.683877762319    -0.800793343429    -0.162979110488
    O           -1.375881304247    -0.345403500781    -0.169353550832
    H           -4.303777008432    -0.630699582963    -1.033018820237
    H           -3.308585757028    -1.811648902744    -0.169533375515
    H           -4.296137406749    -0.639248960825     0.714089870010
    C           -0.244628354946     0.515002287531    -0.169880253363
    C            0.997954017359    -0.349343859569    -0.175917026498
    H           -0.287909675339     1.153866176702    -1.041382159515
    H           -0.283308975901     1.148537819581     0.705592514011
    C            2.275478453506     0.485885182378    -0.192025885657
    H            0.971907293586    -0.997073635259    -1.046093317087
    H            0.978770492527    -0.994487672549     0.695786744194
    C            3.561295608550    -0.347997780513    -0.137090139234
    H            2.290877897691     1.115228140365    -1.076612626576
    H            2.266215473497     1.174247244977     0.650148960815
    C            3.978838269712    -0.754806709366     1.272549944586
    H            4.365675973489     0.204078418173    -0.611260564816
    H            3.430066128105    -1.240401784962    -0.743473160611
    H            4.185832210112     0.117496763469     1.883209123350
    H            4.874715665785    -1.364514191729     1.252226030078
    H            3.204252991889    -1.328634285525     1.769051627995

  Mulliken Charges: (a.u.)
   Center  Symbol    Alpha    Beta     Spin     Total
       1     O     4.20240  4.20240  0.00000 -0.40480
       2     C     2.81517  2.81517  0.00000  0.36966
       3     C     3.13993  3.13993  0.00000 -0.27987
       4     O     4.14501  4.14501  0.00000 -0.29003
       5     H     0.44209  0.44209  0.00000  0.11581
       6     H     0.44189  0.44189  0.00000  0.11622
       7     H     0.44211  0.44211  0.00000  0.11577
       8     C     2.97896  2.97896  0.00000  0.04208
       9     C     3.08244  3.08244  0.00000 -0.16488
      10     H     0.45341  0.45341  0.00000  0.09317
      11     H     0.45352  0.45352  0.00000  0.09296
      12     C     3.10481  3.10481  0.00000 -0.20963
      13     H     0.45047  0.45047  0.00000  0.09906
      14     H     0.45054  0.45054  0.00000  0.09891
      15     C     3.09079  3.09079  0.00000 -0.18159
      16     H     0.44576  0.44576  0.00000  0.10848
      17     H     0.45446  0.45446  0.00000  0.09107
      18     C     3.14785  3.14785  0.00000 -0.29570
      19     H     0.44652  0.44652  0.00000  0.10695
      20     H     0.45555  0.45555  0.00000  0.08889
      21     H     0.45438  0.45438  0.00000  0.09125
      22     H     0.44712  0.44712  0.00000  0.10576
      23     H     0.45478  0.45478  0.00000  0.09043

   Total alpha = 36.00000, Total beta = 36.00000, Total charge =  0.00000

*** Psi4 exiting successfully. Buy a developer a beer!
