  ==> Input File <==

--------------------------------------------------------------------------
set {
	reference rhf
	basis 6-31G*
}

set_num_threads( 4 )
memory 2 gb

molecule MOL {
0 1

H	 -2.698709	 -0.000305	 0.034435
C	 -1.693833	 0.000034	 0.434417
O	 -0.828952	 -0.000968	 -0.659236
H	 -1.574200	 0.882896	 1.055746
H	 -1.574147	 -0.881698	 1.057355
C	 0.559449	 -0.000018	 -0.420814
C	 0.970621	 -1.012038	 0.646739
C	 1.374024	 -0.147011	 -1.704488
H	 0.740634	 0.992109	 -0.024723
H	 0.339148	 -0.912023	 1.522973
H	 1.999212	 -0.837865	 0.946574
H	 0.903672	 -2.035201	 0.290620
H	 1.021310	 0.551182	 -2.455872
H	 2.420039	 0.065479	 -1.506584
H	 1.317174	 -1.150159	 -2.114735

	symmetry c1
}
set optking {
	frozen_dihedral = ("
		9 6 3 2
	")
}

ee = optimize('scf')
oeprop('DIPOLE', 'QUADRUPOLE', 'MULLIKEN_CHARGES')
f=open( 'psi4out.xyz', 'w' )
f.write( "15  " )
f.write( str(ee) + "\n" )
f.write( MOL.save_string_xyz() )
f.close()
--------------------------------------------------------------------------

    Molecular point group: c1
  Charge       = 0
  Multiplicity = 1
  Basis Set: 6-31G*
  Basis Set:
  @DF-RHF Final Energy:  -232.13373875318260
    Total Energy =                       -232.1337387531825129
    Molecular point group: c1
  Basis Set: 6-31G*
  Basis Set:
  Basis Set: 6-31G*
  Basis Set:
  @DF-RHF Final Energy:  -232.13799271469665
    Total Energy =                       -232.1379927146966793
  Basis Set: 6-31G*
  Basis Set:
  Basis Set: 6-31G*
  Basis Set:
  @DF-RHF Final Energy:  -232.13964833880564
    Total Energy =                       -232.1396483388055572
  Basis Set: 6-31G*
  Basis Set:
  Basis Set: 6-31G*
  Basis Set:
  @DF-RHF Final Energy:  -232.13988891473443
    Total Energy =                       -232.1398889147344562
  Basis Set: 6-31G*
  Basis Set:
  Basis Set: 6-31G*
  Basis Set:
  @DF-RHF Final Energy:  -232.13999086559531
    Total Energy =                       -232.1399908655953368
  Basis Set: 6-31G*
  Basis Set:
  Basis Set: 6-31G*
  Basis Set:
  @DF-RHF Final Energy:  -232.14003304621565
    Total Energy =                       -232.1400330462155921
  Basis Set: 6-31G*
  Basis Set:
  Basis Set: 6-31G*
  Basis Set:
  @DF-RHF Final Energy:  -232.14003610481907
    Total Energy =                       -232.1400361048189893
  Basis Set: 6-31G*
  Basis Set:
  Charge       = 0
  Multiplicity = 1
  Basis Set: 6-31G*
  Basis Set:

    Orbital Energies (a.u.)
    -----------------------

    Doubly Occupied:

       1A    -20.549829     2A    -11.274537     3A    -11.262401
       4A    -11.212109     5A    -11.205328     6A     -1.373575
       7A     -1.052582     8A     -0.946759     9A     -0.913047
      10A     -0.789147    11A     -0.675158    12A     -0.639838
      13A     -0.632958    14A     -0.592675    15A     -0.550202
      16A     -0.542984    17A     -0.525482    18A     -0.497857
      19A     -0.494686    20A     -0.450386    21A     -0.408266

  @DF-RHF Final Energy:  -232.14003699222295

   => Energetics <=

    Nuclear Repulsion Energy =            197.8721981747634402
    One-Electron Energy =                -706.8448585865667155
    Two-Electron Energy =                 276.8326234195802726
    DFT Exchange-Correlation Energy =       0.0000000000000000
    Empirical Dispersion Energy =           0.0000000000000000
    PCM Polarization Energy =               0.0000000000000000
    EFP Energy =                            0.0000000000000000
    Total Energy =                       -232.1400369922230311
    Molecular point group: c1
  Basis Set: 6-31G*
  Basis Set:

  -Total Gradient:
     Atom            X                  Y                   Z
    ------   -----------------  -----------------  -----------------
       1        0.000002732882    -0.000002732021    -0.000001247221
       2        0.000137665076    -0.002936725618     0.000181840882
       3       -0.000085408962     0.004525811226    -0.001010519089
       4       -0.000009648403     0.000002287924     0.000003765240
       5       -0.000014181891     0.000008266677    -0.000008027153
       6       -0.000846473939    -0.002625453799     0.004131387004
       7        0.000007169836    -0.000008137373    -0.000005309086
       8        0.000056529309    -0.000012813159     0.000013869447
       9        0.000735796274     0.001055847755    -0.003268301595
      10        0.000006995305     0.000006132688    -0.000015279719
      11       -0.000006244336     0.000005162273    -0.000009203654
      12        0.000003282236    -0.000012800120    -0.000000770718
      13       -0.000004452087    -0.000007807982     0.000007098409
      14        0.000012042774     0.000002546378    -0.000020991539
      15        0.000004195927     0.000000415151     0.000001688790

  **** Optimization is complete! (in 8 steps) ****
    Final optimized geometry and variables:
    Molecular point group: c1

    Geometry (in Angstrom), charge = 0, multiplicity = 1:

    H           -2.754302487507     0.305493852334     0.242730576329
    C           -1.772324526386     0.193004894278     0.682427594712
    O           -0.854792790246     0.182787228305    -0.365247453018
    H           -1.599812838930     1.026349853286     1.362009714752
    H           -1.754671788049    -0.729602592279     1.254276645068
    C            0.508419268314     0.278520893760    -0.032415363595
    C            0.955462349840    -0.741434158325     1.011067862714
    C            1.264804128327     0.104379552017    -1.341820232334
    H            0.704159425637     1.286667841555     0.335681215471
    H            0.496011401644    -0.573021312602     1.978523862503
    H            2.030377801727    -0.681168247359     1.146864625605
    H            0.709423275646    -1.747685987476     0.685516511278
    H            0.910874516840     0.820466745983    -2.074235935864
    H            2.329891544352     0.255343655501    -1.196815722273
    H            1.107001830280    -0.892886486213    -1.739181836343

  Mulliken Charges: (a.u.)
   Center  Symbol    Alpha    Beta     Spin     Total
       1     H     0.41256  0.41256  0.00000  0.17488
       2     C     3.07944  3.07944  0.00000 -0.15888
       3     O     4.31123  4.31123  0.00000 -0.62247
       4     H     0.43220  0.43220  0.00000  0.13560
       5     H     0.42731  0.42731  0.00000  0.14538
       6     C     2.90709  2.90709  0.00000  0.18583
       7     C     3.25758  3.25758  0.00000 -0.51516
       8     C     3.24025  3.24025  0.00000 -0.48050
       9     H     0.43074  0.43074  0.00000  0.13851
      10     H     0.41728  0.41728  0.00000  0.16543
      11     H     0.41737  0.41737  0.00000  0.16527
      12     H     0.41475  0.41475  0.00000  0.17049
      13     H     0.41140  0.41140  0.00000  0.17720
      14     H     0.42409  0.42409  0.00000  0.15181
      15     H     0.41670  0.41670  0.00000  0.16660

   Total alpha = 21.00000, Total beta = 21.00000, Total charge = -0.00000
