  ==> Input File <==

--------------------------------------------------------------------------
set {
	reference rhf
	basis cc-pvtz
}

set_num_threads( 4 )
memory 2 gb

molecule MOL {
0 1

H	 -2.816458	 -0.841657	 -0.064679
N	 -1.878861	 -0.711874	 0.250184
C	 -1.341419	 0.551458	 -0.220231
H	 -1.333674	 -1.468530	 -0.105118
C	 0.082190	 0.731516	 0.254705
H	 -1.357065	 0.652078	 -1.304747
H	 -1.939897	 1.357530	 0.189797
O	 0.881195	 -0.248324	 -0.336237
H	 0.440901	 1.722476	 -0.020063
H	 0.119896	 0.643586	 1.338114
C	 1.162833	 -1.333630	 0.483526
H	 1.784591	 -2.019004	 -0.074205
H	 1.698189	 -1.026825	 1.379606
H	 0.254874	 -1.850359	 0.785460

	symmetry c1
}
set optking {
	frozen_dihedral = ("
		11 8 5 3
	")
}

ee = optimize('scf')
oeprop('DIPOLE', 'QUADRUPOLE', 'MULLIKEN_CHARGES')
f=open( 'psi4out.xyz', 'w' )
f.write( "14  " )
f.write( str(ee) + "\n" )
f.write( MOL.save_string_xyz() )
f.close()
--------------------------------------------------------------------------

    Molecular point group: c1
  Charge       = 0
  Multiplicity = 1
  Basis Set: CC-PVTZ
  Basis Set:
  @DF-RHF Final Energy:  -248.21726766241963
    Total Energy =                       -248.2172676624196015
    Molecular point group: c1
  Basis Set: CC-PVTZ
  Basis Set:
  Basis Set: CC-PVTZ
  Basis Set:
  @DF-RHF Final Energy:  -248.22059546551455
    Total Energy =                       -248.2205954655145206
  Basis Set: CC-PVTZ
  Basis Set:
  Basis Set: CC-PVTZ
  Basis Set:
  @DF-RHF Final Energy:  -248.22107391002419
    Total Energy =                       -248.2210739100241881
  Basis Set: CC-PVTZ
  Basis Set:
  Basis Set: CC-PVTZ
  Basis Set:
  @DF-RHF Final Energy:  -248.22111292220850
    Total Energy =                       -248.2211129222084764
  Basis Set: CC-PVTZ
  Basis Set:
  Basis Set: CC-PVTZ
  Basis Set:
  @DF-RHF Final Energy:  -248.22111784469675
    Total Energy =                       -248.2211178446967210
  Basis Set: CC-PVTZ
  Basis Set:
  Charge       = 0
  Multiplicity = 1
  Basis Set: CC-PVTZ
  Basis Set:

    Orbital Energies (a.u.)
    -----------------------

    Doubly Occupied:

       1A    -20.544210     2A    -15.532317     3A    -11.262246
       4A    -11.257365     5A    -11.241943     6A     -1.374838
       7A     -1.181459     8A     -1.000566     9A     -0.908604
      10A     -0.812459    11A     -0.689137    12A     -0.668821
      13A     -0.641108    14A     -0.620278    15A     -0.599129
      16A     -0.539981    17A     -0.533512    18A     -0.510435
      19A     -0.464572    20A     -0.419753    21A     -0.383235

  @DF-RHF Final Energy:  -248.22111799934777

   => Energetics <=

    Nuclear Repulsion Energy =            196.7235976138700266
    One-Electron Energy =                -727.5174968677157494
    Two-Electron Energy =                 282.5727812544977269
    DFT Exchange-Correlation Energy =       0.0000000000000000
    Empirical Dispersion Energy =           0.0000000000000000
    PCM Polarization Energy =               0.0000000000000000
    EFP Energy =                            0.0000000000000000
    Total Energy =                       -248.2211179993479391
    Molecular point group: c1
  Basis Set: CC-PVTZ
  Basis Set:

  -Total Gradient:
     Atom            X                  Y                   Z
    ------   -----------------  -----------------  -----------------
       1        0.000006906906    -0.000005562084     0.000000448894
       2       -0.000007570046    -0.000008502831    -0.000000369969
       3       -0.000433042129    -0.001353694712     0.001714742314
       4       -0.000001331269     0.000003775830     0.000007560844
       5       -0.000242396563     0.001322368118    -0.002857688201
       6       -0.000005256902     0.000005136020    -0.000007542660
       7        0.000010105413    -0.000002054711     0.000000569406
       8        0.002630278945     0.001305992087     0.002012130799
       9        0.000009418463    -0.000002130614     0.000000714718
      10        0.000009934416     0.000000343007     0.000000096322
      11       -0.001981346996    -0.001279508217    -0.000852035635
      12       -0.000004635186     0.000010569898    -0.000009357425
      13        0.000004012364    -0.000002401489    -0.000001227664
      14        0.000004922586     0.000005669698    -0.000008041744

  **** Optimization is complete! (in 6 steps) ****
    Final optimized geometry and variables:
    Molecular point group: c1

    Geometry (in Angstrom), charge = 0, multiplicity = 1:

    H           -2.714991871659    -0.486681809004    -0.051081917914
    N           -1.727421549140    -0.488176968136     0.089974187017
    C           -1.150647231222     0.784107637417    -0.313068505899
    H           -1.357508399245    -1.229735865754    -0.466181145097
    C            0.283287441423     0.945913066705     0.158018612859
    H           -1.179914606245     0.937003835553    -1.391032484604
    H           -1.732879467108     1.580790106813     0.138179035968
    O            1.146638791489    -0.016001555022    -0.378517358725
    H            0.646390067902     1.916671735875    -0.160163239680
    H            0.313684801908     0.916210501577     1.243584494202
    C            1.465934949158    -1.094756071383     0.446218392538
    H            2.085516448361    -1.767607658434    -0.129844553309
    H            2.029139761925    -0.767951661463     1.317260424596
    H            0.586841735982    -1.625828257532     0.789598240946

  Mulliken Charges: (a.u.)
   Center  Symbol    Alpha    Beta     Spin     Total
       1     H     0.42943  0.42943  0.00000  0.14114
       2     N     3.69519  3.69519  0.00000 -0.39038
       3     C     3.02728  3.02728  0.00000 -0.05456
       4     H     0.42236  0.42236  0.00000  0.15528
       5     C     2.96870  2.96870  0.00000  0.06259
       6     H     0.46522  0.46522  0.00000  0.06955
       7     H     0.45850  0.45850  0.00000  0.08300
       8     O     4.18815  4.18815  0.00000 -0.37630
       9     H     0.45270  0.45270  0.00000  0.09460
      10     H     0.47189  0.47189  0.00000  0.05623
      11     C     3.03617  3.03617  0.00000 -0.07235
      12     H     0.45060  0.45060  0.00000  0.09880
      13     H     0.46702  0.46702  0.00000  0.06595
      14     H     0.46678  0.46678  0.00000  0.06644

   Total alpha = 21.00000, Total beta = 21.00000, Total charge = -0.00000
