  ==> Input File <==

--------------------------------------------------------------------------
set {
	reference rhf
	basis cc-pvtz
}

set_num_threads( 4 )
memory 2 gb

molecule MOL {
0 1

H	 -3.144994	 -1.202467	 -0.018751
O	 -2.321472	 -0.864941	 -0.318626
C	 -2.021813	 0.336996	 0.342658
C	 -0.669613	 0.837286	 -0.127252
H	 -2.780861	 1.084746	 0.127159
H	 -2.006390	 0.184138	 1.420053
C	 0.490865	 -0.082543	 0.241244
H	 -0.708709	 0.967192	 -1.204587
H	 -0.507562	 1.822272	 0.303070
C	 1.839232	 0.631889	 0.251352
H	 0.524416	 -0.911050	 -0.456972
H	 0.307055	 -0.513849	 1.223237
C	 2.998600	 -0.284883	 0.627091
H	 2.024061	 1.061052	 -0.729648
H	 1.801381	 1.466972	 0.946256
H	 3.084520	 -1.111268	 -0.070492
H	 3.941149	 0.250740	 0.623372
H	 2.860699	 -0.704246	 1.618334

	symmetry c1
}
set optking {
	frozen_dihedral = ("
		10 7 4 8
	")
}

ee = optimize('scf')
oeprop('DIPOLE', 'QUADRUPOLE', 'MULLIKEN_CHARGES')
f=open( 'psi4out.xyz', 'w' )
f.write( "18  " )
f.write( str(ee) + "\n" )
f.write( MOL.save_string_xyz() )
f.close()
--------------------------------------------------------------------------

    Molecular point group: c1
  Charge       = 0
  Multiplicity = 1
  Basis Set: CC-PVTZ
  Basis Set:
  @DF-RHF Final Energy:  -271.28534578045708
    Total Energy =                       -271.2853457804570212
    Molecular point group: c1
  Basis Set: CC-PVTZ
  Basis Set:
  Basis Set: CC-PVTZ
  Basis Set:
  @DF-RHF Final Energy:  -271.28548534981081
    Total Energy =                       -271.2854853498108696
  Basis Set: CC-PVTZ
  Basis Set:
  Basis Set: CC-PVTZ
  Basis Set:
  @DF-RHF Final Energy:  -271.28552874975435
    Total Energy =                       -271.2855287497541781
  Basis Set: CC-PVTZ
  Basis Set:
  Charge       = 0
  Multiplicity = 1
  Basis Set: CC-PVTZ
  Basis Set:

    Orbital Energies (a.u.)
    -----------------------

    Doubly Occupied:

       1A    -20.546041     2A    -11.265614     3A    -11.210384
       4A    -11.209618     5A    -11.205320     6A    -11.202999
       7A     -1.363998     8A     -1.076218     9A     -1.010257
      10A     -0.914249    11A     -0.819014    12A     -0.784649
      13A     -0.706913    14A     -0.648449    15A     -0.623356
      16A     -0.579536    17A     -0.573811    18A     -0.559695
      19A     -0.523933    20A     -0.505738    21A     -0.486931
      22A     -0.468143    23A     -0.458858    24A     -0.449347
      25A     -0.431483

  @DF-RHF Final Energy:  -271.28552945893966

   => Energetics <=

    Nuclear Repulsion Energy =            249.2909490122290492
    One-Electron Energy =                -861.9038472518711842
    Two-Electron Energy =                 341.3273687807026704
    DFT Exchange-Correlation Energy =       0.0000000000000000
    Empirical Dispersion Energy =           0.0000000000000000
    PCM Polarization Energy =               0.0000000000000000
    EFP Energy =                            0.0000000000000000
    Total Energy =                       -271.2855294589394930
    Molecular point group: c1
  Basis Set: CC-PVTZ
  Basis Set:

  -Total Gradient:
     Atom            X                  Y                   Z
    ------   -----------------  -----------------  -----------------
       1        0.000005551975    -0.000003874170     0.000000951657
       2       -0.000005814234    -0.000039622098     0.000021711278
       3       -0.000010406700     0.000022370540    -0.000045788182
       4        0.002456961506     0.003516014902     0.001153732389
       5       -0.000003912868     0.000032139609     0.000022034310
       6       -0.000001429228    -0.000022316488    -0.000005300821
       7       -0.000068225207    -0.001417578185    -0.003332236753
       8       -0.002068722056    -0.002666690966    -0.000223517648
       9        0.000025998140    -0.000033606724     0.000009773017
      10       -0.000314598585     0.000618131453     0.002425197990
      11       -0.000028845602     0.000018384948     0.000001479249
      12        0.000001892339    -0.000001647206     0.000013429912
      13        0.000012262132    -0.000018176975    -0.000048985169
      14        0.000011662060     0.000004082155     0.000007451062
      15       -0.000018286963    -0.000003939093     0.000000910732
      16        0.000008672335    -0.000017668907     0.000011599606
      17        0.000004515401    -0.000004052007    -0.000012040479
      18       -0.000007274452     0.000018049212    -0.000000402150

  **** Optimization is complete! (in 4 steps) ****
    Final optimized geometry and variables:
    Molecular point group: c1

    Geometry (in Angstrom), charge = 0, multiplicity = 1:

    H           -3.111326758857    -1.297327828492    -0.186687363883
    O           -2.286801599984    -0.951052971454    -0.473308091587
    C           -2.032325531279     0.277728378396     0.156451675270
    C           -0.675713910998     0.787397822421    -0.291414217183
    H           -2.799519034353     1.002615132506    -0.104725675421
    H           -2.044610391278     0.159449935834     1.238168665220
    C            0.481308434489    -0.136399093263     0.093042925556
    H           -0.712719906102     0.901055197506    -1.370413036171
    H           -0.528338084704     1.773242074493     0.139748434835
    C            1.835520601651     0.567829889469     0.094334227289
    H            0.503205527073    -0.987859803714    -0.576609786566
    H            0.301087276979    -0.539225160132     1.087375954262
    C            2.994075865984    -0.363670808311     0.433993632757
    H            2.011277735746     1.018565820415    -0.879323322736
    H            1.810409443676     1.387140500438     0.807668075094
    H            3.068823571138    -1.172631181930    -0.284882618431
    H            3.939294010992     0.167250452953     0.434235816715
    H            2.863744375374    -0.807456087883     1.415608113848

  Mulliken Charges: (a.u.)
   Center  Symbol    Alpha    Beta     Spin     Total
       1     H     0.39613  0.39613  0.00000  0.20774
       2     O     4.19899  4.19899  0.00000 -0.39799
       3     C     2.97276  2.97276  0.00000  0.05448
       4     C     3.09278  3.09278  0.00000 -0.18557
       5     H     0.46631  0.46631  0.00000  0.06737
       6     H     0.47461  0.47461  0.00000  0.05078
       7     C     3.08338  3.08338  0.00000 -0.16676
       8     H     0.45127  0.45127  0.00000  0.09747
       9     H     0.45443  0.45443  0.00000  0.09113
      10     C     3.08409  3.08409  0.00000 -0.16819
      11     H     0.44503  0.44503  0.00000  0.10993
      12     H     0.45907  0.45907  0.00000  0.08186
      13     C     3.14980  3.14980  0.00000 -0.29959
      14     H     0.45505  0.45505  0.00000  0.08989
      15     H     0.45671  0.45671  0.00000  0.08659
      16     H     0.45441  0.45441  0.00000  0.09119
      17     H     0.44943  0.44943  0.00000  0.10113
      18     H     0.45574  0.45574  0.00000  0.08853

   Total alpha = 25.00000, Total beta = 25.00000, Total charge = -0.00000
