  ==> Input File <==

--------------------------------------------------------------------------
set {
	reference rhf
	basis 6-31G*
}

set_num_threads( 4 )
memory 2 gb

molecule MOL {
0 1

H	 2.398195	 1.804380	 -1.298815
C	 1.677544	 1.606690	 -0.513634
C	 1.322923	 0.120767	 -0.479465
H	 2.113574	 1.931551	 0.425896
H	 0.801188	 2.217641	 -0.706853
C	 0.306652	 -0.176050	 0.621399
H	 2.214740	 -0.471559	 -0.302714
H	 0.908123	 -0.189229	 -1.431360
N	 -1.068537	 -0.011044	 0.085269
H	 0.372515	 -1.192590	 0.973735
H	 0.391664	 0.520566	 1.441230
O	 -1.656956	 -0.997225	 -0.235017
O	 -1.478635	 1.104830	 -0.018026

	symmetry c1
}
set optking {
	frozen_dihedral = ("
		7 3 6 9
	")
}

ee = optimize('scf')
oeprop('DIPOLE', 'QUADRUPOLE', 'MULLIKEN_CHARGES')
f=open( 'psi4out.xyz', 'w' )
f.write( "13  " )
f.write( str(ee) + "\n" )
f.write( MOL.save_string_xyz() )
f.close()
--------------------------------------------------------------------------

    Molecular point group: c1
  Charge       = 0
  Multiplicity = 1
  Basis Set: 6-31G*
  Basis Set:
  @DF-RHF Final Energy:  -321.73242358929264
    Total Energy =                       -321.7324235892926367
    Molecular point group: c1
  Basis Set: 6-31G*
  Basis Set:
  Basis Set: 6-31G*
  Basis Set:
  @DF-RHF Final Energy:  -321.73189276964001
    Total Energy =                       -321.7318927696398418
  Basis Set: 6-31G*
  Basis Set:
  Basis Set: 6-31G*
  Basis Set:
  @DF-RHF Final Energy:  -321.72857022067467
    Total Energy =                       -321.7285702206748397
  Basis Set: 6-31G*
  Basis Set:
  Basis Set: 6-31G*
  Basis Set:
  @DF-RHF Final Energy:  -321.73212707608991
    Total Energy =                       -321.7321270760900234
  Basis Set: 6-31G*
  Basis Set:
  @DF-RHF Final Energy:  -321.73178533710097
    Total Energy =                       -321.7317853371012006
  @DF-RHF Final Energy:  -321.73336551220586
    Total Energy =                       -321.7333655122057507
  @DF-RHF Final Energy:  -321.73341100706028
    Total Energy =                       -321.7334110070603970
  Basis Set: 6-31G*
  Basis Set:
  @DF-RHF Final Energy:  -321.73344659235568
    Total Energy =                       -321.7334465923556763
  Basis Set: 6-31G*
  Basis Set:
  Basis Set: 6-31G*
  Basis Set:
  @DF-RHF Final Energy:  -321.73347030546597
    Total Energy =                       -321.7334703054660281
  Basis Set: 6-31G*
  Basis Set:
  Basis Set: 6-31G*
  Basis Set:
  @DF-RHF Final Energy:  -321.73347376379854
    Total Energy =                       -321.7334737637984290
  Basis Set: 6-31G*
  Basis Set:
  Charge       = 0
  Multiplicity = 1
  Basis Set: 6-31G*
  Basis Set:

    Orbital Energies (a.u.)
    -----------------------

    Doubly Occupied:

       1A    -20.602510     2A    -20.599835     3A    -15.847216
       4A    -11.299618     5A    -11.257214     6A    -11.232399
       7A     -1.630818     8A     -1.416263     9A     -1.133604
      10A     -1.023733    11A     -0.890032    12A     -0.827866
      13A     -0.759786    14A     -0.734514    15A     -0.723450
      16A     -0.645197    17A     -0.626030    18A     -0.595149
      19A     -0.529785    20A     -0.524004    21A     -0.514453
      22A     -0.482976    23A     -0.473203    24A     -0.448132

  @DF-RHF Final Energy:  -321.73347415334973

   => Energetics <=

    Nuclear Repulsion Energy =            250.9769028497289014
    One-Electron Energy =                -935.7851760623252630
    Two-Electron Energy =                 363.0747990592466863
    DFT Exchange-Correlation Energy =       0.0000000000000000
    Empirical Dispersion Energy =           0.0000000000000000
    PCM Polarization Energy =               0.0000000000000000
    EFP Energy =                            0.0000000000000000
    Total Energy =                       -321.7334741533496185
    Molecular point group: c1
  Basis Set: 6-31G*
  Basis Set:

  -Total Gradient:
     Atom            X                  Y                   Z
    ------   -----------------  -----------------  -----------------
       1        0.000001002686     0.000005864042    -0.000014166517
       2       -0.000004624409    -0.000008397340    -0.000004410630
       3        0.001905625577     0.002748828075     0.002490133566
       4        0.000006179992    -0.000004844665    -0.000006973756
       5        0.000002544548    -0.000003938953     0.000013865510
       6       -0.000315831264     0.003213757283     0.000595252779
       7       -0.001556109194    -0.003044584356    -0.002273174424
       8        0.000002628030     0.000007167187     0.000007539691
       9       -0.000032354574    -0.002784641825    -0.000759950331
      10        0.000006573095    -0.000009358926    -0.000000283671
      11       -0.000014810630    -0.000004596815    -0.000016203315
      12       -0.000011083797    -0.000091779492    -0.000032211551
      13        0.000010259939    -0.000023474217     0.000000582648

  **** Optimization is complete! (in 11 steps) ****
    Final optimized geometry and variables:
    Molecular point group: c1

    Geometry (in Angstrom), charge = 0, multiplicity = 1:

    H            2.592218543081     1.464170993550    -1.287179644482
    C            1.879344392967     1.315799943966    -0.483567798477
    C            1.517189114609    -0.161724887698    -0.356393059877
    H            2.326417352998     1.689926740584     0.432192972751
    H            1.002774250174     1.917186563634    -0.697537870397
    C            0.477576826789    -0.449851870001     0.734432634522
    H            2.392238168813    -0.766466429770    -0.143545848910
    H            1.130904983186    -0.540215297059    -1.296659814650
    N           -0.894150327068    -0.283105194945     0.185060343545
    H            0.522999272441    -1.477215818479     1.059597356421
    H            0.554277675703     0.220118449174     1.575184796857
    O           -1.327624948433    -1.181930705000    -0.468970212520
    O           -1.459050427881     0.743449980575     0.408680675779

  Mulliken Charges: (a.u.)
   Center  Symbol    Alpha    Beta     Spin     Total
       1     H     0.41104  0.41104  0.00000  0.17792
       2     C     3.24563  3.24563  0.00000 -0.49126
       3     C     3.17647  3.17647  0.00000 -0.35294
       4     H     0.41688  0.41688  0.00000  0.16625
       5     H     0.40492  0.40492  0.00000  0.19016
       6     C     3.08921  3.08921  0.00000 -0.17842
       7     H     0.40557  0.40557  0.00000  0.18885
       8     H     0.39500  0.39500  0.00000  0.21000
       9     N     3.22404  3.22404  0.00000  0.55192
      10     H     0.38630  0.38630  0.00000  0.22740
      11     H     0.38664  0.38664  0.00000  0.22673
      12     O     4.22958  4.22958  0.00000 -0.45916
      13     O     4.22872  4.22872  0.00000 -0.45744

   Total alpha = 24.00000, Total beta = 24.00000, Total charge = -0.00000
