  ==> Input File <==

--------------------------------------------------------------------------
set {
	reference rhf
	basis 6-31G*
}

set_num_threads( 4 )
memory 2 gb

molecule MOL {
0 1

H	 2.138795	 -0.055401	 -1.039860
O	 1.654024	 -0.625927	 -0.460906
C	 1.135793	 0.118896	 0.612333
C	 0.031547	 1.023609	 0.088541
H	 1.915668	 0.729681	 1.063582
H	 0.754543	 -0.542641	 1.387006
C	 -1.134819	 0.293262	 -0.585751
H	 0.474374	 1.714721	 -0.623187
H	 -0.338529	 1.620940	 0.920081
C	 -1.917817	 -0.639439	 0.339494
H	 -0.758119	 -0.268455	 -1.433105
H	 -1.813832	 1.041889	 -0.986690
H	 -2.777680	 -1.057197	 -0.174994
H	 -1.310268	 -1.471279	 0.680599
H	 -2.283753	 -0.111424	 1.216626

	symmetry c1
}
set optking {
	frozen_dihedral = ("
		1 2 3 4
	")
}

ee = optimize('scf')
oeprop('DIPOLE', 'QUADRUPOLE', 'MULLIKEN_CHARGES')
f=open( 'psi4out.xyz', 'w' )
f.write( "15  " )
f.write( str(ee) + "\n" )
f.write( MOL.save_string_xyz() )
f.close()
--------------------------------------------------------------------------

    Molecular point group: c1
  Charge       = 0
  Multiplicity = 1
  Basis Set: 6-31G*
  Basis Set:
  @DF-RHF Final Energy:  -232.14197765687291
    Total Energy =                       -232.1419776568727684
    Molecular point group: c1
  Basis Set: 6-31G*
  Basis Set:
  Basis Set: 6-31G*
  Basis Set:
  @DF-RHF Final Energy:  -232.14349417024644
    Total Energy =                       -232.1434941702464130
  Basis Set: 6-31G*
  Basis Set:
  Basis Set: 6-31G*
  Basis Set:
  @DF-RHF Final Energy:  -232.14383050582424
    Total Energy =                       -232.1438305058243259
  Basis Set: 6-31G*
  Basis Set:
  Basis Set: 6-31G*
  Basis Set:
  @DF-RHF Final Energy:  -232.14378751251078
    Total Energy =                       -232.1437875125108121
  Basis Set: 6-31G*
  Basis Set:
  Basis Set: 6-31G*
  Basis Set:
  @DF-RHF Final Energy:  -232.14383950193204
    Total Energy =                       -232.1438395019320069
  Basis Set: 6-31G*
  Basis Set:
  Charge       = 0
  Multiplicity = 1
  Basis Set: 6-31G*
  Basis Set:

    Orbital Energies (a.u.)
    -----------------------

    Doubly Occupied:

       1A    -20.554201     2A    -11.267532     3A    -11.217099
       4A    -11.213078     5A    -11.206097     6A     -1.360561
       7A     -1.066175     8A     -0.970439     9A     -0.874987
      10A     -0.786744    11A     -0.682531    12A     -0.640471
      13A     -0.628706    14A     -0.580197    15A     -0.562865
      16A     -0.537764    17A     -0.504291    18A     -0.485496
      19A     -0.470641    20A     -0.454825    21A     -0.426941

  @DF-RHF Final Energy:  -232.14383972590642

   => Energetics <=

    Nuclear Repulsion Energy =            191.5579849944560067
    One-Electron Energy =                -694.4203677455689103
    Two-Electron Energy =                 270.7185430252064862
    DFT Exchange-Correlation Energy =       0.0000000000000000
    Empirical Dispersion Energy =           0.0000000000000000
    PCM Polarization Energy =               0.0000000000000000
    EFP Energy =                            0.0000000000000000
    Total Energy =                       -232.1438397259064459
    Molecular point group: c1
  Basis Set: 6-31G*
  Basis Set:

  -Total Gradient:
     Atom            X                  Y                   Z
    ------   -----------------  -----------------  -----------------
       1        0.000568265128    -0.000090682417     0.000399304915
       2       -0.000821549852    -0.000051887156    -0.000465843847
       3        0.000558139525     0.000442408992    -0.000057469424
       4       -0.000279357685    -0.000329962610     0.000093978833
       5       -0.000012740824     0.000011489344     0.000002455838
       6       -0.000012734150     0.000001592743     0.000004551711
       7        0.000004063761     0.000013914279     0.000007505659
       8       -0.000008965139    -0.000011278572     0.000002166761
       9       -0.000019566827     0.000007209934     0.000002638636
      10        0.000008154887    -0.000008964509     0.000004086141
      11       -0.000000356974     0.000000260494     0.000003494865
      12        0.000013738258     0.000011688235     0.000001786483
      13        0.000001629732    -0.000001973707    -0.000003380844
      14        0.000012023158     0.000005093378     0.000006068172
      15       -0.000010742999     0.000001091574    -0.000001343898

  **** Optimization is complete! (in 6 steps) ****
    Final optimized geometry and variables:
    Molecular point group: c1

    Geometry (in Angstrom), charge = 0, multiplicity = 1:

    H            2.175706060578    -0.131508805812    -1.022638257290
    O            1.689284907666    -0.678137685335    -0.421323995293
    C            1.141302461858     0.120984332212     0.596482657804
    C            0.014614492090     1.023388999670     0.101955050862
    H            1.915217585865     0.725651345776     1.065665860926
    H            0.779177977206    -0.567616071125     1.347926518386
    C           -1.145761361976     0.287619663433    -0.576334148449
    H            0.431149770705     1.746139805964    -0.599057800256
    H           -0.356974867197     1.600427631132     0.947439897581
    C           -1.923177119625    -0.650187697629     0.348448900263
    H           -0.763758121950    -0.275393926852    -1.421429494875
    H           -1.829193679399     1.029964138880    -0.981154455985
    H           -2.775969372974    -1.078195348927    -0.169180952776
    H           -1.308686151391    -1.474021189975     0.695336834332
    H           -2.298826971965    -0.121732143960     1.221021868915

  Mulliken Charges: (a.u.)
   Center  Symbol    Alpha    Beta     Spin     Total
       1     H     0.28289  0.28289  0.00000  0.43422
       2     O     4.36838  4.36838  0.00000 -0.73676
       3     C     2.99948  2.99948  0.00000  0.00104
       4     C     3.16841  3.16841  0.00000 -0.33683
       5     H     0.42809  0.42809  0.00000  0.14381
       6     H     0.41456  0.41456  0.00000  0.17088
       7     C     3.15091  3.15091  0.00000 -0.30181
       8     H     0.42650  0.42650  0.00000  0.14700
       9     H     0.42324  0.42324  0.00000  0.15352
      10     C     3.24378  3.24378  0.00000 -0.48756
      11     H     0.41256  0.41256  0.00000  0.17488
      12     H     0.42238  0.42238  0.00000  0.15523
      13     H     0.41858  0.41858  0.00000  0.16284
      14     H     0.41584  0.41584  0.00000  0.16833
      15     H     0.42441  0.42441  0.00000  0.15119

   Total alpha = 21.00000, Total beta = 21.00000, Total charge =  0.00000
