  ==> Input File <==

--------------------------------------------------------------------------
set {
	reference rhf
	basis 6-31G*
}

set_num_threads( 4 )
memory 2 gb

molecule MOL {
0 1

H	 2.866480	 -0.465706	 0.876907
C	 2.405773	 -0.024801	 0.000000
N	 0.988830	 -0.304158	 0.000000
H	 2.866480	 -0.465706	 -0.876907
H	 2.629928	 1.045948	 0.000000
C	 0.316200	 0.246925	 -1.161829
C	 0.338999	 0.131288	 1.222324
H	 0.401652	 1.337783	 -1.196815
H	 0.778546	 -0.149176	 -2.060487
C	 -1.153806	 -0.138222	 -1.134763
H	 0.818039	 -0.349487	 2.069449
H	 0.426111	 1.213720	 1.361069
C	 -1.131612	 -0.250793	 1.186165
H	 -1.689510	 0.337723	 -1.945635
H	 -1.250283	 -1.217294	 -1.240909
O	 -1.759909	 0.283200	 0.054773
H	 -1.651308	 0.143956	 2.049360
H	 -1.227045	 -1.335161	 1.189215

	symmetry c1
}
set optking {
	frozen_dihedral = ("
		6 3 2 5
	")
}

ee = optimize('scf')
oeprop('DIPOLE', 'QUADRUPOLE', 'MULLIKEN_CHARGES')
f=open( 'psi4out.xyz', 'w' )
f.write( "18  " )
f.write( str(ee) + "\n" )
f.write( MOL.save_string_xyz() )
f.close()
--------------------------------------------------------------------------

    Molecular point group: c1
  Charge       = 0
  Multiplicity = 1
  Basis Set: 6-31G*
  Basis Set:
  @DF-RHF Final Energy:  -325.02863604185677
    Total Energy =                       -325.0286360418566574
    Molecular point group: c1
  Basis Set: 6-31G*
  Basis Set:
  Basis Set: 6-31G*
  Basis Set:
  @DF-RHF Final Energy:  -325.02864100349615
    Total Energy =                       -325.0286410034962614
  Basis Set: 6-31G*
  Basis Set:
  Charge       = 0
  Multiplicity = 1
  Basis Set: 6-31G*
  Basis Set:

    Orbital Energies (a.u.)
    -----------------------

    Doubly Occupied:

       1A    -20.554089     2A    -15.549587     3A    -11.266343
       4A    -11.266311     5A    -11.244154     6A    -11.244138
       7A    -11.241149     8A     -1.383508     9A     -1.232571
      10A     -1.038546    11A     -0.981330    12A     -0.882924
      13A     -0.868981    14A     -0.774804    15A     -0.683630
      16A     -0.645611    17A     -0.643492    18A     -0.634302
      19A     -0.629119    20A     -0.571863    21A     -0.557300
      22A     -0.540082    23A     -0.527488    24A     -0.502063
      25A     -0.484160    26A     -0.452459    27A     -0.407975
      28A     -0.353819

  @DF-RHF Final Energy:  -325.02864143818232

   => Energetics <=

    Nuclear Repulsion Energy =            341.5165816366096010
    One-Electron Energy =               -1118.7668535245923067
    Two-Electron Energy =                 452.2216304498006707
    DFT Exchange-Correlation Energy =       0.0000000000000000
    Empirical Dispersion Energy =           0.0000000000000000
    PCM Polarization Energy =               0.0000000000000000
    EFP Energy =                            0.0000000000000000
    Total Energy =                       -325.0286414381820919
    Molecular point group: c1
  Basis Set: 6-31G*
  Basis Set:

  -Total Gradient:
     Atom            X                  Y                   Z
    ------   -----------------  -----------------  -----------------
       1        0.000011758005    -0.000004886976    -0.000004428858
       2       -0.000068059552     0.000150415353     0.001019364339
       3        0.000102349654    -0.000555233973    -0.000531840799
       4       -0.000000382821     0.000009763416    -0.000007587692
       5        0.000006255025     0.000006229006    -0.000704944322
       6       -0.000057563208     0.000388661156     0.000279796976
       7        0.000030419363    -0.000026874995    -0.000003849875
       8       -0.000007143628    -0.000000106559    -0.000002811172
       9       -0.000004454590     0.000010866650    -0.000022512451
      10       -0.000005910768     0.000001252908     0.000005245147
      11       -0.000008003280     0.000007426445     0.000016680255
      12        0.000005061147     0.000007561108    -0.000008487438
      13        0.000014707652    -0.000034117410    -0.000036261851
      14       -0.000010701582     0.000003268209     0.000013762891
      15        0.000010000426     0.000002087845    -0.000008118698
      16       -0.000015837856     0.000033050433     0.000003072434
      17       -0.000000060086     0.000008116243    -0.000017714460
      18       -0.000002433900    -0.000007478861     0.000010635575

  **** Optimization is complete! (in 3 steps) ****
    Final optimized geometry and variables:
    Molecular point group: c1

    Geometry (in Angstrom), charge = 0, multiplicity = 1:

    H            2.870541619280    -0.468284052120     0.848094251031
    C            2.405653849962    -0.023760846674    -0.024493625201
    N            0.989031952353    -0.306480435044    -0.023002727857
    H            2.864600118467    -0.458547152111    -0.905705447859
    H            2.626860998888     1.047557988853    -0.023176290191
    C            0.316924079290     0.246304030633    -1.184516186893
    C            0.338312369273     0.132603888243     1.198039281546
    H            0.403471418717     1.337045485860    -1.217548409410
    H            0.779725566782    -0.148674677696    -2.083525833092
    C           -1.153484338003    -0.137322866677    -1.159457241035
    H            0.816096623885    -0.346710897533     2.046611148070
    H            0.425588260748     1.215269307078     1.334415459787
    C           -1.132490336237    -0.248803783242     1.161746838583
    H           -1.687882217323     0.338912816579    -1.971055786507
    H           -1.250602034437    -1.216268708326    -1.265398817224
    O           -1.760276952172     0.284405569133     0.029647922520
    H           -1.652371202528     0.146300154401     2.024695427237
    H           -1.227900475237    -1.333107995690     1.165030592801

  Mulliken Charges: (a.u.)
   Center  Symbol    Alpha    Beta     Spin     Total
       1     H     0.41596  0.41596  0.00000  0.16807
       2     C     3.14036  3.14036  0.00000 -0.28071
       3     N     3.78739  3.78739  0.00000 -0.57479
       4     H     0.41570  0.41570  0.00000  0.16860
       5     H     0.43234  0.43234  0.00000  0.13532
       6     C     3.06853  3.06853  0.00000 -0.13705
       7     C     3.06846  3.06846  0.00000 -0.13691
       8     H     0.42815  0.42815  0.00000  0.14370
       9     H     0.41674  0.41674  0.00000  0.16653
      10     C     2.99756  2.99756  0.00000  0.00487
      11     H     0.41675  0.41675  0.00000  0.16649
      12     H     0.42825  0.42825  0.00000  0.14350
      13     C     2.99764  2.99764  0.00000  0.00473
      14     H     0.41322  0.41322  0.00000  0.17357
      15     H     0.42387  0.42387  0.00000  0.15227
      16     O     4.31199  4.31199  0.00000 -0.62399
      17     H     0.41322  0.41322  0.00000  0.17355
      18     H     0.42387  0.42387  0.00000  0.15225

   Total alpha = 28.00000, Total beta = 28.00000, Total charge =  0.00000
