  ==> Input File <==

--------------------------------------------------------------------------
set {
	reference rhf
	basis 6-31G*
}

set_num_threads( 4 )
memory 2 gb

molecule MOL {
0 1

O	 -1.487788	 1.240889	 -0.102860
C	 -1.083277	 0.139568	 0.115197
C	 0.323299	 -0.082943	 0.642902
C	 -1.933017	 -1.084621	 -0.143902
C	 1.355627	 -0.005344	 -0.493127
H	 0.396251	 -1.044647	 1.143147
H	 0.528637	 0.693580	 1.371677
C	 2.609913	 0.766068	 -0.087004
H	 1.634814	 -1.009449	 -0.804736
H	 0.890533	 0.469395	 -1.350711
H	 3.319643	 0.811860	 -0.906685
H	 3.106764	 0.294817	 0.756137
H	 2.366189	 1.784982	 0.198409
H	 -1.393885	 -1.806447	 -0.750509
H	 -2.850323	 -0.799888	 -0.640100
H	 -2.169004	 -1.571158	 0.798858

	symmetry c1
}
set optking {
	frozen_dihedral = ("
		9 5 3 2
	")
}

ee = optimize('scf')
oeprop('DIPOLE', 'QUADRUPOLE', 'MULLIKEN_CHARGES')
f=open( 'psi4out.xyz', 'w' )
f.write( "16  " )
f.write( str(ee) + "\n" )
f.write( MOL.save_string_xyz() )
f.close()
--------------------------------------------------------------------------

    Molecular point group: c1
  Charge       = 0
  Multiplicity = 1
  Basis Set: 6-31G*
  Basis Set:
  @DF-RHF Final Energy:  -270.02564029926424
    Total Energy =                       -270.0256402992644666
    Molecular point group: c1
  Basis Set: 6-31G*
  Basis Set:
  Basis Set: 6-31G*
  Basis Set:
  @DF-RHF Final Energy:  -270.02593572820143
    Total Energy =                       -270.0259357282012616
  Basis Set: 6-31G*
  Basis Set:
  Basis Set: 6-31G*
  Basis Set:
  @DF-RHF Final Energy:  -270.02603666382606
    Total Energy =                       -270.0260366638262894
  Basis Set: 6-31G*
  Basis Set:
  Basis Set: 6-31G*
  Basis Set:
  @DF-RHF Final Energy:  -270.02609946788198
    Total Energy =                       -270.0260994678818065
  Basis Set: 6-31G*
  Basis Set:
  @DF-RHF Final Energy:  -270.02614228972266
    Total Energy =                       -270.0261422897229977
  @DF-RHF Final Energy:  -270.02621682682343
    Total Energy =                       -270.0262168268234859
  @DF-RHF Final Energy:  -270.02629873136254
    Total Energy =                       -270.0262987313624876
  @DF-RHF Final Energy:  -270.02633052184410
    Total Energy =                       -270.0263305218440451
  Basis Set: 6-31G*
  Basis Set:
  @DF-RHF Final Energy:  -270.02635220413276
    Total Energy =                       -270.0263522041327633
  Basis Set: 6-31G*
  Basis Set:
  Basis Set: 6-31G*
  Basis Set:
  @DF-RHF Final Energy:  -270.02636380132276
    Total Energy =                       -270.0263638013225886
  Basis Set: 6-31G*
  Basis Set:
  Basis Set: 6-31G*
  Basis Set:
  @DF-RHF Final Energy:  -270.02636948687541
    Total Energy =                       -270.0263694868754101
  Basis Set: 6-31G*
  Basis Set:
  Charge       = 0
  Multiplicity = 1
  Basis Set: 6-31G*
  Basis Set:

    Orbital Energies (a.u.)
    -----------------------

    Doubly Occupied:

       1A    -20.548173     2A    -11.324604     3A    -11.236006
       4A    -11.229528     5A    -11.227840     6A    -11.219197
       7A     -1.393648     8A     -1.081977     9A     -1.011654
      10A     -0.949009    11A     -0.831731    12A     -0.735391
      13A     -0.659799    14A     -0.643222    15A     -0.619513
      16A     -0.602259    17A     -0.578380    18A     -0.554272
      19A     -0.542030    20A     -0.515120    21A     -0.500308
      22A     -0.484465    23A     -0.473640    24A     -0.398009

  @DF-RHF Final Energy:  -270.02636999737393

   => Energetics <=

    Nuclear Repulsion Energy =            237.3124560426027188
    One-Electron Energy =                -835.9581047205997493
    Two-Electron Energy =                 328.6192786806230401
    DFT Exchange-Correlation Energy =       0.0000000000000000
    Empirical Dispersion Energy =           0.0000000000000000
    PCM Polarization Energy =               0.0000000000000000
    EFP Energy =                            0.0000000000000000
    Total Energy =                       -270.0263699973740472
    Molecular point group: c1
  Basis Set: 6-31G*
  Basis Set:

  -Total Gradient:
     Atom            X                  Y                   Z
    ------   -----------------  -----------------  -----------------
       1        0.000028844408    -0.000027847346     0.000012391836
       2        0.000240530724     0.002661869759     0.000029680372
       3        0.000311447973    -0.003550252962     0.000366864191
       4       -0.000010930897    -0.000021182180     0.000000370087
       5       -0.003355297875     0.000659454771    -0.002812831724
       6       -0.000030116013    -0.000002533240     0.000014622966
       7        0.000007257406     0.000008107065     0.000024775138
       8        0.000005966636    -0.000033022627    -0.000013215944
       9        0.002819734136     0.000305444864     0.002343893344
      10       -0.000006840515    -0.000009109411     0.000023196605
      11        0.000014637039     0.000008023952    -0.000001139596
      12       -0.000001962663     0.000000387095     0.000001135344
      13       -0.000009401714    -0.000007312217    -0.000004662265
      14       -0.000017726855     0.000004018945     0.000001859814
      15       -0.000005283069     0.000000465046     0.000008632527
      16        0.000009141277     0.000003488483     0.000004427304

  **** Optimization is complete! (in 12 steps) ****
    Final optimized geometry and variables:
    Molecular point group: c1

    Geometry (in Angstrom), charge = 0, multiplicity = 1:

    O           -1.613045122352     1.062119324696     0.242371275211
    C           -1.061766040851     0.004940561089     0.199399199000
    C            0.369980994645    -0.156570980208     0.674926689991
    C           -1.753339484356    -1.226744768701    -0.345716245745
    C            1.369273662581    -0.244898424471    -0.505574846819
    H            0.458159756571    -1.036583625699     1.305366813322
    H            0.590458829427     0.712022492074     1.283227545261
    C            2.655909659374     0.534142549313    -0.228645964627
    H            1.632571075952    -1.282490779931    -0.686275239917
    H            0.915133150298     0.135976457885    -1.415571148123
    H            3.357446096073     0.430312646100    -1.050318542463
    H            3.143832593689     0.174120215171     0.672507703001
    H            2.449401506323     1.591264879739    -0.095633492108
    H           -1.144109334929    -1.714349203417    -1.100630986075
    H           -2.710860442141    -0.955115379199    -0.767928469840
    H           -1.905325920798    -1.943665165707     0.456824750045

  Mulliken Charges: (a.u.)
   Center  Symbol    Alpha    Beta     Spin     Total
       1     O     4.26028  4.26028  0.00000 -0.52056
       2     C     2.73922  2.73922  0.00000  0.52157
       3     C     3.20363  3.20363  0.00000 -0.40726
       4     C     3.28982  3.28982  0.00000 -0.57963
       5     C     3.16253  3.16253  0.00000 -0.32505
       6     H     0.41273  0.41273  0.00000  0.17455
       7     H     0.39857  0.39857  0.00000  0.20287
       8     C     3.24043  3.24043  0.00000 -0.48087
       9     H     0.41696  0.41696  0.00000  0.16607
      10     H     0.41194  0.41194  0.00000  0.17611
      11     H     0.41719  0.41719  0.00000  0.16563
      12     H     0.41955  0.41955  0.00000  0.16090
      13     H     0.41441  0.41441  0.00000  0.17119
      14     H     0.40843  0.40843  0.00000  0.18314
      15     H     0.39684  0.39684  0.00000  0.20631
      16     H     0.40748  0.40748  0.00000  0.18503

   Total alpha = 24.00000, Total beta = 24.00000, Total charge = -0.00000
