                              Psi4 1.0.54 Driver

  ==> Input File <==

--------------------------------------------------------------------------
set {
	reference rhf
	basis cc-pvtz
}

set_num_threads( 4 )
memory 2 gb

molecule MOL {
0 1

H	 1.721114	 -1.629464	 -1.020461
C	 0.856325	 -1.022130	 -1.228105
O	 0.462329	 -0.453336	 -0.000137
H	 0.072784	 -1.647177	 -1.637492
H	 1.123662	 -0.255872	 -1.944776
C	 -0.590565	 0.341382	 0.000062
O	 -1.693898	 -0.053880	 0.000252
H	 -0.340426	 1.403822	 0.000200

	symmetry c1
}
set optking {
	frozen_dihedral = ("
		2 3 6 7
	")
}

ee,wfn = optimize('scf', return_wfn=True)
oeprop( wfn, 'DIPOLE', 'QUADRUPOLE', 'MULLIKEN_CHARGES')
f=open( 'psi4out.xyz', 'w' )
f.write( "8  " )
f.write( str(ee) + "\n" )
f.write( MOL.save_string_xyz() )
f.close()
--------------------------------------------------------------------------

    Molecular point group: c1
  Charge       = 0
  Multiplicity = 1
  Basis Set: CC-PVTZ
  Basis Set:
  @DF-RHF Final Energy:  -227.85941888309094
    Total Energy =                       -227.8594188830908820
    Molecular point group: c1
  Basis Set: CC-PVTZ
  Basis Set:
  Basis Set: CC-PVTZ
  Basis Set:
  @DF-RHF Final Energy:  -227.85664415504760
    Total Energy =                       -227.8566441550476611
  Basis Set: CC-PVTZ
  Basis Set:
  Basis Set: CC-PVTZ
  Basis Set:
  @DF-RHF Final Energy:  -227.85942275340295
    Total Energy =                       -227.8594227534028960
  Basis Set: CC-PVTZ
  Basis Set:
  Basis Set: CC-PVTZ
  Basis Set:
  @DF-RHF Final Energy:  -227.86004083914298
    Total Energy =                       -227.8600408391429823
  Basis Set: CC-PVTZ
  Basis Set:
  Basis Set: CC-PVTZ
  Basis Set:
  @DF-RHF Final Energy:  -227.86005647659414
    Total Energy =                       -227.8600564765942522
  Basis Set: CC-PVTZ
  Basis Set:
  Basis Set: CC-PVTZ
  Basis Set:
  @DF-RHF Final Energy:  -227.86005874088940
    Total Energy =                       -227.8600587408893716
  Basis Set: CC-PVTZ
  Basis Set:
  Charge       = 0
  Multiplicity = 1
  Basis Set: CC-PVTZ
  Basis Set:

    Orbital Energies (a.u.)
    -----------------------

    Doubly Occupied:

       1A    -20.589833     2A    -20.562637     3A    -11.376141
       4A    -11.295478     5A     -1.472924     6A     -1.383790
       7A     -0.987614     8A     -0.831886     9A     -0.741136
      10A     -0.690216    11A     -0.668250    12A     -0.627319
      13A     -0.563341    14A     -0.516078    15A     -0.475313
      16A     -0.460027

  @DF-RHF Final Energy:  -227.86005882554355

   => Energetics <=

    Nuclear Repulsion Energy =            122.2097902019710318
    One-Electron Energy =                -553.6557282200944883
    Two-Electron Energy =                 203.5858791925797959
    DFT Exchange-Correlation Energy =       0.0000000000000000
    Empirical Dispersion Energy =           0.0000000000000000
    PCM Polarization Energy =               0.0000000000000000
    EFP Energy =                            0.0000000000000000
    Total Energy =                       -227.8600588255436605
    Molecular point group: c1
  Basis Set: CC-PVTZ
  Basis Set:

  -Total Gradient:
     Atom            X                  Y                   Z
    ------   -----------------  -----------------  -----------------
       1       -0.000000641073    -0.000002683416    -0.000002900952
       2        0.001732096383     0.002373157559    -0.000509543204
       3       -0.002608181910    -0.003503120393     0.002658817007
       4        0.000001559911    -0.000000433151     0.000002060538
       5       -0.000004486787     0.000002464146     0.000011320691
       6        0.000996332884     0.001057946806    -0.006070603285
       7       -0.000111432783     0.000057888240     0.003904443108
       8       -0.000005246628     0.000014780209     0.000006406097

  **** Optimization is complete! (in 7 steps) ****
    Final optimized geometry and variables:
    Molecular point group: c1

    Geometry (in Angstrom), charge = 0, multiplicity = 1:

    H            1.996303430567    -1.304731484780    -0.638436253671
    C            1.137778726896    -0.696442024405    -0.869471734141
    O            0.699875976376    -0.134825349443     0.352699564508
    H            0.361795871835    -1.309841622415    -1.306461572132
    H            1.427410950045     0.081466598900    -1.566703786455
    C           -0.390934157311     0.637600187417     0.304503668727
    O           -1.488955053789     0.231541843620     0.269781513360
    H           -0.154803016723     1.698765232715     0.359353149735

  Mulliken Charges: (a.u.)
   Center  Symbol    Alpha    Beta     Spin     Total
       1     H     0.44469  0.44469  0.00000  0.11061
       2     C     3.02244  3.02244  0.00000 -0.04487
       3     O     4.15643  4.15643  0.00000 -0.31287
       4     H     0.45297  0.45297  0.00000  0.09406
       5     H     0.46551  0.46551  0.00000  0.06899
       6     C     2.83028  2.83028  0.00000  0.33943
       7     O     4.16462  4.16462  0.00000 -0.32924
       8     H     0.46306  0.46306  0.00000  0.07388

   Total alpha = 16.00000, Total beta = 16.00000, Total charge =  0.00000

*** Psi4 exiting successfully. Buy a developer a beer!
