                              Psi4 1.0.54 Driver

  ==> Input File <==

--------------------------------------------------------------------------
set {
	reference rhf
	basis cc-pvtz
}

set_num_threads( 4 )
memory 2 gb

molecule MOL {
0 1

H	 2.338396	 -0.108057	 0.071993
O	 1.582640	 -0.675746	 0.077381
C	 0.489979	 0.078084	 0.002623
C	 -0.763662	 -0.754014	 0.000816
O	 0.540320	 1.257617	 -0.061252
C	 -2.038001	 0.074705	 -0.000833
H	 -0.712945	 -1.405886	 -0.864342
H	 -0.715137	 -1.405770	 0.866182
H	 -2.087267	 0.710831	 -0.874232
H	 -2.903419	 -0.576199	 -0.001922
H	 -2.089467	 0.710909	 0.872389

	symmetry c1
}
set optking {
	frozen_dihedral = ("
		2 3 4 7
	")
}

ee,wfn = optimize('scf', return_wfn=True)
oeprop( wfn, 'DIPOLE', 'QUADRUPOLE', 'MULLIKEN_CHARGES')
f=open( 'psi4out.xyz', 'w' )
f.write( "11  " )
f.write( str(ee) + "\n" )
f.write( MOL.save_string_xyz() )
f.close()
--------------------------------------------------------------------------

    Molecular point group: c1
  Charge       = 0
  Multiplicity = 1
  Basis Set: CC-PVTZ
  Basis Set:
  @DF-RHF Final Energy:  -266.95330122105690
    Total Energy =                       -266.9533012210570178
    Molecular point group: c1
  Basis Set: CC-PVTZ
  Basis Set:
  Basis Set: CC-PVTZ
  Basis Set:
  @DF-RHF Final Energy:  -266.95325188928246
    Total Energy =                       -266.9532518892825692
  Basis Set: CC-PVTZ
  Basis Set:
  Basis Set: CC-PVTZ
  Basis Set:
  @DF-RHF Final Energy:  -266.95330744553439
    Total Energy =                       -266.9533074455345059
  Basis Set: CC-PVTZ
  Basis Set:
  Charge       = 0
  Multiplicity = 1
  Basis Set: CC-PVTZ
  Basis Set:

    Orbital Energies (a.u.)
    -----------------------

    Doubly Occupied:

       1A    -20.605145     2A    -20.541652     3A    -11.374398
       4A    -11.242873     5A    -11.218771     6A     -1.478720
       7A     -1.370312     8A     -1.066497     9A     -0.918820
      10A     -0.803701    11A     -0.705813    12A     -0.693626
      13A     -0.665667    14A     -0.597691    15A     -0.596713
      16A     -0.533995    17A     -0.527063    18A     -0.505914
      19A     -0.485388    20A     -0.448975

  @DF-RHF Final Energy:  -266.95330870642903

   => Energetics <=

    Nuclear Repulsion Energy =            180.1728269716947466
    One-Electron Energy =                -721.4887980332026700
    Two-Electron Energy =                 274.3626623550788963
    DFT Exchange-Correlation Energy =       0.0000000000000000
    Empirical Dispersion Energy =           0.0000000000000000
    PCM Polarization Energy =               0.0000000000000000
    EFP Energy =                            0.0000000000000000
    Total Energy =                       -266.9533087064290839
    Molecular point group: c1
  Basis Set: CC-PVTZ
  Basis Set:

  -Total Gradient:
     Atom            X                  Y                   Z
    ------   -----------------  -----------------  -----------------
       1       -0.000003769501     0.000019117476     0.000006758531
       2       -0.000055824795     0.000005703454     0.000170834195
       3        0.000027502655    -0.000102938127    -0.000282265561
       4        0.000129689385    -0.000163005530     0.000204688680
       5       -0.000011128247     0.000083638485     0.000002660401
       6        0.000004585830     0.000008587221     0.000014519838
       7       -0.000078423026     0.000144305790    -0.000121771357
       8       -0.000009339820     0.000002273028    -0.000000625023
       9        0.000006513196    -0.000006977472     0.000002702229
      10        0.000001283780    -0.000002322837    -0.000001637526
      11       -0.000011089457     0.000011618514     0.000004135593

  **** Optimization is complete! (in 4 steps) ****
    Final optimized geometry and variables:
    Molecular point group: c1

    Geometry (in Angstrom), charge = 0, multiplicity = 1:

    H            2.339059217985    -0.107860101547     0.058207714005
    O            1.583138897792    -0.675537387269     0.068614102262
    C            0.489960609974     0.077954417657    -0.002646892276
    C           -0.763771603487    -0.754369014630    -0.000925712374
    O            0.540094971727     1.257705196461    -0.061718514434
    C           -2.038030053217     0.074588968982    -0.007809898478
    H           -0.711958478354    -1.404617674666    -0.867732763570
    H           -0.717215068511    -1.406726374565     0.863603046595
    H           -2.083421930837     0.710602667695    -0.881353686260
    H           -2.903727259559    -0.576053400082    -0.011898281909
    H           -2.093303495500     0.711063932472     0.865265503043

  Mulliken Charges: (a.u.)
   Center  Symbol    Alpha    Beta     Spin     Total
       1     H     0.38181  0.38181  0.00000  0.23637
       2     O     4.16040  4.16040  0.00000 -0.32080
       3     C     2.80308  2.80308  0.00000  0.39383
       4     C     3.10123  3.10123  0.00000 -0.20246
       5     O     4.19060  4.19060  0.00000 -0.38119
       6     C     3.13893  3.13893  0.00000 -0.27787
       7     H     0.43978  0.43978  0.00000  0.12045
       8     H     0.43884  0.43884  0.00000  0.12233
       9     H     0.44724  0.44724  0.00000  0.10553
      10     H     0.44967  0.44967  0.00000  0.10066
      11     H     0.44842  0.44842  0.00000  0.10316

   Total alpha = 20.00000, Total beta = 20.00000, Total charge =  0.00000

*** Psi4 exiting successfully. Buy a developer a beer!
