  ==> Input File <==

--------------------------------------------------------------------------
set {
	reference rhf
	basis cc-pvtz
}

set_num_threads( 4 )
memory 2 gb

molecule MOL {
0 1

O	 1.439020	 0.932665	 0.805140
C	 1.121787	 0.124983	 0.000110
C	 -0.170912	 -0.649867	 -0.000147
O	 1.882480	 -0.208932	 -1.029562
C	 -1.413045	 0.229353	 0.001137
H	 -0.152877	 -1.303435	 -0.866175
H	 -0.152278	 -1.305116	 0.864586
C	 -2.702562	 -0.586401	 0.000228
H	 -1.390744	 0.882001	 -0.864365
H	 -1.390549	 0.879837	 0.868264
C	 -3.953810	 0.284959	 -0.000782
H	 -2.717793	 -1.238567	 -0.869075
H	 -2.719108	 -1.238472	 0.869576
H	 -3.983727	 0.924403	 -0.876454
H	 -4.852989	 -0.320147	 -0.001515
H	 -3.985140	 0.924399	 0.874841
C	 3.129920	 0.443661	 -1.153390
H	 2.993857	 1.509973	 -1.256786
H	 3.590463	 0.039575	 -2.040229
H	 3.749188	 0.249544	 -0.290228

	symmetry c1
}
set optking {
	frozen_dihedral = ("
		1 2 3 6
	")
}

ee = optimize('scf')
oeprop('DIPOLE', 'QUADRUPOLE', 'MULLIKEN_CHARGES')
f=open( 'psi4out.xyz', 'w' )
f.write( "20  " )
f.write( str(ee) + "\n" )
f.write( MOL.save_string_xyz() )
f.close()
--------------------------------------------------------------------------

    Molecular point group: c1
  Charge       = 0
  Multiplicity = 1
  Basis Set: CC-PVTZ
  Basis Set:
  @DF-RHF Final Energy:  -384.08132337387599
    Total Energy =                       -384.0813233738759891
    Molecular point group: c1
  Basis Set: CC-PVTZ
  Basis Set:
  Basis Set: CC-PVTZ
  Basis Set:
  @DF-RHF Final Energy:  -384.08174215826307
    Total Energy =                       -384.0817421582632960
  Basis Set: CC-PVTZ
  Basis Set:
  Basis Set: CC-PVTZ
  Basis Set:
  @DF-RHF Final Energy:  -384.08090867163730
    Total Energy =                       -384.0809086716370757
  Basis Set: CC-PVTZ
  Basis Set:
  Basis Set: CC-PVTZ
  Basis Set:
  @DF-RHF Final Energy:  -384.08194095142335
    Total Energy =                       -384.0819409514224390
  Basis Set: CC-PVTZ
  Basis Set:
  Basis Set: CC-PVTZ
  Basis Set:
  @DF-RHF Final Energy:  -384.08194484213021
    Total Energy =                       -384.0819448421308380
  Basis Set: CC-PVTZ
  Basis Set:
  Charge       = 0
  Multiplicity = 1
  Basis Set: CC-PVTZ
  Basis Set:

    Orbital Energies (a.u.)
    -----------------------

    Doubly Occupied:

       1A    -20.598823     2A    -20.531289     3A    -11.364153
       4A    -11.278614     5A    -11.232430     6A    -11.223460
       7A    -11.220265     8A    -11.210568     9A     -1.472690
      10A     -1.364670    11A     -1.091497    12A     -1.025187
      13A     -0.970356    14A     -0.888180    15A     -0.805792
      16A     -0.773772    17A     -0.697687    18A     -0.684161
      19A     -0.676009    20A     -0.648214    21A     -0.599532
      22A     -0.593384    23A     -0.575801    24A     -0.552077
      25A     -0.535287    26A     -0.524310    27A     -0.504657
      28A     -0.479966    29A     -0.478258    30A     -0.473643
      31A     -0.458086    32A     -0.436063

  @DF-RHF Final Energy:  -384.08194530104612

   => Energetics <=

    Nuclear Repulsion Energy =            382.2851810597148301
    One-Electron Energy =               -1280.7964843401466624
    Two-Electron Energy =                 514.4293579793859408
    DFT Exchange-Correlation Energy =       0.0000000000000000
    Empirical Dispersion Energy =           0.0000000000000000
    PCM Polarization Energy =               0.0000000000000000
    EFP Energy =                            0.0000000000000000
    Total Energy =                       -384.0819453010458346
    Molecular point group: c1
  Basis Set: CC-PVTZ
  Basis Set:

  -Total Gradient:
     Atom            X                  Y                   Z
    ------   -----------------  -----------------  -----------------
       1        0.000179163866    -0.000349193286     0.000170004208
       2       -0.000239534767     0.000409163490    -0.000190732252
       3       -0.000131645087     0.000233321189    -0.000183242134
       4       -0.000002499706     0.000003377663    -0.000011905811
       5       -0.000002653384     0.000037369408    -0.000017036383
       6        0.000192270680    -0.000297087638     0.000239543527
       7        0.000015854818    -0.000002598948    -0.000014699073
       8       -0.000006778990    -0.000012973087    -0.000004908217
       9        0.000009458858    -0.000003835048    -0.000000820622
      10       -0.000007397071    -0.000005902873    -0.000008793210
      11        0.000007715919     0.000003330422     0.000016964442
      12        0.000002524887     0.000005661751    -0.000005421735
      13       -0.000001124261    -0.000009431726    -0.000003719952
      14        0.000002285328    -0.000005638558     0.000001291601
      15        0.000000397677    -0.000000413987     0.000005008936
      16       -0.000005591308     0.000008195182     0.000000967077
      17       -0.000030168262    -0.000034066157     0.000016403027
      18        0.000000048172     0.000007694819    -0.000002630075
      19        0.000009082618     0.000007307418    -0.000003439916
      20        0.000008590021     0.000005719965    -0.000002833437

  **** Optimization is complete! (in 6 steps) ****
    Final optimized geometry and variables:
    Molecular point group: c1

    Geometry (in Angstrom), charge = 0, multiplicity = 1:

    O            1.437828979228     0.821987409826     0.979408251884
    C            1.162186052623     0.019964117927     0.152213643012
    C           -0.119955216517    -0.774269101795     0.137430002207
    O            1.959487775980    -0.279738700206    -0.857906862255
    C           -1.353111405132     0.130012055582     0.150017793293
    H           -0.127200313314    -1.434270379728    -0.718292738176
    H           -0.111129985064    -1.389608352355     1.030895560475
    C           -2.655861785327    -0.661498261700     0.208235605679
    H           -1.349579599105     0.753908760441    -0.739692534243
    H           -1.288632219168     0.799466493322     0.999130178517
    C           -3.891165991614     0.232338515488     0.217669397308
    H           -2.706867923987    -1.338381208587    -0.640163549687
    H           -2.655615382534    -1.285745738605     1.097533686993
    H           -3.938165562553     0.844273801308    -0.676842223729
    H           -4.799806697826    -0.356533423096     0.263493047794
    H           -3.884441431858     0.898953287163     1.073229616647
    C            3.197427432068     0.399616800827    -0.928276324291
    H            3.042677090641     1.464753034775    -1.014839257350
    H            3.694197077474     0.022204811452    -1.807268173030
    H            3.791401811866     0.200210127091    -0.048823007835

  Mulliken Charges: (a.u.)
   Center  Symbol    Alpha    Beta     Spin     Total
       1     O     4.20440  4.20440  0.00000 -0.40880
       2     C     2.81351  2.81351  0.00000  0.37298
       3     C     3.08130  3.08130  0.00000 -0.16261
       4     O     4.14380  4.14380  0.00000 -0.28760
       5     C     3.09211  3.09211  0.00000 -0.18422
       6     H     0.43957  0.43957  0.00000  0.12085
       7     H     0.44499  0.44499  0.00000  0.11001
       8     C     3.08828  3.08828  0.00000 -0.17656
       9     H     0.45203  0.45203  0.00000  0.09594
      10     H     0.43940  0.43940  0.00000  0.12120
      11     C     3.14918  3.14918  0.00000 -0.29837
      12     H     0.45436  0.45436  0.00000  0.09127
      13     H     0.45326  0.45326  0.00000  0.09349
      14     H     0.45457  0.45457  0.00000  0.09087
      15     H     0.44796  0.44796  0.00000  0.10409
      16     H     0.45310  0.45310  0.00000  0.09380
      17     C     3.03485  3.03485  0.00000 -0.06971
      18     H     0.45404  0.45404  0.00000  0.09191
      19     H     0.44514  0.44514  0.00000  0.10972
      20     H     0.45413  0.45413  0.00000  0.09173

   Total alpha = 32.00000, Total beta = 32.00000, Total charge = -0.00000
