  ==> Input File <==

--------------------------------------------------------------------------
set {
	reference rhf
	basis cc-pvtz
}

set_num_threads( 4 )
memory 2 gb

molecule MOL {
0 1

H	 -0.508897	 1.374746	 -0.904744
O	 0.057669	 1.301365	 -0.158528
C	 0.004145	 -0.005141	 0.363049
C	 1.199168	 -0.827145	 -0.096690
C	 -1.316386	 -0.602081	 -0.083515
H	 0.012026	 0.043363	 1.450619
H	 1.216685	 -0.896776	 -1.178167
H	 2.129940	 -0.372354	 0.228035
H	 1.160783	 -1.829622	 0.314294
H	 -1.357882	 -0.655920	 -1.165207
H	 -2.140147	 0.011735	 0.257253
H	 -1.440790	 -1.601175	 0.317669

	symmetry c1
}
set optking {
	frozen_dihedral = ("
		1 2 3 4
	")
}

ee = optimize('scf')
oeprop('DIPOLE', 'QUADRUPOLE', 'MULLIKEN_CHARGES')
f=open( 'psi4out.xyz', 'w' )
f.write( "12  " )
f.write( str(ee) + "\n" )
f.write( MOL.save_string_xyz() )
f.close()
--------------------------------------------------------------------------

    Molecular point group: c1
  Charge       = 0
  Multiplicity = 1
  Basis Set: CC-PVTZ
  Basis Set:
  @DF-RHF Final Energy:  -193.19255329075133
    Total Energy =                       -193.1925532907511922
    Molecular point group: c1
  Basis Set: CC-PVTZ
  Basis Set:
  Basis Set: CC-PVTZ
  Basis Set:
  @DF-RHF Final Energy:  -193.19400758573690
    Total Energy =                       -193.1940075857368413
  Basis Set: CC-PVTZ
  Basis Set:
  Basis Set: CC-PVTZ
  Basis Set:
  @DF-RHF Final Energy:  -193.19437540178384
    Total Energy =                       -193.1943754017837307
  Basis Set: CC-PVTZ
  Basis Set:
  Basis Set: CC-PVTZ
  Basis Set:
  @DF-RHF Final Energy:  -193.19437890931954
    Total Energy =                       -193.1943789093194823
  Basis Set: CC-PVTZ
  Basis Set:
  Charge       = 0
  Multiplicity = 1
  Basis Set: CC-PVTZ
  Basis Set:

    Orbital Energies (a.u.)
    -----------------------

    Doubly Occupied:

       1A    -20.542660     2A    -11.273988     3A    -11.216710
       4A    -11.205940     5A     -1.363299     6A     -1.043646
       7A     -0.943115     8A     -0.817672     9A     -0.663925
      10A     -0.650567    11A     -0.606834    12A     -0.566245
      13A     -0.545957    14A     -0.517037    15A     -0.514103
      16A     -0.467060    17A     -0.432212

  @DF-RHF Final Energy:  -193.19437909355804

   => Energetics <=

    Nuclear Repulsion Energy =            135.5794599189284781
    One-Electron Energy =                -530.8057401767885040
    Two-Electron Energy =                 202.0319011643018712
    DFT Exchange-Correlation Energy =       0.0000000000000000
    Empirical Dispersion Energy =           0.0000000000000000
    PCM Polarization Energy =               0.0000000000000000
    EFP Energy =                            0.0000000000000000
    Total Energy =                       -193.1943790935581546
    Molecular point group: c1
  Basis Set: CC-PVTZ
  Basis Set:

  -Total Gradient:
     Atom            X                  Y                   Z
    ------   -----------------  -----------------  -----------------
       1       -0.001160720878     0.000394963985     0.000864664094
       2        0.001586808734    -0.000405886208    -0.000767236432
       3       -0.000859734312    -0.000185422628    -0.000901360885
       4        0.000436130053     0.000221899266     0.000788961341
       5       -0.000018785258     0.000002345423    -0.000007381570
       6       -0.000009116858    -0.000012479228    -0.000000652712
       7       -0.000003419426     0.000002096658     0.000005579411
       8        0.000002659320    -0.000002594396    -0.000002604143
       9        0.000010150511    -0.000010995267    -0.000001696384
      10        0.000008595787     0.000010363270     0.000018896760
      11        0.000006020858    -0.000002918580    -0.000006033156
      12        0.000001411470    -0.000011372294     0.000008863674

  **** Optimization is complete! (in 5 steps) ****
    Final optimized geometry and variables:
    Molecular point group: c1

    Geometry (in Angstrom), charge = 0, multiplicity = 1:

    H           -0.398842178139     1.451782821544    -0.878012760242
    O            0.124177424618     1.325082301353    -0.108195528846
    C            0.006358603585    -0.001100199021     0.354715017472
    C            1.209009479524    -0.818435162528    -0.090671540621
    C           -1.314988192941    -0.620933145664    -0.070269761338
    H            0.021198225457     0.066427609220     1.436993172407
    H            1.228333944646    -0.917605376483    -1.171379962680
    H            2.124016019676    -0.330127828925     0.218805824751
    H            1.185416592712    -1.812733497391     0.342312762372
    H           -1.372879872033    -0.700227491089    -1.152803725325
    H           -2.147324411387    -0.018552281562     0.274226753874
    H           -1.424544581737    -1.617569926686     0.339769059170

  Mulliken Charges: (a.u.)
   Center  Symbol    Alpha    Beta     Spin     Total
       1     H     0.39334  0.39334  0.00000  0.21331
       2     O     4.21043  4.21043  0.00000 -0.42085
       3     C     2.92297  2.92297  0.00000  0.15405
       4     C     3.13880  3.13880  0.00000 -0.27759
       5     C     3.15609  3.15609  0.00000 -0.31217
       6     H     0.45606  0.45606  0.00000  0.08787
       7     H     0.46084  0.46084  0.00000  0.07833
       8     H     0.44633  0.44633  0.00000  0.10735
       9     H     0.45926  0.45926  0.00000  0.08148
      10     H     0.45918  0.45918  0.00000  0.08165
      11     H     0.44464  0.44464  0.00000  0.11072
      12     H     0.45208  0.45208  0.00000  0.09585

   Total alpha = 17.00000, Total beta = 17.00000, Total charge =  0.00000
