  ==> Input File <==

--------------------------------------------------------------------------
set {
	reference rhf
	basis 6-31G*
}

set_num_threads( 1 )
memory 2 gb

molecule MOL {
0 1

H	 -2.962336	 0.119956	 0.671128
O	 -2.347518	 -0.290803	 0.079804
C	 -1.184022	 0.487508	 -0.006784
C	 0.062599	 -0.378592	 0.031606
H	 -1.176523	 1.099369	 -0.904519
H	 -1.187323	 1.153111	 0.844927
O	 1.171513	 0.459272	 -0.058250
H	 0.050699	 -1.089204	 -0.797170
H	 0.078739	 -0.954914	 0.954740
C	 2.397842	 -0.198080	 -0.002151
H	 2.508049	 -0.905315	 -0.822092
H	 3.173794	 0.550865	 -0.078850
H	 2.517602	 -0.735921	 0.936026

	symmetry c1
}
set optking {
	frozen_dihedral = ("
		8 4 3 5,
		10 7 4 8,
		4 7 10 13
	")
}

ee = energy('scf')
oeprop('DIPOLE', 'QUADRUPOLE', 'MULLIKEN_CHARGES')
f=open( 'psi4out.xyz', 'w' )
f.write( "13  " )
f.write( str(ee) + "\n" )
f.write( MOL.save_string_xyz() )
f.close()
--------------------------------------------------------------------------

    Molecular point group: c1

    Geometry (in Angstrom), charge = 0, multiplicity = 1:

       Center              X                  Y                   Z               Mass
    ------------   -----------------  -----------------  -----------------  -----------------
           H         -2.956197151594     0.108691886709     0.652360825674     1.007825032070
           O         -2.341379151594    -0.302067113291     0.061036825674    15.994914619560
           C         -1.177883151594     0.476243886709    -0.025551174326    12.000000000000
           C          0.068737848406    -0.389856113291     0.012838825674    12.000000000000
           H         -1.170384151594     1.088104886709    -0.923286174326     1.007825032070
           H         -1.181184151594     1.141846886709     0.826159825674     1.007825032070
           O          1.177651848406     0.448007886709    -0.077017174326    15.994914619560
           H          0.056837848406    -1.100468113291    -0.815937174326     1.007825032070
           H          0.084877848406    -0.966178113291     0.935972825674     1.007825032070
           C          2.403980848406    -0.209344113291    -0.020918174326    12.000000000000
           H          2.514187848406    -0.916579113291    -0.840859174326     1.007825032070
           H          3.179932848406     0.539600886709    -0.097617174326     1.007825032070
           H          2.523740848406    -0.747185113291     0.917258825674     1.007825032070

  Charge       = 0
  Multiplicity = 1
  Basis Set: 6-31G*
  Basis Set:

    Orbital Energies (a.u.)
    -----------------------

    Doubly Occupied:

       1A    -20.560190     2A    -20.557061     3A    -11.269251
       4A    -11.268447     5A    -11.268384     6A     -1.386474
       7A     -1.363427     8A     -1.017520     9A     -0.911678
      10A     -0.833177    11A     -0.709579    12A     -0.680425
      13A     -0.643638    14A     -0.643126    15A     -0.611550
      16A     -0.551730    17A     -0.544090    18A     -0.492416
      19A     -0.473015    20A     -0.437639    21A     -0.418937

  @DF-RHF Final Energy:  -267.94839619086872

   => Energetics <=

    Nuclear Repulsion Energy =            189.9090919377775322
    One-Electron Energy =                -742.4313871096147750
    Two-Electron Energy =                 284.5738989809679538
    DFT Exchange-Correlation Energy =       0.0000000000000000
    Empirical Dispersion Energy =           0.0000000000000000
    PCM Polarization Energy =               0.0000000000000000
    EFP Energy =                            0.0000000000000000
    Total Energy =                       -267.9483961908692322

  Mulliken Charges: (a.u.)
   Center  Symbol    Alpha    Beta     Spin     Total
       1     H     0.27693  0.27693  0.00000  0.44614
       2     O     4.37601  4.37601  0.00000 -0.75202
       3     C     3.00015  3.00015  0.00000 -0.00030
       4     C     2.99330  2.99330  0.00000  0.01340
       5     H     0.41876  0.41876  0.00000  0.16247
       6     H     0.42697  0.42697  0.00000  0.14607
       7     O     4.30835  4.30835  0.00000 -0.61671
       8     H     0.42441  0.42441  0.00000  0.15118
       9     H     0.42777  0.42777  0.00000  0.14445
      10     C     3.07955  3.07955  0.00000 -0.15909
      11     H     0.42795  0.42795  0.00000  0.14410
      12     H     0.41126  0.41126  0.00000  0.17748
      13     H     0.42859  0.42859  0.00000  0.14282

   Total alpha = 21.00000, Total beta = 21.00000, Total charge = -0.00000
