  ==> Input File <==

--------------------------------------------------------------------------
set {
	reference rhf
	basis 6-31G*
}

set_num_threads( 4 )
memory 2 gb

molecule MOL {
0 1

H	 -3.261111	 -0.295142	 1.469456
C	 -3.306842	 -0.277400	 0.373456
C	 -2.660244	 0.921717	 -0.272021
O	 -3.838538	 -1.161155	 -0.216482
C	 -1.220012	 1.144545	 0.209990
H	 -2.705793	 0.797307	 -1.347733
H	 -3.263782	 1.790044	 -0.010477
C	 -0.252658	 0.041456	 -0.226725
H	 -0.873521	 2.100229	 -0.171974
H	 -1.211708	 1.231594	 1.295398
C	 1.180775	 0.282413	 0.250794
H	 -0.266029	 -0.034465	 -1.312038
H	 -0.597733	 -0.921000	 0.146291
C	 2.148627	 -0.814315	 -0.201312
H	 1.516199	 1.249228	 -0.115937
H	 1.192670	 0.346017	 1.338083
C	 3.580890	 -0.659131	 0.322722
H	 2.166869	 -0.852443	 -1.289387
H	 1.762857	 -1.776509	 0.128956
C	 4.669146	 -1.070476	 -0.670311
H	 3.684384	 -1.261845	 1.221595
H	 3.742431	 0.372227	 0.629524
H	 4.523440	 -2.093472	 -1.007234
H	 4.681697	 -0.431887	 -1.547249
H	 5.651400	 -1.011276	 -0.211326

	symmetry c1
}
set optking {
	frozen_dihedral = ("
		20 17 14 18
	")
}

ee = optimize('scf')
oeprop('DIPOLE', 'QUADRUPOLE', 'MULLIKEN_CHARGES')
f=open( 'psi4out.xyz', 'w' )
f.write( "25  " )
f.write( str(ee) + "\n" )
f.write( MOL.save_string_xyz() )
f.close()
--------------------------------------------------------------------------

    Molecular point group: c1
  Charge       = 0
  Multiplicity = 1
  Basis Set: 6-31G*
  Basis Set:
  @DF-RHF Final Energy:  -387.11939306341748
    Total Energy =                       -387.1193930634171920
    Molecular point group: c1
  Basis Set: 6-31G*
  Basis Set:
  Basis Set: 6-31G*
  Basis Set:
  @DF-RHF Final Energy:  -387.11963494234539
    Total Energy =                       -387.1196349423461243
  Basis Set: 6-31G*
  Basis Set:
  Basis Set: 6-31G*
  Basis Set:
  @DF-RHF Final Energy:  -387.11521387417241
    Total Energy =                       -387.1152138741728095
  Basis Set: 6-31G*
  Basis Set:
  Basis Set: 6-31G*
  Basis Set:
  @DF-RHF Final Energy:  -387.11977856654016
    Total Energy =                       -387.1197785665400488
  Basis Set: 6-31G*
  Basis Set:
  @DF-RHF Final Energy:  -387.11986298328685
    Total Energy =                       -387.1198629832870211
  Basis Set: 6-31G*
  Basis Set:
  @DF-RHF Final Energy:  -387.11989079274326
    Total Energy =                       -387.1198907927428081
  Basis Set: 6-31G*
  Basis Set:
  Basis Set: 6-31G*
  Basis Set:
  @DF-RHF Final Energy:  -387.11987493906634
    Total Energy =                       -387.1198749390662215
  Basis Set: 6-31G*
  Basis Set:
  Basis Set: 6-31G*
  Basis Set:
  @DF-RHF Final Energy:  -387.11989136969515
    Total Energy =                       -387.1198913696954378
  Basis Set: 6-31G*
  Basis Set:
  Charge       = 0
  Multiplicity = 1
  Basis Set: 6-31G*
  Basis Set:

    Orbital Energies (a.u.)
    -----------------------

    Doubly Occupied:

       1A    -20.562076     2A    -11.326228     3A    -11.235459
       4A    -11.234760     5A    -11.223944     6A    -11.220799
       7A    -11.217489     8A    -11.216413     9A    -11.210536
      10A     -1.402004    11A     -1.103693    12A     -1.068767
      13A     -1.015054    14A     -0.943459    15A     -0.868198
      16A     -0.815337    17A     -0.794499    18A     -0.787091
      19A     -0.664505    20A     -0.662924    21A     -0.637071
      22A     -0.614293    23A     -0.608949    24A     -0.591150
      25A     -0.567988    26A     -0.556618    27A     -0.534649
      28A     -0.519172    29A     -0.511194    30A     -0.499447
      31A     -0.484735    32A     -0.480229    33A     -0.466876
      34A     -0.459946    35A     -0.440076    36A     -0.409601

  @DF-RHF Final Energy:  -387.11989220135456

   => Energetics <=

    Nuclear Repulsion Energy =            435.4016038860115714
    One-Electron Energy =               -1387.1325342631726016
    Two-Electron Energy =                 564.6110381758064705
    DFT Exchange-Correlation Energy =       0.0000000000000000
    Empirical Dispersion Energy =           0.0000000000000000
    PCM Polarization Energy =               0.0000000000000000
    EFP Energy =                            0.0000000000000000
    Total Energy =                       -387.1198922013545598
    Molecular point group: c1
  Basis Set: 6-31G*
  Basis Set:

  -Total Gradient:
     Atom            X                  Y                   Z
    ------   -----------------  -----------------  -----------------
       1       -0.000010517879    -0.000044253695     0.000007941261
       2        0.000013546210     0.000038753195    -0.000064231743
       3        0.000028339102     0.000016797332     0.000013551091
       4       -0.000014997200    -0.000052039305     0.000044130952
       5        0.000008501780     0.000013544419    -0.000034781943
       6       -0.000000652681    -0.000001681384     0.000009259805
       7        0.000004203330     0.000035958972    -0.000007737203
       8       -0.000014177443    -0.000029278776     0.000024574569
       9        0.000004179418     0.000004440678     0.000009306866
      10       -0.000000588353    -0.000007547571    -0.000002147846
      11       -0.000044070030     0.000002599197     0.000028283738
      12       -0.000000190898    -0.000001687598     0.000004597892
      13       -0.000021154646    -0.000002256115     0.000004133461
      14       -0.000575369314     0.006242663679    -0.000832898455
      15        0.000049655965     0.000005557749     0.000018872218
      16       -0.000022400889    -0.000007177139     0.000000173576
      17        0.000080677118    -0.004942197291     0.001694856751
      18        0.000384237278    -0.004181372639     0.000260576706
      19       -0.000019738609     0.000026164222    -0.000065258492
      20        0.000073327591     0.002833967072    -0.001090597018
      21        0.000051749130     0.000053094325     0.000020498761
      22        0.000039484889    -0.000002142990    -0.000043468693
      23       -0.000012060884    -0.000005425240    -0.000019025139
      24       -0.000004151815     0.000007203724     0.000015005000
      25        0.000002168832    -0.000003684818     0.000004383883

  **** Optimization is complete! (in 9 steps) ****
    Final optimized geometry and variables:
    Molecular point group: c1

    Geometry (in Angstrom), charge = 0, multiplicity = 1:

    H           -3.320124752679    -0.107121862368     1.505723137616
    C           -3.353694037206    -0.077170928713     0.409441779610
    C           -2.691777461027     1.124371303150    -0.215955546428
    O           -3.890122695669    -0.948264818533    -0.194970011323
    C           -1.252945435198     1.327609676342     0.278909063108
    H           -2.730517439823     1.013731244847    -1.293480170341
    H           -3.289169658065     1.994922218320     0.052016491207
    C           -0.291676268965     0.223229899689    -0.168025945647
    H           -0.895711698762     2.286426800104    -0.085380617713
    H           -1.251349811404     1.397325099679     1.365428851996
    C            1.141375085652     0.449151820039     0.315470614187
    H           -0.302168049380     0.160824635831    -1.254270505754
    H           -0.644047336543    -0.741505037528     0.192293818481
    C            2.111811304771    -0.639239793902    -0.143044736651
    H            1.494126067842     1.415855444012    -0.039890249606
    H            1.151490679704     0.503121499567     1.403089433964
    C            3.546301758684    -0.455420193527     0.387166381077
    H            2.124694272238    -0.697185609646    -1.229438033114
    H            1.734899866230    -1.607704593071     0.180660562221
    C            4.620740358366    -0.877744949640    -0.614809815342
    H            3.669543973168    -1.003611400466     1.316964806282
    H            3.707266823038     0.591807080888     0.634680206667
    H            4.506436388206    -1.919151877911    -0.903649714369
    H            4.562425045672    -0.277423696417    -1.517975203000
    H            5.616510890366    -0.757961834140    -0.199064974970

  Mulliken Charges: (a.u.)
   Center  Symbol    Alpha    Beta     Spin     Total
       1     H     0.43261  0.43261  0.00000  0.13478
       2     C     2.83086  2.83086  0.00000  0.33829
       3     C     3.20812  3.20812  0.00000 -0.41623
       4     O     4.23774  4.23774  0.00000 -0.47548
       5     C     3.16665  3.16665  0.00000 -0.33330
       6     H     0.39970  0.39970  0.00000  0.20060
       7     H     0.40659  0.40659  0.00000  0.18682
       8     C     3.15566  3.15566  0.00000 -0.31132
       9     H     0.41278  0.41278  0.00000  0.17444
      10     H     0.41957  0.41957  0.00000  0.16086
      11     C     3.15359  3.15359  0.00000 -0.30718
      12     H     0.41790  0.41790  0.00000  0.16420
      13     H     0.41821  0.41821  0.00000  0.16358
      14     C     3.15465  3.15465  0.00000 -0.30931
      15     H     0.42257  0.42257  0.00000  0.15486
      16     H     0.42274  0.42274  0.00000  0.15452
      17     C     3.15367  3.15367  0.00000 -0.30733
      18     H     0.42073  0.42073  0.00000  0.15854
      19     H     0.42082  0.42082  0.00000  0.15836
      20     C     3.24005  3.24005  0.00000 -0.48010
      21     H     0.42005  0.42005  0.00000  0.15990
      22     H     0.42231  0.42231  0.00000  0.15539
      23     H     0.42111  0.42111  0.00000  0.15778
      24     H     0.42146  0.42146  0.00000  0.15708
      25     H     0.41987  0.41987  0.00000  0.16025

   Total alpha = 36.00000, Total beta = 36.00000, Total charge =  0.00000
