  ==> Input File <==

--------------------------------------------------------------------------
set {
	reference rhf
	basis cc-pvtz
}

set_num_threads( 4 )
memory 2 gb

molecule MOL {
0 1

H	 -1.046536	 0.646284	 -2.598004
O	 -1.425631	 1.390278	 -2.165325
C	 -0.717624	 1.666579	 -0.996561
C	 -0.793473	 0.591216	 0.050087
H	 -1.132838	 2.583913	 -0.596063
H	 0.328839	 1.870178	 -1.216019
C	 -1.534243	 -0.493009	 -0.013340
H	 -0.172701	 0.761371	 0.914343
H	 -1.101195	 -1.466332	 -0.144046
H	 -2.604242	 -0.437780	 0.050785

	symmetry c1
}
set optking {
	frozen_dihedral = ("
		3 4 7 9
	")
}

ee = optimize('scf')
oeprop('DIPOLE', 'QUADRUPOLE', 'MULLIKEN_CHARGES')
f=open( 'psi4out.xyz', 'w' )
f.write( "10  " )
f.write( str(ee) + "\n" )
f.write( MOL.save_string_xyz() )
f.close()
--------------------------------------------------------------------------

    Molecular point group: c1
  Charge       = 0
  Multiplicity = 1
  Basis Set: CC-PVTZ
  Basis Set:
  @DF-RHF Final Energy:  -191.88970857123877
    Total Energy =                       -191.8897085712386286
    Molecular point group: c1
  Basis Set: CC-PVTZ
  Basis Set:
  Basis Set: CC-PVTZ
  Basis Set:
  @DF-RHF Final Energy:  -191.92083921545355
    Total Energy =                       -191.9208392154534977
  Basis Set: CC-PVTZ
  Basis Set:
  Basis Set: CC-PVTZ
  Basis Set:
  @DF-RHF Final Energy:  -191.94762542395569
    Total Energy =                       -191.9476254239557704
  Basis Set: CC-PVTZ
  Basis Set:
  Basis Set: CC-PVTZ
  Basis Set:
  @DF-RHF Final Energy:  -191.95354237757169
    Total Energy =                       -191.9535423775717788
  Basis Set: CC-PVTZ
  Basis Set:
  @DF-RHF Final Energy:  -191.95412449976195
    Total Energy =                       -191.9541244997619742
  @DF-RHF Final Energy:  -191.95421539703352
    Total Energy =                       -191.9542153970334653
  @DF-RHF Final Energy:  -191.95036291136245
    Total Energy =                       -191.9503629113624186
  @DF-RHF Final Energy:  -191.95423013702123
    Total Energy =                       -191.9542301370210851
  @DF-RHF Final Energy:  -191.95424628860400
    Total Energy =                       -191.9542462886040539
  @DF-RHF Final Energy:  -191.95424921055579
    Total Energy =                       -191.9542492105558154
  @DF-RHF Final Energy:  -191.95419241306780
    Total Energy =                       -191.9541924130677728
  @DF-RHF Final Energy:  -191.95423032750421
    Total Energy =                       -191.9542303275041490
  @DF-RHF Final Energy:  -191.95106339409443
    Total Energy =                       -191.9510633940943194
  @DF-RHF Final Energy:  -191.94952472875838
    Total Energy =                       -191.9495247287584050
  Basis Set: CC-PVTZ
  Basis Set:
  @DF-RHF Final Energy:  -191.95414674677835
    Total Energy =                       -191.9541467467784059
  Basis Set: CC-PVTZ
  Basis Set:
  Basis Set: CC-PVTZ
  Basis Set:
  @DF-RHF Final Energy:  -191.95425672374176
    Total Energy =                       -191.9542567237417074
  Basis Set: CC-PVTZ
  Basis Set:
  Basis Set: CC-PVTZ
  Basis Set:
  @DF-RHF Final Energy:  -191.95425817795700
    Total Energy =                       -191.9542581779568309
  Basis Set: CC-PVTZ
  Basis Set:
  Charge       = 0
  Multiplicity = 1
  Basis Set: CC-PVTZ
  Basis Set:

    Orbital Energies (a.u.)
    -----------------------

    Doubly Occupied:

       1A    -20.557866     2A    -11.289408     3A    -11.243704
       4A    -11.221474     5A     -1.379860     6A     -1.067133
       7A     -0.938744     8A     -0.777115     9A     -0.697407
      10A     -0.657871    11A     -0.626720    12A     -0.585163
      13A     -0.530473    14A     -0.504043    15A     -0.454131
      16A     -0.354004

  @DF-RHF Final Energy:  -191.95425859425006

   => Energetics <=

    Nuclear Repulsion Energy =            118.9693279058011370
    One-Electron Energy =                -496.0769395000036184
    Two-Electron Energy =                 185.1533529999524035
    DFT Exchange-Correlation Energy =       0.0000000000000000
    Empirical Dispersion Energy =           0.0000000000000000
    PCM Polarization Energy =               0.0000000000000000
    EFP Energy =                            0.0000000000000000
    Total Energy =                       -191.9542585942500637
    Molecular point group: c1
  Basis Set: CC-PVTZ
  Basis Set:

  -Total Gradient:
     Atom            X                  Y                   Z
    ------   -----------------  -----------------  -----------------
       1        0.000016628810     0.000004467461     0.000009641224
       2       -0.000022587439     0.000016508553    -0.000031820566
       3        0.028068779245    -0.012431115602    -0.005423906375
       4       -0.044698036153     0.020746257048    -0.009361929612
       5       -0.000005424909     0.000012447112    -0.000010975943
       6       -0.000012333839     0.000000261596     0.000003186192
       7        0.009071719546    -0.007150697675     0.055633895540
       8        0.000087071398     0.000078992372    -0.000057572333
       9        0.007449545509    -0.001200162676    -0.040697584839
      10        0.000044637830    -0.000076958187    -0.000062933288

  **** Optimization is complete! (in 18 steps) ****
    Final optimized geometry and variables:
    Molecular point group: c1

    Geometry (in Angstrom), charge = 0, multiplicity = 1:

    H           -0.283828697923    -0.196041028527    -1.633222869954
    O           -0.358380302601     0.677021692110    -1.291248750143
    C            0.447711296368     0.812796497444    -0.168015069393
    C            0.216788088323    -0.187379148020     0.938374669597
    H            0.336397408646     1.836459545507     0.167261189465
    H            1.497579083429     0.669881514479    -0.411832350742
    C           -0.327569025038    -1.392741836999     0.874415741067
    H            1.011568926452    -0.075340127536     1.667737316544
    H            0.207978451803    -2.316580680139     0.999327627640
    H           -1.093711770681    -1.526803561734     0.119725576279

  Mulliken Charges: (a.u.)
   Center  Symbol    Alpha    Beta     Spin     Total
       1     H     0.39074  0.39074  0.00000  0.21851
       2     O     4.19737  4.19737  0.00000 -0.39473
       3     C     2.95042  2.95042  0.00000  0.09917
       4     C     3.06669  3.06669  0.00000 -0.13339
       5     H     0.44882  0.44882  0.00000  0.10235
       6     H     0.46517  0.46517  0.00000  0.06965
       7     C     3.17778  3.17778  0.00000 -0.35557
       8     H     0.43573  0.43573  0.00000  0.12853
       9     H     0.42083  0.42083  0.00000  0.15834
      10     H     0.44643  0.44643  0.00000  0.10713

   Total alpha = 16.00000, Total beta = 16.00000, Total charge =  0.00000
