  ==> Input File <==

--------------------------------------------------------------------------
set {
	reference rhf
	basis cc-pvtz
}

set_num_threads( 4 )
memory 2 gb

molecule MOL {
0 1

O	 1.240595	 -2.513123	 -1.085586
C	 0.368834	 -1.894857	 -0.577985
C	 -1.066652	 -2.330425	 -0.505085
O	 0.550743	 -0.719877	 0.000412
H	 -1.375152	 -2.391870	 0.530510
H	 -1.177922	 -3.289553	 -0.983859
H	 -1.694080	 -1.595048	 -0.991904
C	 1.863204	 -0.194033	 0.000410
H	 2.031502	 0.409177	 -0.879273
H	 2.524488	 -1.045142	 0.000793
H	 2.031291	 0.409823	 0.879686

	symmetry c1
}
set optking {
	frozen_dihedral = ("
		2 4 8 9
	")
}

ee = optimize('scf')
oeprop('DIPOLE', 'QUADRUPOLE', 'MULLIKEN_CHARGES')
f=open( 'psi4out.xyz', 'w' )
f.write( "11  " )
f.write( str(ee) + "\n" )
f.write( MOL.save_string_xyz() )
f.close()
--------------------------------------------------------------------------

    Molecular point group: c1
  Charge       = 0
  Multiplicity = 1
  Basis Set: CC-PVTZ
  Basis Set:
  @DF-RHF Final Energy:  -266.93637877419144
    Total Energy =                       -266.9363787741915530
    Molecular point group: c1
  Basis Set: CC-PVTZ
  Basis Set:
  Basis Set: CC-PVTZ
  Basis Set:
  @DF-RHF Final Energy:  -266.93765194405228
    Total Energy =                       -266.9376519440525044
  Basis Set: CC-PVTZ
  Basis Set:
  Basis Set: CC-PVTZ
  Basis Set:
  @DF-RHF Final Energy:  -266.93810652088268
    Total Energy =                       -266.9381065208828545
  Basis Set: CC-PVTZ
  Basis Set:
  Basis Set: CC-PVTZ
  Basis Set:
  @DF-RHF Final Energy:  -266.93720916366539
    Total Energy =                       -266.9372091636653295
  Basis Set: CC-PVTZ
  Basis Set:
  Basis Set: CC-PVTZ
  Basis Set:
  @DF-RHF Final Energy:  -266.93818476685703
    Total Energy =                       -266.9381847668570344
  Basis Set: CC-PVTZ
  Basis Set:
  Basis Set: CC-PVTZ
  Basis Set:
  @DF-RHF Final Energy:  -266.93818744635246
    Total Energy =                       -266.9381874463523445
  Basis Set: CC-PVTZ
  Basis Set:
  Charge       = 0
  Multiplicity = 1
  Basis Set: CC-PVTZ
  Basis Set:

    Orbital Energies (a.u.)
    -----------------------

    Doubly Occupied:

       1A    -20.598277     2A    -20.534871     3A    -11.369464
       4A    -11.279342     5A    -11.232916     6A     -1.472930
       7A     -1.367948     8A     -1.037003     9A     -0.954044
      10A     -0.779586    11A     -0.698790    12A     -0.683314
      13A     -0.681095    14A     -0.597080    15A     -0.593001
      16A     -0.561746    17A     -0.529034    18A     -0.522872
      19A     -0.460689    20A     -0.445728

  @DF-RHF Final Energy:  -266.93818770330654

   => Energetics <=

    Nuclear Repulsion Energy =            183.4512234666899246
    One-Electron Energy =                -727.9793611450593289
    Two-Electron Energy =                 277.5899499750627228
    DFT Exchange-Correlation Energy =       0.0000000000000000
    Empirical Dispersion Energy =           0.0000000000000000
    PCM Polarization Energy =               0.0000000000000000
    EFP Energy =                            0.0000000000000000
    Total Energy =                       -266.9381877033066530
    Molecular point group: c1
  Basis Set: CC-PVTZ
  Basis Set:

  -Total Gradient:
     Atom            X                  Y                   Z
    ------   -----------------  -----------------  -----------------
       1        0.000001701277     0.000023349780     0.000006475233
       2        0.000222691768    -0.000661069723     0.001219322464
       3       -0.000008893519    -0.000016777306     0.000008347620
       4       -0.000460730990     0.001256486923    -0.001562236664
       5        0.000000349805     0.000004754819    -0.000005834111
       6       -0.000006526475    -0.000001140669    -0.000001474929
       7       -0.000000686678    -0.000000356392    -0.000006514815
       8        0.000757485853    -0.001897804842    -0.000444431756
       9       -0.000520007606     0.001290932758     0.000790583484
      10        0.000003158158    -0.000000613226    -0.000000925546
      11        0.000011458408     0.000002237877    -0.000003310981

  **** Optimization is complete! (in 7 steps) ****
    Final optimized geometry and variables:
    Molecular point group: c1

    Geometry (in Angstrom), charge = 0, multiplicity = 1:

    O            0.610074005759    -1.007846145465    -0.683750670368
    C           -0.241299485023    -0.379379600962    -0.155011046292
    C           -1.680247365353    -0.798622957670    -0.054436327489
    O           -0.040469973494     0.792853371772     0.424227901267
    H           -1.968308528378    -0.861221585170     0.986913266826
    H           -1.812720199015    -1.753859970062    -0.535591496533
    H           -2.308325862945    -0.053303112540    -0.525020429955
    C            1.272398246610     1.319201510612     0.445687301044
    H            1.439440459808     1.923289477257    -0.435360801303
    H            2.004899160147     0.531109570176     0.492784719257
    H            1.334286842165     1.944845223706     1.322221076209

  Mulliken Charges: (a.u.)
   Center  Symbol    Alpha    Beta     Spin     Total
       1     O     4.19702  4.19702  0.00000 -0.39404
       2     C     2.79981  2.79981  0.00000  0.40038
       3     C     3.13900  3.13900  0.00000 -0.27799
       4     O     4.14883  4.14883  0.00000 -0.29765
       5     H     0.44576  0.44576  0.00000  0.10847
       6     H     0.43791  0.43791  0.00000  0.12418
       7     H     0.44525  0.44525  0.00000  0.10950
       8     C     3.03434  3.03434  0.00000 -0.06868
       9     H     0.45647  0.45647  0.00000  0.08706
      10     H     0.44754  0.44754  0.00000  0.10491
      11     H     0.44807  0.44807  0.00000  0.10386

   Total alpha = 20.00000, Total beta = 20.00000, Total charge = -0.00000
