                              Psi4 1.0.54 Driver

  ==> Input File <==

--------------------------------------------------------------------------
set {
	reference rhf
	basis cc-pvtz
}

set_num_threads( 4 )
memory 2 gb

molecule MOL {
0 1

H	 -4.024094	 -0.454727	 0.000004
C	 -2.962215	 -0.297920	 0.000004
C	 -2.454736	 0.988978	 0.000025
C	 -2.105837	 -1.382632	 -0.000016
H	 -3.120052	 1.830438	 0.000041
C	 -1.090106	 1.189676	 0.000026
H	 -2.500390	 -2.380229	 -0.000033
C	 -0.739175	 -1.183302	 -0.000016
H	 -0.680214	 2.179144	 0.000042
C	 -0.227341	 0.104540	 0.000006
H	 -0.073209	 -2.021168	 -0.000032
C	 1.238974	 0.374429	 0.000004
O	 1.710389	 0.675547	 -1.195439
O	 1.918463	 0.325591	 0.970102
C	 3.094512	 0.947847	 -1.293507
H	 3.359298	 1.794556	 -0.678406
H	 3.279558	 1.168280	 -2.332139
H	 3.672898	 0.090418	 -0.984181

	symmetry c1
}
set optking {
	frozen_dihedral = ("
		13 12 10 6
	")
}

ee,wfn = optimize('scf', return_wfn=True)
oeprop( wfn, 'DIPOLE', 'QUADRUPOLE', 'MULLIKEN_CHARGES')
f=open( 'psi4out.xyz', 'w' )
f.write( "18  " )
f.write( str(ee) + "\n" )
f.write( MOL.save_string_xyz() )
f.close()
--------------------------------------------------------------------------

    Molecular point group: c1
  Charge       = 0
  Multiplicity = 1
  Basis Set: CC-PVTZ
  Basis Set:
  @DF-RHF Final Energy:  -457.49893551061996
    Total Energy =                       -457.4989355106197308
    Molecular point group: c1
  Basis Set: CC-PVTZ
  Basis Set:
  Basis Set: CC-PVTZ
  Basis Set:
  @DF-RHF Final Energy:  -457.49948076657824
    Total Energy =                       -457.4994807665782446
  Basis Set: CC-PVTZ
  Basis Set:
  Basis Set: CC-PVTZ
  Basis Set:
  @DF-RHF Final Energy:  -457.49938904122700
    Total Energy =                       -457.4993890412270048
  Basis Set: CC-PVTZ
  Basis Set:
  Basis Set: CC-PVTZ
  Basis Set:
  @DF-RHF Final Energy:  -457.49951075688585
    Total Energy =                       -457.4995107568859112
  Basis Set: CC-PVTZ
  Basis Set:
  Basis Set: CC-PVTZ
  Basis Set:
  @DF-RHF Final Energy:  -457.49954494698744
    Total Energy =                       -457.4995449469876121
  Basis Set: CC-PVTZ
  Basis Set:
  Charge       = 0
  Multiplicity = 1
  Basis Set: CC-PVTZ
  Basis Set:

    Orbital Energies (a.u.)
    -----------------------

    Doubly Occupied:

       1A    -20.604246     2A    -20.541355     3A    -11.375000
       4A    -11.282612     5A    -11.250581     6A    -11.241744
       7A    -11.241210     8A    -11.238438     9A    -11.237712
      10A    -11.236566    11A     -1.480310    12A     -1.373203
      13A     -1.171578    14A     -1.052264    15A     -1.029474
      16A     -0.982816    17A     -0.862561    18A     -0.842036
      19A     -0.784157    20A     -0.742522    21A     -0.688647
      22A     -0.685085    23A     -0.682541    24A     -0.636182
      25A     -0.632069    26A     -0.600072    27A     -0.594615
      28A     -0.552118    29A     -0.539778    30A     -0.522490
      31A     -0.512021    32A     -0.504785    33A     -0.465535
      34A     -0.450011    35A     -0.347509    36A     -0.346973

  @DF-RHF Final Energy:  -457.49954551477890

   => Energetics <=

    Nuclear Repulsion Energy =            492.5384338855003534
    One-Electron Energy =               -1599.4143256702832332
    Two-Electron Energy =                 649.3763462700042055
    DFT Exchange-Correlation Energy =       0.0000000000000000
    Empirical Dispersion Energy =           0.0000000000000000
    PCM Polarization Energy =               0.0000000000000000
    EFP Energy =                            0.0000000000000000
    Total Energy =                       -457.4995455147786743
    Molecular point group: c1
  Basis Set: CC-PVTZ
  Basis Set:

  -Total Gradient:
     Atom            X                  Y                   Z
    ------   -----------------  -----------------  -----------------
       1       -0.000006572887     0.000011210587     0.000000025628
       2        0.000024660452    -0.000122484354     0.000008823494
       3        0.000089456154     0.000074643675    -0.000004455602
       4       -0.000141447099     0.000058224319    -0.000004802513
       5       -0.000010363731    -0.000006531074    -0.000004124055
       6       -0.000164279768    -0.000009527921     0.002453740177
       7        0.000010461885     0.000003475984    -0.000001375811
       8        0.000129375314     0.000104892843     0.000007885601
       9        0.000002908352    -0.000006233783     0.000003236578
      10        0.000229864467    -0.000859382359    -0.003744757959
      11       -0.000004416343    -0.000004057214     0.000001712805
      12       -0.000487410133     0.003081644385     0.001607272463
      13        0.000275447054    -0.002301208707    -0.000395982967
      14        0.000001993061    -0.000002162201     0.000084805195
      15        0.000075421288    -0.000038150670    -0.000009923012
      16       -0.000019664793    -0.000020561770    -0.000009557466
      17       -0.000007110166     0.000002772713     0.000014046493
      18        0.000001676895     0.000033435547    -0.000006569050

  **** Optimization is complete! (in 6 steps) ****
    Final optimized geometry and variables:
    Molecular point group: c1

    Geometry (in Angstrom), charge = 0, multiplicity = 1:

    H           -3.987795066646    -0.677572330888     0.210084491510
    C           -2.928880188076    -0.505052846344     0.190099841777
    C           -2.438545726927     0.787033317674     0.178801953288
    C           -2.053594733592    -1.574116871645     0.180645331932
    H           -3.114976632168     1.619805022024     0.193621051472
    C           -1.075802352990     1.010513849396     0.149303158028
    H           -2.430277062124    -2.578693783478     0.194608108144
    C           -0.689801843609    -1.353440764948     0.162479061991
    H           -0.696735556319     2.014577980830     0.137032573532
    C           -0.201421869324    -0.060592487874     0.134913543801
    H           -0.010104612762    -2.183745943048     0.173599261820
    C            1.278911452122     0.172215522374     0.166878062908
    O            1.759006566594     0.492005454896    -1.018625315124
    O            1.945873820469     0.060832246606     1.136879016238
    C            3.150383954143     0.736677768385    -1.108757831499
    H            3.434361840437     1.557000909141    -0.466678281052
    H            3.340309957324     0.985542560945    -2.139807479807
    H            3.709079136520    -0.143003465979    -0.826524159956

  Mulliken Charges: (a.u.)
   Center  Symbol    Alpha    Beta     Spin     Total
       1     H     0.42157  0.42157  0.00000  0.15687
       2     C     3.08423  3.08423  0.00000 -0.16845
       3     C     3.06521  3.06521  0.00000 -0.13042
       4     C     3.06508  3.06508  0.00000 -0.13017
       5     H     0.42182  0.42182  0.00000  0.15636
       6     C     3.09225  3.09225  0.00000 -0.18449
       7     H     0.42169  0.42169  0.00000  0.15663
       8     C     3.09154  3.09154  0.00000 -0.18309
       9     H     0.42467  0.42467  0.00000  0.15065
      10     C     2.91784  2.91784  0.00000  0.16432
      11     H     0.42264  0.42264  0.00000  0.15473
      12     C     2.84523  2.84523  0.00000  0.30954
      13     O     4.14294  4.14294  0.00000 -0.28588
      14     O     4.19611  4.19611  0.00000 -0.39222
      15     C     3.03718  3.03718  0.00000 -0.07436
      16     H     0.45399  0.45399  0.00000  0.09202
      17     H     0.44295  0.44295  0.00000  0.11409
      18     H     0.45306  0.45306  0.00000  0.09388

   Total alpha = 36.00000, Total beta = 36.00000, Total charge = -0.00000

*** Psi4 exiting successfully. Buy a developer a beer!
