  ==> Input File <==

--------------------------------------------------------------------------
set {
	reference rhf
	basis cc-pvtz
}

set_num_threads( 4 )
memory 2 gb

molecule MOL {
0 1

H	 2.611000	 0.636000	 0.213000
O	 2.107000	 -0.095000	 -0.116000
C	 0.788000	 -0.003000	 0.350000
H	 0.781000	 0.030000	 1.440000
C	 -0.022000	 -1.203000	 -0.127000
C	 -0.004000	 1.186000	 -0.195000
H	 0.240000	 -1.384000	 -1.165000
H	 0.205000	 -2.106000	 0.428000
C	 -1.494000	 -0.760000	 0.002000
H	 0.196000	 1.263000	 -1.260000
H	 0.268000	 2.133000	 0.263000
C	 -1.467000	 0.794000	 0.061000
H	 -2.086000	 -1.120000	 -0.832000
H	 -1.945000	 -1.166000	 0.901000
H	 -2.142000	 1.247000	 -0.656000
H	 -1.780000	 1.136000	 1.043000

	symmetry c1
}
ee = optimize('scf')
oeprop('DIPOLE', 'QUADRUPOLE', 'MULLIKEN_CHARGES')
f=open( 'psi4out.xyz', 'w' )
f.write( "16  " )
f.write( str(ee) + "\n" )
f.write( MOL.save_string_xyz() )
f.close()
--------------------------------------------------------------------------

    Molecular point group: c1
  Charge       = 0
  Multiplicity = 1
  Basis Set: CC-PVTZ
  Basis Set:
  @DF-RHF Final Energy:  -270.11680100901185
    Total Energy =                       -270.1168010090119083
    Molecular point group: c1
  Basis Set: CC-PVTZ
  Basis Set:
  Basis Set: CC-PVTZ
  Basis Set:
  @DF-RHF Final Energy:  -270.11692075278899
    Total Energy =                       -270.1169207527885874
  Basis Set: CC-PVTZ
  Basis Set:
  Basis Set: CC-PVTZ
  Basis Set:
  @DF-RHF Final Energy:  -270.11692244751328
    Total Energy =                       -270.1169224475131045
  Basis Set: CC-PVTZ
  Basis Set:
  Charge       = 0
  Multiplicity = 1
  Basis Set: CC-PVTZ
  Basis Set:

    Orbital Energies (a.u.)
    -----------------------

    Doubly Occupied:

       1A    -20.545902     2A    -11.267305     3A    -11.214895
       4A    -11.213203     5A    -11.210114     6A    -11.206958
       7A     -1.365881     8A     -1.114864     9A     -0.966583
      10A     -0.949268    11A     -0.789685    12A     -0.777133
      13A     -0.707185    14A     -0.658085    15A     -0.619060
      16A     -0.589713    17A     -0.567670    18A     -0.526222
      19A     -0.508041    20A     -0.481634    21A     -0.470917
      22A     -0.456755    23A     -0.449788    24A     -0.421760

  @DF-RHF Final Energy:  -270.11692265202493

   => Energetics <=

    Nuclear Repulsion Energy =            255.5981582417202276
    One-Electron Energy =                -873.2729280974156154
    Two-Electron Energy =                 347.5578472036701214
    DFT Exchange-Correlation Energy =       0.0000000000000000
    Empirical Dispersion Energy =           0.0000000000000000
    PCM Polarization Energy =               0.0000000000000000
    EFP Energy =                            0.0000000000000000
    Total Energy =                       -270.1169226520252096
    Molecular point group: c1
  Basis Set: CC-PVTZ
  Basis Set:

  -Total Gradient:
     Atom            X                  Y                   Z
    ------   -----------------  -----------------  -----------------
       1       -0.000020548311    -0.000028019249    -0.000015458841
       2        0.000040215002     0.000027833834    -0.000001355363
       3       -0.000032639626     0.000014283055     0.000037448564
       4       -0.000004234662    -0.000002143365     0.000012600150
       5        0.000021697389     0.000010656426    -0.000003188708
       6        0.000033329288    -0.000010239050    -0.000022815493
       7        0.000000428617    -0.000006005703    -0.000008057104
       8        0.000003572295     0.000001772232    -0.000010519593
       9       -0.000009516272    -0.000004629838    -0.000027772136
      10        0.000011307783     0.000003673656    -0.000004685620
      11        0.000006863814    -0.000005947451    -0.000010236587
      12       -0.000025819418     0.000006914074     0.000041644297
      13       -0.000014542164    -0.000009712810     0.000012847679
      14        0.000001711970     0.000001459993     0.000005297287
      15        0.000006347280     0.000002662896     0.000001013301
      16       -0.000018172979    -0.000002558700    -0.000006761833

  **** Optimization is complete! (in 4 steps) ****
    Final optimized geometry and variables:
    Molecular point group: c1

    Geometry (in Angstrom), charge = 0, multiplicity = 1:

    H            2.569853547386     0.635151716335     0.227218856779
    O            2.063695132877    -0.083402994428    -0.105237201368
    C            0.742924024955     0.005675146630     0.350750134599
    H            0.731380011927     0.039219023416     1.440080052823
    C           -0.064076388650    -1.193494906960    -0.124425204501
    C           -0.047832529888     1.190568735697    -0.194461821139
    H            0.194728795077    -1.376165037565    -1.161308486334
    H            0.163013320632    -2.094507176260     0.429932700138
    C           -1.533112501559    -0.752001701265     0.006101735756
    H            0.148002818384     1.266545754057    -1.259274991927
    H            0.226234965704     2.136492973161     0.259721812812
    C           -1.506634249040     0.799189623087     0.067161979676
    H           -2.124360100307    -1.110499077822    -0.826088685579
    H           -1.983103470244    -1.158030032098     0.903402849115
    H           -2.183808113262     1.252169765256    -0.644677547465
    H           -1.813926088444     1.138698057333     1.049457106028

  Mulliken Charges: (a.u.)
   Center  Symbol    Alpha    Beta     Spin     Total
       1     H     0.39549  0.39549  0.00000  0.20903
       2     O     4.20009  4.20009  0.00000 -0.40018
       3     C     2.92232  2.92232  0.00000  0.15536
       4     H     0.46679  0.46679  0.00000  0.06643
       5     C     3.10224  3.10224  0.00000 -0.20447
       6     C     3.10253  3.10253  0.00000 -0.20506
       7     H     0.45119  0.45119  0.00000  0.09761
       8     H     0.44377  0.44377  0.00000  0.11247
       9     C     3.10954  3.10954  0.00000 -0.21907
      10     H     0.45335  0.45335  0.00000  0.09330
      11     H     0.45007  0.45007  0.00000  0.09987
      12     C     3.11470  3.11470  0.00000 -0.22939
      13     H     0.44547  0.44547  0.00000  0.10907
      14     H     0.44867  0.44867  0.00000  0.10266
      15     H     0.44335  0.44335  0.00000  0.11329
      16     H     0.45045  0.45045  0.00000  0.09910

   Total alpha = 24.00000, Total beta = 24.00000, Total charge = -0.00000
