                              Psi4 1.0.54 Driver

  ==> Input File <==

--------------------------------------------------------------------------
set {
	reference rhf
	basis cc-pvtz
}

set_num_threads( 4 )
memory 2 gb

molecule MOL {
0 1

H	 -3.334769	 2.956857	 0.203477
C	 -3.624012	 1.902836	 0.314219
C	 -2.653809	 0.914422	 -0.273689
O	 -4.637330	 1.621175	 0.853811
C	 -1.216901	 1.136108	 0.207794
H	 -3.000857	 -0.085345	 -0.047064
H	 -2.693229	 1.045374	 -1.352856
C	 -0.247837	 0.040196	 -0.230469
H	 -0.872882	 2.093195	 -0.169002
H	 -1.209325	 1.218376	 1.291938
C	 1.181757	 0.280428	 0.247371
H	 -0.259600	 -0.030819	 -1.314870
H	 -0.591284	 -0.923375	 0.136958
C	 2.151032	 -0.811012	 -0.202643
H	 1.515939	 1.247397	 -0.115449
H	 1.191514	 0.341223	 1.333422
C	 3.580021	 -0.656538	 0.320835
H	 2.170545	 -0.847575	 -1.289412
H	 1.766632	 -1.772905	 0.124928
C	 4.327657	 0.562694	 -0.213579
H	 4.138806	 -1.549270	 0.057813
H	 3.561991	 -0.620783	 1.406976
H	 4.355973	 0.557257	 -1.298551
H	 3.867136	 1.491650	 0.100501
H	 5.351524	 0.571613	 0.142204

	symmetry c1
}
set optking {
	frozen_dihedral = ("
		6 3 5 8
	")
}

ee,wfn = optimize('scf', return_wfn=True)
oeprop( wfn, 'DIPOLE', 'QUADRUPOLE', 'MULLIKEN_CHARGES')
f=open( 'psi4out.xyz', 'w' )
f.write( "25  " )
f.write( str(ee) + "\n" )
f.write( MOL.save_string_xyz() )
f.close()
--------------------------------------------------------------------------

    Molecular point group: c1
  Charge       = 0
  Multiplicity = 1
  Basis Set: CC-PVTZ
  Basis Set:
  @DF-RHF Final Energy:  -387.26043279382895
    Total Energy =                       -387.2604327938291817
    Molecular point group: c1
  Basis Set: CC-PVTZ
  Basis Set:
  Basis Set: CC-PVTZ
  Basis Set:
  @DF-RHF Final Energy:  -387.26040054702656
    Total Energy =                       -387.2604005470265065
  Basis Set: CC-PVTZ
  Basis Set:
  Basis Set: CC-PVTZ
  Basis Set:
  @DF-RHF Final Energy:  -387.25872035462970
    Total Energy =                       -387.2587203546295314
  Basis Set: CC-PVTZ
  Basis Set:
  Basis Set: CC-PVTZ
  Basis Set:
  @DF-RHF Final Energy:  -387.26058309349662
    Total Energy =                       -387.2605830934967344
  Basis Set: CC-PVTZ
  Basis Set:
  @DF-RHF Final Energy:  -387.26060038309839
    Total Energy =                       -387.2606003830977670
  Basis Set: CC-PVTZ
  Basis Set:
  @DF-RHF Final Energy:  -387.26060429163095
    Total Energy =                       -387.2606042916311253
  Basis Set: CC-PVTZ
  Basis Set:
  Basis Set: CC-PVTZ
  Basis Set:
  @DF-RHF Final Energy:  -387.26060580822821
    Total Energy =                       -387.2606058082278651
  Basis Set: CC-PVTZ
  Basis Set:
  Basis Set: CC-PVTZ
  Basis Set:
  @DF-RHF Final Energy:  -387.26060697059802
    Total Energy =                       -387.2606069705977916
  Basis Set: CC-PVTZ
  Basis Set:
  Charge       = 0
  Multiplicity = 1
  Basis Set: CC-PVTZ
  Basis Set:

    Orbital Energies (a.u.)
    -----------------------

    Doubly Occupied:

       1A    -20.551361     2A    -11.320839     3A    -11.233786
       4A    -11.233157     5A    -11.224135     6A    -11.218851
       7A    -11.217575     8A    -11.216742     9A    -11.209963
      10A     -1.406139    11A     -1.106201    12A     -1.071978
      13A     -1.016387    14A     -0.945851    15A     -0.875962
      16A     -0.813410    17A     -0.795698    18A     -0.781712
      19A     -0.680756    20A     -0.657741    21A     -0.637571
      22A     -0.622469    23A     -0.616526    24A     -0.590742
      25A     -0.568623    26A     -0.558939    27A     -0.531159
      28A     -0.525757    29A     -0.516047    30A     -0.495959
      31A     -0.488599    32A     -0.480469    33A     -0.466731
      34A     -0.460672    35A     -0.452641    36A     -0.409555

  @DF-RHF Final Energy:  -387.26060745602786

   => Energetics <=

    Nuclear Repulsion Energy =            432.4969791419151761
    One-Electron Energy =               -1381.5137733692454276
    Two-Electron Energy =                 561.7561867713025094
    DFT Exchange-Correlation Energy =       0.0000000000000000
    Empirical Dispersion Energy =           0.0000000000000000
    PCM Polarization Energy =               0.0000000000000000
    EFP Energy =                            0.0000000000000000
    Total Energy =                       -387.2606074560277420
    Molecular point group: c1
  Basis Set: CC-PVTZ
  Basis Set:

  -Total Gradient:
     Atom            X                  Y                   Z
    ------   -----------------  -----------------  -----------------
       1       -0.000026512373    -0.000004068192     0.000034256623
       2       -0.000063385284     0.000009261282    -0.000004636130
       3       -0.000928169546     0.000450337019     0.002570648067
       4        0.000033865042     0.000037889399    -0.000017735344
       5        0.000556380259     0.000861769198    -0.002051646060
       6        0.000674553974    -0.000590652537    -0.001713276709
       7        0.000007008365    -0.000022012521     0.000035301059
       8       -0.000237225137    -0.000701713226     0.001149358087
       9       -0.000001431520    -0.000012066789     0.000012398367
      10        0.000002192997    -0.000018821512    -0.000026424998
      11       -0.000014835714    -0.000019188178     0.000023630940
      12       -0.000006505685    -0.000004204530    -0.000010909445
      13        0.000006807169     0.000016431413     0.000005309860
      14        0.000006226532     0.000001635782    -0.000008378995
      15       -0.000004558177    -0.000009379155     0.000001841012
      16        0.000001385053     0.000002751883     0.000005689834
      17       -0.000000349591     0.000002250127    -0.000001504968
      18        0.000000022995    -0.000003272317    -0.000001247017
      19        0.000005970842     0.000003781830     0.000002219325
      20       -0.000000794372     0.000000291638    -0.000001449559
      21       -0.000005123171     0.000005195290     0.000001880036
      22       -0.000003498455     0.000001658830    -0.000007154406
      23       -0.000002393650     0.000001284967     0.000002889473
      24        0.000001434429    -0.000007460574    -0.000000181183
      25       -0.000001064989    -0.000001699126    -0.000000877872

  **** Optimization is complete! (in 9 steps) ****
    Final optimized geometry and variables:
    Molecular point group: c1

    Geometry (in Angstrom), charge = 0, multiplicity = 1:

    H           -3.238179963134     2.394872349958     0.062325374399
    C           -3.496129067121     1.338331255338     0.213429127220
    C           -2.526063289135     0.353720675739    -0.376131267019
    O           -4.476869704097     1.048594283569     0.806805889320
    C           -1.091126979855     0.594647746504     0.102335589171
    H           -2.857646237548    -0.649796422267    -0.144359195868
    H           -2.566209677132     0.468167917671    -1.457744761281
    C           -0.130535307648    -0.502958819522    -0.346123446203
    H           -0.743236460404     1.558262407517    -0.258670807094
    H           -1.080562662458     0.650392619929     1.187563327805
    C            1.305919051532    -0.270421002468     0.114319321006
    H           -0.153260065712    -0.579884162486    -1.430624163667
    H           -0.481761022818    -1.457936261526     0.034438407370
    C            2.259911070577    -1.376179024476    -0.333461373409
    H            1.645864260298     0.689036435126    -0.262568843591
    H            1.326764816709    -0.198131921142     1.199306661756
    C            3.695564603552    -1.230016867558     0.173830168173
    H            2.268341975094    -1.424989037770    -1.420019583763
    H            1.869638801958    -2.330589550287     0.009005448413
    C            4.449268006816    -0.023980268086    -0.381512375958
    H            4.243018532108    -2.130985488513    -0.084936676372
    H            3.688677055528    -1.182179082543     1.259538703585
    H            4.465473385455    -0.040855954394    -1.466640516884
    H            4.001693133960     0.912730569330    -0.071909001508
    H            5.477036441109    -0.021849962635    -0.037169223417

  Mulliken Charges: (a.u.)
   Center  Symbol    Alpha    Beta     Spin     Total
       1     H     0.46503  0.46503  0.00000  0.06994
       2     C     2.91168  2.91168  0.00000  0.17665
       3     C     3.07626  3.07626  0.00000 -0.15251
       4     O     4.16423  4.16423  0.00000 -0.32846
       5     C     3.10588  3.10588  0.00000 -0.21177
       6     H     0.44284  0.44284  0.00000  0.11432
       7     H     0.44920  0.44920  0.00000  0.10159
       8     C     3.08843  3.08843  0.00000 -0.17686
       9     H     0.45070  0.45070  0.00000  0.09860
      10     H     0.44703  0.44703  0.00000  0.10595
      11     C     3.09235  3.09235  0.00000 -0.18471
      12     H     0.45315  0.45315  0.00000  0.09370
      13     H     0.44978  0.44978  0.00000  0.10043
      14     C     3.09619  3.09619  0.00000 -0.19238
      15     H     0.45219  0.45219  0.00000  0.09563
      16     H     0.45304  0.45304  0.00000  0.09392
      17     C     3.09057  3.09057  0.00000 -0.18114
      18     H     0.45361  0.45361  0.00000  0.09277
      19     H     0.44874  0.44874  0.00000  0.10251
      20     C     3.15265  3.15265  0.00000 -0.30529
      21     H     0.44779  0.44779  0.00000  0.10441
      22     H     0.45414  0.45414  0.00000  0.09172
      23     H     0.45479  0.45479  0.00000  0.09042
      24     H     0.45407  0.45407  0.00000  0.09186
      25     H     0.44566  0.44566  0.00000  0.10868

   Total alpha = 36.00000, Total beta = 36.00000, Total charge =  0.00000

*** Psi4 exiting successfully. Buy a developer a beer!
