  ==> Input File <==

--------------------------------------------------------------------------
set {
	reference rhf
	basis cc-pvtz
}

set_num_threads( 4 )
memory 2 gb

molecule MOL {
0 1

H	 -0.517152	 0.727607	 -2.474359
C	 0.039019	 1.361625	 -1.770418
C	 0.062554	 0.862911	 -0.350953
O	 0.567611	 2.347384	 -2.152549
C	 -1.339253	 0.577611	 0.196911
H	 0.588246	 1.585647	 0.259617
H	 0.640254	 -0.058681	 -0.352985
C	 -1.813142	 -0.849710	 -0.061612
H	 -2.032833	 1.276441	 -0.256032
H	 -1.357249	 0.782269	 1.263793
H	 -1.839268	 -1.063526	 -1.124230
H	 -2.810118	 -1.001930	 0.334000
H	 -1.159274	 -1.579980	 0.402282

	symmetry c1
}
set optking {
	frozen_dihedral = ("
		6 3 5 9
	")
}

ee = optimize('scf')
oeprop('DIPOLE', 'QUADRUPOLE', 'MULLIKEN_CHARGES')
f=open( 'psi4out.xyz', 'w' )
f.write( "13  " )
f.write( str(ee) + "\n" )
f.write( MOL.save_string_xyz() )
f.close()
--------------------------------------------------------------------------

    Molecular point group: c1
  Charge       = 0
  Multiplicity = 1
  Basis Set: CC-PVTZ
  Basis Set:
  @DF-RHF Final Energy:  -231.06762682337589
    Total Energy =                       -231.0676268233758037
    Molecular point group: c1
  Basis Set: CC-PVTZ
  Basis Set:
  Basis Set: CC-PVTZ
  Basis Set:
  @DF-RHF Final Energy:  -231.06723872653379
    Total Energy =                       -231.0672387265337022
  Basis Set: CC-PVTZ
  Basis Set:
  Basis Set: CC-PVTZ
  Basis Set:
  @DF-RHF Final Energy:  -231.06645854079818
    Total Energy =                       -231.0664585407982372
  Basis Set: CC-PVTZ
  Basis Set:
  Basis Set: CC-PVTZ
  Basis Set:
  @DF-RHF Final Energy:  -231.06790527153373
    Total Energy =                       -231.0679052715337889
  Basis Set: CC-PVTZ
  Basis Set:
  @DF-RHF Final Energy:  -231.06792556557207
    Total Energy =                       -231.0679255655718976
  Basis Set: CC-PVTZ
  Basis Set:
  @DF-RHF Final Energy:  -231.06793958578055
    Total Energy =                       -231.0679395857803229
  Basis Set: CC-PVTZ
  Basis Set:
  Basis Set: CC-PVTZ
  Basis Set:
  @DF-RHF Final Energy:  -231.06794752668574
    Total Energy =                       -231.0679475266856571
  Basis Set: CC-PVTZ
  Basis Set:
  Basis Set: CC-PVTZ
  Basis Set:
  @DF-RHF Final Energy:  -231.06794987832626
    Total Energy =                       -231.0679498783264023
  Basis Set: CC-PVTZ
  Basis Set:
  Charge       = 0
  Multiplicity = 1
  Basis Set: CC-PVTZ
  Basis Set:

    Orbital Energies (a.u.)
    -----------------------

    Doubly Occupied:

       1A    -20.551847     2A    -11.322119     3A    -11.237329
       4A    -11.234626     5A    -11.223871     6A     -1.406994
       7A     -1.087711     8A     -0.975655     9A     -0.849111
      10A     -0.791676    11A     -0.675786    12A     -0.653418
      13A     -0.607048    14A     -0.598340    15A     -0.584902
      16A     -0.529692    17A     -0.506804    18A     -0.493583
      19A     -0.486948    20A     -0.412679

  @DF-RHF Final Energy:  -231.06794990289615

   => Energetics <=

    Nuclear Repulsion Energy =            171.9692786007016139
    One-Electron Energy =                -653.6141791132484968
    Two-Electron Energy =                 250.5769506096506234
    DFT Exchange-Correlation Energy =       0.0000000000000000
    Empirical Dispersion Energy =           0.0000000000000000
    PCM Polarization Energy =               0.0000000000000000
    EFP Energy =                            0.0000000000000000
    Total Energy =                       -231.0679499028962596
    Molecular point group: c1
  Basis Set: CC-PVTZ
  Basis Set:

  -Total Gradient:
     Atom            X                  Y                   Z
    ------   -----------------  -----------------  -----------------
       1        0.000001790668     0.000000625290     0.000001650786
       2       -0.000014150114    -0.000012649981     0.000005915331
       3       -0.001256914538     0.001926924455    -0.002164276920
       4        0.000008643817     0.000009388004    -0.000001674968
       5        0.000691033061     0.001444445376     0.002580263938
       6        0.000927823501    -0.001816984891     0.001374370091
       7        0.000001647880    -0.000001146343    -0.000000937097
       8        0.000008178374     0.000000447611     0.000006882268
       9       -0.000370648111    -0.001547991017    -0.001801437126
      10        0.000001099841    -0.000003397720    -0.000002494295
      11        0.000000671964     0.000003557445     0.000001989100
      12        0.000001049051     0.000001763631    -0.000000505927
      13       -0.000000225392    -0.000004981858     0.000000254815

  **** Optimization is complete! (in 9 steps) ****
    Final optimized geometry and variables:
    Molecular point group: c1

    Geometry (in Angstrom), charge = 0, multiplicity = 1:

    H           -0.152441495387    -0.017013716102    -1.610682457302
    C            0.517378937580     0.526053714406    -0.931746040813
    C            0.533617345155     0.037759840020     0.490991922201
    O            1.164811706796     1.427417866377    -1.339267026247
    C           -0.870414981598    -0.266137838893     1.040234036674
    H            1.057280191067     0.764509112908     1.096606844925
    H            1.132980973363    -0.870376975374     0.507535813808
    C           -1.331704397375    -1.698152876153     0.779219591979
    H           -1.589182535220     0.417772358360     0.597982710363
    H           -0.878757593590    -0.075753117567     2.105957570129
    H           -1.339567086044    -1.929355508394    -0.280599027684
    H           -2.334878476189    -1.857379328155     1.156215016661
    H           -0.675615547138    -2.411318589768     1.266184245431

  Mulliken Charges: (a.u.)
   Center  Symbol    Alpha    Beta     Spin     Total
       1     H     0.46463  0.46463  0.00000  0.07074
       2     C     2.90512  2.90512  0.00000  0.18977
       3     C     3.08488  3.08488  0.00000 -0.16977
       4     O     4.16465  4.16465  0.00000 -0.32930
       5     C     3.10139  3.10139  0.00000 -0.20278
       6     H     0.43619  0.43619  0.00000  0.12763
       7     H     0.45126  0.45126  0.00000  0.09748
       8     C     3.14690  3.14690  0.00000 -0.29380
       9     H     0.44934  0.44934  0.00000  0.10131
      10     H     0.44231  0.44231  0.00000  0.11538
      11     H     0.45487  0.45487  0.00000  0.09026
      12     H     0.44549  0.44549  0.00000  0.10901
      13     H     0.45297  0.45297  0.00000  0.09406

   Total alpha = 20.00000, Total beta = 20.00000, Total charge = -0.00000
