  ==> Input File <==

--------------------------------------------------------------------------
set {
	reference rhf
	basis 6-31G*
}

set_num_threads( 1 )
memory 2 gb

molecule MOL {
0 1

O	 -1.335778	 -0.519996	 2.241942
C	 -1.334963	 0.285317	 1.368019
C	 -2.123073	 1.567183	 1.375024
O	 -0.632575	 0.154573	 0.251549
H	 -2.798215	 1.586647	 0.527231
H	 -2.682578	 1.643759	 2.295310
H	 -1.450077	 2.411244	 1.278098
C	 0.160891	 -1.019931	 0.106212
C	 1.589627	 -0.672828	 0.480843
H	 0.089836	 -1.367806	 -0.916050
H	 -0.238459	 -1.792301	 0.749618
C	 2.246377	 0.346236	 -0.452210
H	 2.163194	 -1.597435	 0.473358
H	 1.604769	 -0.303424	 1.502885
C	 3.691736	 0.652107	 -0.061850
H	 2.219579	 -0.032311	 -1.472055
H	 1.666466	 1.263317	 -0.447249
H	 4.134505	 1.377213	 -0.737283
H	 4.305508	 -0.243868	 -0.089969
H	 3.748266	 1.059562	 0.943567

	symmetry c1
}
set optking {
	frozen_dihedral = ("
		16 12 9 8,
		12 9 8 10,
		1 2 4 8
	")
}

ee = energy('scf')
oeprop('DIPOLE', 'QUADRUPOLE', 'MULLIKEN_CHARGES')
f=open( 'psi4out.xyz', 'w' )
f.write( "20  " )
f.write( str(ee) + "\n" )
f.write( MOL.save_string_xyz() )
f.close()
--------------------------------------------------------------------------

    Molecular point group: c1

    Geometry (in Angstrom), charge = 0, multiplicity = 1:

       Center              X                  Y                   Z               Mass
    ------------   -----------------  -----------------  -----------------  -----------------
           O         -1.612700228467    -0.624128004150     1.571604874239    15.994914619560
           C         -1.611885228467     0.181184995850     0.697681874239    12.000000000000
           C         -2.399995228467     1.463050995850     0.704686874239    12.000000000000
           O         -0.909497228467     0.050440995850    -0.418788125761    15.994914619560
           H         -3.075137228467     1.482514995850    -0.143106125761     1.007825032070
           H         -2.959500228467     1.539626995850     1.624972874239     1.007825032070
           H         -1.726999228467     2.307111995850     0.607760874239     1.007825032070
           C         -0.116031228467    -1.124063004150    -0.564125125761    12.000000000000
           C          1.312704771533    -0.776960004150    -0.189494125761    12.000000000000
           H         -0.187086228467    -1.471938004150    -1.586387125761     1.007825032070
           H         -0.515381228467    -1.896433004150     0.079280874239     1.007825032070
           C          1.969454771533     0.242103995850    -1.122547125761    12.000000000000
           H          1.886271771533    -1.701567004150    -0.196979125761     1.007825032070
           H          1.327846771533    -0.407556004150     0.832547874239     1.007825032070
           C          3.414813771533     0.547974995850    -0.732187125761    12.000000000000
           H          1.942656771533    -0.136443004150    -2.142392125761     1.007825032070
           H          1.389543771533     1.159184995850    -1.117586125761     1.007825032070
           H          3.857582771533     1.273080995850    -1.407620125761     1.007825032070
           H          4.028585771533    -0.348000004150    -0.760306125761     1.007825032070
           H          3.471343771533     0.955429995850     0.273229874239     1.007825032070

  Charge       = 0
  Multiplicity = 1
  Basis Set: 6-31G*
  Basis Set:

    Orbital Energies (a.u.)
    -----------------------

    Doubly Occupied:

       1A    -20.601545     2A    -20.544304     3A    -11.376434
       4A    -11.279805     5A    -11.234291     6A    -11.221229
       7A    -11.219022     8A    -11.212020     9A     -1.469055
      10A     -1.363022    11A     -1.083332    12A     -1.028650
      13A     -0.979438    14A     -0.883852    15A     -0.816469
      16A     -0.759592    17A     -0.698666    18A     -0.686589
      19A     -0.660807    20A     -0.629897    21A     -0.596135
      22A     -0.594164    23A     -0.569504    24A     -0.566115
      25A     -0.537657    26A     -0.525694    27A     -0.516438
      28A     -0.489893    29A     -0.473612    30A     -0.463851
      31A     -0.443637    32A     -0.439609

  @DF-RHF Final Energy:  -383.94306740890164

   => Energetics <=

    Nuclear Repulsion Energy =            390.4058625275121699
    One-Electron Energy =               -1296.7692004502125656
    Two-Electron Energy =                 522.4202705137989824
    DFT Exchange-Correlation Energy =       0.0000000000000000
    Empirical Dispersion Energy =           0.0000000000000000
    PCM Polarization Energy =               0.0000000000000000
    EFP Energy =                            0.0000000000000000
    Total Energy =                       -383.9430674089013564

  Mulliken Charges: (a.u.)
   Center  Symbol    Alpha    Beta     Spin     Total
       1     O     4.28435  4.28435  0.00000 -0.56870
       2     C     2.61934  2.61934  0.00000  0.76132
       3     C     3.28219  3.28219  0.00000 -0.56438
       4     O     4.30681  4.30681  0.00000 -0.61363
       5     H     0.39974  0.39974  0.00000  0.20052
       6     H     0.39676  0.39676  0.00000  0.20649
       7     H     0.40078  0.40078  0.00000  0.19843
       8     C     3.01791  3.01791  0.00000 -0.03581
       9     C     3.16383  3.16383  0.00000 -0.32767
      10     H     0.41140  0.41140  0.00000  0.17720
      11     H     0.39268  0.39268  0.00000  0.21463
      12     C     3.15399  3.15399  0.00000 -0.30797
      13     H     0.42084  0.42084  0.00000  0.15831
      14     H     0.41160  0.41160  0.00000  0.17680
      15     C     3.23994  3.23994  0.00000 -0.47989
      16     H     0.42372  0.42372  0.00000  0.15257
      17     H     0.41386  0.41386  0.00000  0.17229
      18     H     0.41814  0.41814  0.00000  0.16372
      19     H     0.42147  0.42147  0.00000  0.15706
      20     H     0.42065  0.42065  0.00000  0.15871

   Total alpha = 32.00000, Total beta = 32.00000, Total charge = -0.00000
