                              Psi4 1.0.54 Driver

  ==> Input File <==

--------------------------------------------------------------------------
set {
	reference rhf
	basis cc-pvtz
}

set_num_threads( 4 )
memory 2 gb

molecule MOL {
0 1

O	 3.219313	 0.959291	 -0.614106
C	 2.698710	 0.058177	 -0.050237
C	 1.246364	 -0.005813	 0.348416
O	 3.344101	 -1.038700	 0.312317
C	 0.453207	 1.232821	 -0.049003
H	 0.839270	 -0.907818	 -0.092281
H	 1.216683	 -0.160521	 1.422434
C	 -0.998367	 1.217982	 0.432195
H	 0.481498	 1.345443	 -1.127236
H	 0.951413	 2.105557	 0.354893
C	 -1.882951	 0.151251	 -0.211235
H	 -1.429490	 2.193659	 0.228843
H	 -1.019755	 1.099323	 1.513279
C	 -3.342450	 0.243269	 0.226009
H	 -1.826223	 0.246578	 -1.293162
H	 -1.508033	 -0.839650	 0.027695
C	 -4.009285	 1.561754	 -0.155699
H	 -3.403304	 0.110567	 1.303518
H	 -3.901401	 -0.580082	 -0.212776
C	 -5.466473	 1.646832	 0.286051
H	 -3.451999	 2.385405	 0.282197
H	 -3.951789	 1.694584	 -1.232689
H	 -5.909419	 2.593836	 -0.000246
H	 -5.554886	 1.552851	 1.363297
H	 -6.058333	 0.855971	 -0.162779
C	 4.720529	 -1.114346	 0.001449
H	 4.874321	 -1.055557	 -1.065852
H	 5.057824	 -2.067950	 0.373977
H	 5.264321	 -0.313596	 0.480350

	symmetry c1
}
set optking {
	frozen_dihedral = ("
		17 14 11 15
	")
}

ee,wfn = optimize('scf', return_wfn=True)
oeprop( wfn, 'DIPOLE', 'QUADRUPOLE', 'MULLIKEN_CHARGES')
f=open( 'psi4out.xyz', 'w' )
f.write( "29  " )
f.write( str(ee) + "\n" )
f.write( MOL.save_string_xyz() )
f.close()
--------------------------------------------------------------------------

    Molecular point group: c1
  Charge       = 0
  Multiplicity = 1
  Basis Set: CC-PVTZ
  Basis Set:
  @DF-RHF Final Energy:  -501.22189243802836
    Total Energy =                       -501.2218924380276803
    Molecular point group: c1
  Basis Set: CC-PVTZ
  Basis Set:
  Basis Set: CC-PVTZ
  Basis Set:
  @DF-RHF Final Energy:  -501.22013532841459
    Total Energy =                       -501.2201353284141305
  Basis Set: CC-PVTZ
  Basis Set:
  Basis Set: CC-PVTZ
  Basis Set:
  @DF-RHF Final Energy:  -501.22275926212296
    Total Energy =                       -501.2227592621233043
  Basis Set: CC-PVTZ
  Basis Set:
  Basis Set: CC-PVTZ
  Basis Set:
  @DF-RHF Final Energy:  -501.22289536711651
    Total Energy =                       -501.2228953671162799
  Basis Set: CC-PVTZ
  Basis Set:
  Basis Set: CC-PVTZ
  Basis Set:
  @DF-RHF Final Energy:  -501.22290047628087
    Total Energy =                       -501.2229004762808700
  Basis Set: CC-PVTZ
  Basis Set:
  Basis Set: CC-PVTZ
  Basis Set:
  @DF-RHF Final Energy:  -501.22283095327884
    Total Energy =                       -501.2228309532787307
  Basis Set: CC-PVTZ
  Basis Set:
  Basis Set: CC-PVTZ
  Basis Set:
  @DF-RHF Final Energy:  -501.22292503783808
    Total Energy =                       -501.2229250378377401
  Basis Set: CC-PVTZ
  Basis Set:
  Charge       = 0
  Multiplicity = 1
  Basis Set: CC-PVTZ
  Basis Set:

    Orbital Energies (a.u.)
    -----------------------

    Doubly Occupied:

       1A    -20.595966     2A    -20.533815     3A    -11.364238
       4A    -11.278228     5A    -11.232841     6A    -11.217082
       7A    -11.215109     8A    -11.214025     9A    -11.213243
      10A    -11.212620    11A    -11.206866    12A     -1.471842
      13A     -1.365451    14A     -1.099138    15A     -1.067048
      16A     -1.018981    17A     -0.977966    18A     -0.929822
      19A     -0.862592    20A     -0.814871    21A     -0.777815
      22A     -0.764032    23A     -0.703148    24A     -0.685268
      25A     -0.675958    26A     -0.637368    27A     -0.630790
      28A     -0.616707    29A     -0.595301    30A     -0.581540
      31A     -0.566453    32A     -0.556813    33A     -0.538801
      34A     -0.527075    35A     -0.524204    36A     -0.499003
      37A     -0.495876    38A     -0.487136    39A     -0.473486
      40A     -0.461151    41A     -0.458479    42A     -0.449323
      43A     -0.443025    44A     -0.439983

  @DF-RHF Final Energy:  -501.22292790832353

   => Energetics <=

    Nuclear Repulsion Energy =            614.1615545322008529
    One-Electron Energy =               -1899.8080100904790015
    Two-Electron Energy =                 784.4235276499546217
    DFT Exchange-Correlation Energy =       0.0000000000000000
    Empirical Dispersion Energy =           0.0000000000000000
    PCM Polarization Energy =               0.0000000000000000
    EFP Energy =                            0.0000000000000000
    Total Energy =                       -501.2229279083235269
    Molecular point group: c1
  Basis Set: CC-PVTZ
  Basis Set:

  -Total Gradient:
     Atom            X                  Y                   Z
    ------   -----------------  -----------------  -----------------
       1       -0.000027502014     0.000043177133    -0.000003507257
       2        0.000007548362    -0.000004051539    -0.000010965560
       3        0.000018528234    -0.000013785902     0.000002455979
       4       -0.000015884201    -0.000040676359     0.000023094912
       5        0.000000354999     0.000001679178    -0.000009010285
       6        0.000004669340     0.000003019465     0.000000022952
       7        0.000007756210     0.000001851575    -0.000001407821
       8        0.000006210838     0.000016307685    -0.000004639700
       9       -0.000002076162     0.000004991807     0.000000488221
      10       -0.000003677707    -0.000003859695     0.000002778559
      11        0.000129671161     0.000987373165     0.000449729863
      12        0.000012694053    -0.000000817109     0.000003482486
      13       -0.000001737613    -0.000000139035    -0.000006109953
      14       -0.000228332382    -0.000414046848    -0.000783884483
      15       -0.000051224984    -0.000749990711    -0.000166968706
      16        0.000000635141    -0.000004538818    -0.000006136137
      17        0.000145417705     0.000166370151     0.000513720913
      18        0.000002876392    -0.000005707473    -0.000002464806
      19        0.000004433061     0.000005486675     0.000001784791
      20        0.000005215549     0.000008300270     0.000006143900
      21       -0.000011451097    -0.000005834454    -0.000004339930
      22       -0.000003519101     0.000000448553     0.000001525277
      23       -0.000002186953    -0.000000324456     0.000002022717
      24        0.000000825012    -0.000000619768    -0.000003441612
      25        0.000001401982     0.000002824848    -0.000002320856
      26        0.000003593015     0.000009620533    -0.000008813619
      27        0.000002524289    -0.000002527964     0.000005637962
      28       -0.000007090438     0.000000178132     0.000002504554
      29        0.000000327314    -0.000004709035    -0.000001382364

  **** Optimization is complete! (in 8 steps) ****
    Final optimized geometry and variables:
    Molecular point group: c1

    Geometry (in Angstrom), charge = 0, multiplicity = 1:

    O            3.242589010788     0.496552905317    -0.546017294814
    C            2.670019167191    -0.420564039600    -0.064275270757
    C            1.203942028883    -0.454560684345     0.284831906817
    O            3.261222551056    -1.565389290866     0.237540562681
    C            0.472668059021     0.841184126199    -0.043705013572
    H            0.778552226379    -1.305827760457    -0.232508738233
    H            1.133321607067    -0.684745881318     1.343264127483
    C           -0.994985514416     0.854612725876     0.389209025201
    H            0.542847401166     1.032505548200    -1.108892416513
    H            0.991055588897     1.659793576972     0.440172171055
    C           -1.898113038672    -0.102777536798    -0.388461387314
    H           -1.362043903521     1.867713697056     0.274197677018
    H           -1.060782252299     0.627395863329     1.451455861462
    C           -3.360846738197    -0.116019121199     0.061546789891
    H           -1.851153519482     0.139820566367    -1.447818293264
    H           -1.516466058935    -1.114662103363    -0.297329371153
    C           -4.112110629668     1.202070347835    -0.117969538980
    H           -3.410260106860    -0.413371600680     1.106866103363
    H           -3.881355797641    -0.890086508941    -0.495715870612
    C           -5.591373701510     1.088273544750     0.237034615779
    H           -3.661538989933     1.974656641079     0.495212899312
    H           -4.014187765940     1.533146689158    -1.148802556149
    H           -6.100648702740     2.036299979671     0.107139297592
    H           -5.723016880262     0.781523332098     1.269503758723
    H           -6.089815429461     0.356194309200    -0.389573786891
    C            4.643236275774    -1.674016313475    -0.036600308406
    H            4.834044156342    -1.546023304167    -1.091798858578
    H            4.931795014550    -2.664376127702     0.276197485049
    H            5.201036207728    -0.931682851652     0.514815184738

  Mulliken Charges: (a.u.)
   Center  Symbol    Alpha    Beta     Spin     Total
       1     O     4.19706  4.19706  0.00000 -0.39411
       2     C     2.80482  2.80482  0.00000  0.39036
       3     C     3.10144  3.10144  0.00000 -0.20288
       4     O     4.14720  4.14720  0.00000 -0.29441
       5     C     3.09107  3.09107  0.00000 -0.18214
       6     H     0.43941  0.43941  0.00000  0.12117
       7     H     0.43996  0.43996  0.00000  0.12009
       8     C     3.10678  3.10678  0.00000 -0.21355
       9     H     0.44610  0.44610  0.00000  0.10781
      10     H     0.43960  0.43960  0.00000  0.12079
      11     C     3.10206  3.10206  0.00000 -0.20413
      12     H     0.44200  0.44200  0.00000  0.11599
      13     H     0.45394  0.45394  0.00000  0.09213
      14     C     3.09355  3.09355  0.00000 -0.18710
      15     H     0.45185  0.45185  0.00000  0.09629
      16     H     0.44763  0.44763  0.00000  0.10474
      17     C     3.08613  3.08613  0.00000 -0.17226
      18     H     0.45400  0.45400  0.00000  0.09200
      19     H     0.44883  0.44883  0.00000  0.10235
      20     C     3.14999  3.14999  0.00000 -0.29999
      21     H     0.45278  0.45278  0.00000  0.09444
      22     H     0.45385  0.45385  0.00000  0.09229
      23     H     0.44819  0.44819  0.00000  0.10362
      24     H     0.45519  0.45519  0.00000  0.08961
      25     H     0.45458  0.45458  0.00000  0.09085
      26     C     3.03812  3.03812  0.00000 -0.07624
      27     H     0.45434  0.45434  0.00000  0.09131
      28     H     0.44528  0.44528  0.00000  0.10944
      29     H     0.45424  0.45424  0.00000  0.09152

   Total alpha = 44.00000, Total beta = 44.00000, Total charge = -0.00000

*** Psi4 exiting successfully. Buy a developer a beer!
