                              Psi4 1.0.54 Driver

  ==> Input File <==

--------------------------------------------------------------------------
set {
	reference rhf
	basis cc-pvtz
}

set_num_threads( 4 )
memory 2 gb

molecule MOL {
0 1

H	 -1.875448	 0.780214	 -0.853968
N	 -1.851927	 0.161443	 -0.071573
C	 -0.561396	 -0.500007	 0.035200
H	 -2.584443	 -0.504943	 -0.200745
C	 0.575129	 0.507849	 -0.048832
H	 -0.478089	 -1.200753	 -0.788956
H	 -0.456191	 -1.081816	 0.952176
C	 1.951750	 -0.141983	 0.035101
H	 0.478254	 1.061643	 -0.975981
H	 0.467676	 1.231891	 0.755499
H	 2.101550	 -0.848142	 -0.774949
H	 2.738260	 0.600794	 -0.026526
H	 2.078939	 -0.679792	 0.968824

	symmetry c1
}
set optking {
	frozen_dihedral = ("
		1 2 3 6
	")
}

ee,wfn = optimize('scf', return_wfn=True)
oeprop( wfn, 'DIPOLE', 'QUADRUPOLE', 'MULLIKEN_CHARGES')
f=open( 'psi4out.xyz', 'w' )
f.write( "13  " )
f.write( str(ee) + "\n" )
f.write( MOL.save_string_xyz() )
f.close()
--------------------------------------------------------------------------

    Molecular point group: c1
  Charge       = 0
  Multiplicity = 1
  Basis Set: CC-PVTZ
  Basis Set:
  @DF-RHF Final Energy:  -173.35035016345122
    Total Energy =                       -173.3503501634514237
    Molecular point group: c1
  Basis Set: CC-PVTZ
  Basis Set:
  Basis Set: CC-PVTZ
  Basis Set:
  @DF-RHF Final Energy:  -173.35207773580277
    Total Energy =                       -173.3520777358027942
  Basis Set: CC-PVTZ
  Basis Set:
  Basis Set: CC-PVTZ
  Basis Set:
  @DF-RHF Final Energy:  -173.35231723256274
    Total Energy =                       -173.3523172325629105
  Basis Set: CC-PVTZ
  Basis Set:
  Basis Set: CC-PVTZ
  Basis Set:
  @DF-RHF Final Energy:  -173.35232224965242
    Total Energy =                       -173.3523222496524170
  Basis Set: CC-PVTZ
  Basis Set:
  Charge       = 0
  Multiplicity = 1
  Basis Set: CC-PVTZ
  Basis Set:

    Orbital Energies (a.u.)
    -----------------------

    Doubly Occupied:

       1A    -15.525802     2A    -11.238033     3A    -11.212253
       4A    -11.207896     5A     -1.178024     6A     -1.037105
       7A     -0.899553     8A     -0.802139     9A     -0.658286
      10A     -0.636758    11A     -0.604555    12A     -0.563776
      13A     -0.535366    14A     -0.493722    15A     -0.476716
      16A     -0.470182    17A     -0.382993

  @DF-RHF Final Energy:  -173.35232281832819

   => Energetics <=

    Nuclear Repulsion Energy =            132.0584951282365012
    One-Electron Energy =                -494.9753171199005237
    Two-Electron Energy =                 189.5644991733356619
    DFT Exchange-Correlation Energy =       0.0000000000000000
    Empirical Dispersion Energy =           0.0000000000000000
    PCM Polarization Energy =               0.0000000000000000
    EFP Energy =                            0.0000000000000000
    Total Energy =                       -173.3523228183283891
    Molecular point group: c1
  Basis Set: CC-PVTZ
  Basis Set:

  -Total Gradient:
     Atom            X                  Y                   Z
    ------   -----------------  -----------------  -----------------
       1        0.000501590401     0.001145379616     0.000937991630
       2       -0.000843521473    -0.001734244160    -0.000924567170
       3        0.000983417956     0.001669216639    -0.000819155126
       4        0.000002900141    -0.000001461459    -0.000014273664
       5       -0.000041614488    -0.000047782941     0.000009236878
       6       -0.000614556636    -0.001029603859     0.000811009603
       7        0.000006067743     0.000026360030    -0.000002014945
       8        0.000025085350     0.000014367003     0.000001867700
       9       -0.000007681241    -0.000027681605     0.000020832635
      10       -0.000004289805    -0.000026620623    -0.000011155857
      11       -0.000012526687     0.000008753408     0.000010842475
      12        0.000013292476    -0.000010817217    -0.000000807582
      13       -0.000008163736     0.000014135167    -0.000019806577

  **** Optimization is complete! (in 5 steps) ****
    Final optimized geometry and variables:
    Molecular point group: c1

    Geometry (in Angstrom), charge = 0, multiplicity = 1:

    H           -1.868502367957     0.761908485475    -0.916711707602
    N           -1.850605637531     0.134817383456    -0.140212210853
    C           -0.554161266505    -0.511500928809    -0.019628017423
    H           -2.582051548622    -0.530593471702    -0.269765510036
    C            0.565484712215     0.516431923973     0.021232840253
    H           -0.360462678167    -1.228651863856    -0.818666086008
    H           -0.549132375808    -1.077992555746     0.906321433355
    C            1.942682036153    -0.112781911447     0.198492556620
    H            0.549762428362     1.096334614687    -0.898736423364
    H            0.366823188493     1.212591275586     0.828782182405
    H            2.172438865589    -0.794773023638    -0.613369427241
    H            2.717359040088     0.644465471884     0.221728365868
    H            2.000719864874    -0.672326497123     1.126049524955

  Mulliken Charges: (a.u.)
   Center  Symbol    Alpha    Beta     Spin     Total
       1     H     0.43052  0.43052  0.00000  0.13895
       2     N     3.69098  3.69098  0.00000 -0.38195
       3     C     3.01795  3.01795  0.00000 -0.03589
       4     H     0.42981  0.42981  0.00000  0.14038
       5     C     3.08071  3.08071  0.00000 -0.16142
       6     H     0.47061  0.47061  0.00000  0.05878
       7     H     0.45895  0.45895  0.00000  0.08209
       8     C     3.15228  3.15228  0.00000 -0.30457
       9     H     0.46064  0.46064  0.00000  0.07871
      10     H     0.44861  0.44861  0.00000  0.10277
      11     H     0.45664  0.45664  0.00000  0.08672
      12     H     0.44779  0.44779  0.00000  0.10442
      13     H     0.45449  0.45449  0.00000  0.09101

   Total alpha = 17.00000, Total beta = 17.00000, Total charge = -0.00000

*** Psi4 exiting successfully. Buy a developer a beer!
