                              Psi4 1.0.54 Driver

  ==> Input File <==

--------------------------------------------------------------------------
set {
	reference rhf
	basis cc-pvtz
}

set_num_threads( 4 )
memory 2 gb

molecule MOL {
0 1

H	 3.874424	 0.386485	 -0.269994
N	 3.080528	 -0.217497	 -0.246491
C	 1.860978	 0.530248	 0.016256
H	 3.245629	 -0.893133	 0.470172
C	 0.644130	 -0.381765	 -0.031064
H	 1.767371	 1.291595	 -0.750879
H	 1.881272	 1.051998	 0.974024
C	 -0.678115	 0.376691	 0.025731
H	 0.693998	 -0.977147	 -0.936845
H	 0.693309	 -1.082142	 0.800523
C	 -1.900706	 -0.535531	 -0.022488
H	 -0.725296	 1.079516	 -0.802982
H	 -0.715474	 0.974884	 0.933278
C	 -3.220513	 0.226854	 0.028039
H	 -1.865036	 -1.134397	 -0.928236
H	 -1.857948	 -1.236381	 0.806820
H	 -3.309098	 0.911849	 -0.808725
H	 -4.066838	 -0.449485	 -0.008086
H	 -3.301685	 0.809374	 0.939860

	symmetry c1
}
set optking {
	frozen_dihedral = ("
		6 3 5 9
	")
}

ee,wfn = optimize('scf', return_wfn=True)
oeprop( wfn, 'DIPOLE', 'QUADRUPOLE', 'MULLIKEN_CHARGES')
f=open( 'psi4out.xyz', 'w' )
f.write( "19  " )
f.write( str(ee) + "\n" )
f.write( MOL.save_string_xyz() )
f.close()
--------------------------------------------------------------------------

    Molecular point group: c1
  Charge       = 0
  Multiplicity = 1
  Basis Set: CC-PVTZ
  Basis Set:
  @DF-RHF Final Energy:  -251.44790443776907
    Total Energy =                       -251.4479044377689547
    Molecular point group: c1
  Basis Set: CC-PVTZ
  Basis Set:
  Basis Set: CC-PVTZ
  Basis Set:
  @DF-RHF Final Energy:  -251.44793361271715
    Total Energy =                       -251.4479336127169518
  Basis Set: CC-PVTZ
  Basis Set:
  Basis Set: CC-PVTZ
  Basis Set:
  @DF-RHF Final Energy:  -251.44794419817183
    Total Energy =                       -251.4479441981719674
  Basis Set: CC-PVTZ
  Basis Set:
  Charge       = 0
  Multiplicity = 1
  Basis Set: CC-PVTZ
  Basis Set:

    Orbital Energies (a.u.)
    -----------------------

    Doubly Occupied:

       1A    -15.526632     2A    -11.237862     3A    -11.211905
       4A    -11.210594     5A    -11.207615     6A    -11.205445
       7A     -1.178328     8A     -1.074343     9A     -0.999640
      10A     -0.901025    11A     -0.813409    12A     -0.789914
      13A     -0.664057    14A     -0.645407    15A     -0.617064
      16A     -0.591114    17A     -0.564082    18A     -0.549164
      19A     -0.532439    20A     -0.497445    21A     -0.480744
      22A     -0.465208    23A     -0.461217    24A     -0.451593
      25A     -0.383764

  @DF-RHF Final Energy:  -251.44794441476193

   => Energetics <=

    Nuclear Repulsion Energy =            246.0430140927573461
    One-Electron Energy =                -826.4618898015146442
    Two-Electron Energy =                 328.9709312939957044
    DFT Exchange-Correlation Energy =       0.0000000000000000
    Empirical Dispersion Energy =           0.0000000000000000
    PCM Polarization Energy =               0.0000000000000000
    EFP Energy =                            0.0000000000000000
    Total Energy =                       -251.4479444147615368
    Molecular point group: c1
  Basis Set: CC-PVTZ
  Basis Set:

  -Total Gradient:
     Atom            X                  Y                   Z
    ------   -----------------  -----------------  -----------------
       1       -0.000016522255    -0.000000570024     0.000003430043
       2        0.000026304751    -0.000024259000    -0.000027939490
       3        0.001077489866    -0.001386114294    -0.001042098785
       4       -0.000002440916     0.000013557141     0.000006419639
       5       -0.001141516067     0.001578816517    -0.000678285695
       6       -0.000737619220     0.000913555368     0.001022858338
       7       -0.000002830586     0.000011185856    -0.000006995964
       8        0.000000863288     0.000010764238    -0.000039414752
       9        0.000769476500    -0.001094427315     0.000772860667
      10        0.000016595840    -0.000012770763    -0.000004734042
      11        0.000003610520    -0.000004434241    -0.000016158062
      12       -0.000000948758    -0.000002175756    -0.000001215659
      13        0.000009082756    -0.000008860257    -0.000011162198
      14       -0.000006280335    -0.000001624170     0.000020262866
      15        0.000002088505     0.000009450516    -0.000001907062
      16        0.000002696704    -0.000002668649    -0.000005563955
      17        0.000003987650    -0.000009835045     0.000002422100
      18        0.000001187468     0.000004179856     0.000007167937
      19       -0.000005225711     0.000006230024     0.000000054075

  **** Optimization is complete! (in 4 steps) ****
    Final optimized geometry and variables:
    Molecular point group: c1

    Geometry (in Angstrom), charge = 0, multiplicity = 1:

    H            3.882160529590     0.381483633665    -0.186819708295
    N            3.086509029036    -0.220679949638    -0.195595920523
    C            1.862591773837     0.526721003177     0.044085283084
    H            3.229549911210    -0.906232782730     0.516566088276
    C            0.643916864807    -0.382424216254    -0.021724482256
    H            1.779607270714     1.294921054533    -0.717533452230
    H            1.864906850973     1.047237091979     1.003109879940
    C           -0.678238653754     0.374353184456     0.043602595508
    H            0.701032763611    -0.971001202633    -0.931529910418
    H            0.691039625461    -1.094152348254     0.800799870991
    C           -1.900015589521    -0.539656404171     0.014798583684
    H           -0.734474367588     1.071143269554    -0.789351121171
    H           -0.706609523151     0.978587541530     0.947603556941
    C           -3.220073259221     0.221595856616     0.074205937952
    H           -1.873091151752    -1.144559214876    -0.887230618396
    H           -1.847613075756    -1.234573132868     0.848474351643
    H           -3.318983027249     0.899625109541    -0.767022237550
    H           -4.065916216666    -0.456014356674     0.053242891078
    H           -3.291523875558     0.811355949465     0.982192189225

  Mulliken Charges: (a.u.)
   Center  Symbol    Alpha    Beta     Spin     Total
       1     H     0.43040  0.43040  0.00000  0.13920
       2     N     3.68831  3.68831  0.00000 -0.37662
       3     C     3.02637  3.02637  0.00000 -0.05274
       4     H     0.43108  0.43108  0.00000  0.13784
       5     C     3.08335  3.08335  0.00000 -0.16670
       6     H     0.45797  0.45797  0.00000  0.08405
       7     H     0.46853  0.46853  0.00000  0.06294
       8     C     3.09246  3.09246  0.00000 -0.18492
       9     H     0.44855  0.44855  0.00000  0.10290
      10     H     0.46034  0.46034  0.00000  0.07933
      11     C     3.08329  3.08329  0.00000 -0.16658
      12     H     0.45448  0.45448  0.00000  0.09104
      13     H     0.45682  0.45682  0.00000  0.08636
      14     C     3.14995  3.14995  0.00000 -0.29990
      15     H     0.45374  0.45374  0.00000  0.09252
      16     H     0.45502  0.45502  0.00000  0.08997
      17     H     0.45513  0.45513  0.00000  0.08975
      18     H     0.44855  0.44855  0.00000  0.10290
      19     H     0.45567  0.45567  0.00000  0.08866

   Total alpha = 25.00000, Total beta = 25.00000, Total charge = -0.00000

*** Psi4 exiting successfully. Buy a developer a beer!
