  ==> Input File <==

--------------------------------------------------------------------------
set {
	reference rhf
	basis cc-pvtz
}

set_num_threads( 4 )
memory 2 gb

molecule MOL {
0 1

H	 -2.698799	 -0.000846	 0.036018
C	 -1.694291	 -0.000483	 0.434279
O	 -0.828718	 -0.000608	 -0.655022
H	 -1.576855	 0.881100	 1.056504
H	 -1.576401	 -0.881658	 1.057001
C	 -0.076922	 1.156964	 -0.924664
C	 -0.951147	 2.350542	 -1.292594
C	 0.912407	 1.485116	 0.187898
H	 0.493547	 0.882455	 -1.803202
H	 -1.666122	 2.072650	 -2.057215
H	 -0.333673	 3.152862	 -1.679575
H	 -1.494238	 2.739444	 -0.439135
H	 1.489855	 0.607089	 0.449942
H	 1.597575	 2.256063	 -0.145207
H	 0.418757	 1.850944	 1.080659

	symmetry c1
}
set optking {
	frozen_dihedral = ("
		6 3 2 1
	")
}

ee = optimize('scf')
oeprop('DIPOLE', 'QUADRUPOLE', 'MULLIKEN_CHARGES')
f=open( 'psi4out.xyz', 'w' )
f.write( "15  " )
f.write( str(ee) + "\n" )
f.write( MOL.save_string_xyz() )
f.close()
--------------------------------------------------------------------------

    Molecular point group: c1
  Charge       = 0
  Multiplicity = 1
  Basis Set: CC-PVTZ
  Basis Set:
  @DF-RHF Final Energy:  -232.22295310245576
    Total Energy =                       -232.2229531024557900
    Molecular point group: c1
  Basis Set: CC-PVTZ
  Basis Set:
  Basis Set: CC-PVTZ
  Basis Set:
  @DF-RHF Final Energy:  -232.22379213813198
    Total Energy =                       -232.2237921381319552
  Basis Set: CC-PVTZ
  Basis Set:
  Basis Set: CC-PVTZ
  Basis Set:
  @DF-RHF Final Energy:  -232.22403177538357
    Total Energy =                       -232.2240317753834802
  Basis Set: CC-PVTZ
  Basis Set:
  Basis Set: CC-PVTZ
  Basis Set:
  @DF-RHF Final Energy:  -232.22402700456860
    Total Energy =                       -232.2240270045683701
  Basis Set: CC-PVTZ
  Basis Set:
  Basis Set: CC-PVTZ
  Basis Set:
  @DF-RHF Final Energy:  -232.22405303538872
    Total Energy =                       -232.2240530353886925
  Basis Set: CC-PVTZ
  Basis Set:
  Charge       = 0
  Multiplicity = 1
  Basis Set: CC-PVTZ
  Basis Set:

    Orbital Energies (a.u.)
    -----------------------

    Doubly Occupied:

       1A    -20.539535     2A    -11.273206     3A    -11.258899
       4A    -11.208818     5A    -11.208365     6A     -1.371292
       7A     -1.051021     8A     -0.940381     9A     -0.931723
      10A     -0.781765    11A     -0.677264    12A     -0.640277
      13A     -0.633691    14A     -0.570505    15A     -0.563533
      16A     -0.552542    17A     -0.537937    18A     -0.501413
      19A     -0.498442    20A     -0.443625    21A     -0.405963

  @DF-RHF Final Energy:  -232.22405385430471

   => Energetics <=

    Nuclear Repulsion Energy =            198.8971667725256225
    One-Electron Energy =                -709.0620466354412201
    Two-Electron Energy =                 277.9408260086107134
    DFT Exchange-Correlation Energy =       0.0000000000000000
    Empirical Dispersion Energy =           0.0000000000000000
    PCM Polarization Energy =               0.0000000000000000
    EFP Energy =                            0.0000000000000000
    Total Energy =                       -232.2240538543048842
    Molecular point group: c1
  Basis Set: CC-PVTZ
  Basis Set:

  -Total Gradient:
     Atom            X                  Y                   Z
    ------   -----------------  -----------------  -----------------
       1        0.000031356478    -0.001201825031     0.000016920364
       2        0.000347392318     0.001362937281     0.000250532145
       3       -0.001085309848     0.000258955680    -0.000872772177
       4        0.000021350915     0.000027256678    -0.000020497477
       5       -0.000004889703    -0.000010244476     0.000012141965
       6        0.000791100517    -0.000360451343     0.000507866923
       7       -0.000034099027    -0.000035504979     0.000063911606
       8       -0.000047609026    -0.000002598974     0.000014793301
       9        0.000020332056    -0.000005933491    -0.000013162389
      10       -0.000003524574    -0.000005325083     0.000010470994
      11        0.000014061492    -0.000020920833     0.000002875051
      12       -0.000025952819     0.000008931267     0.000017677174
      13       -0.000006759879    -0.000004131523     0.000006568345
      14       -0.000016471532    -0.000014697453    -0.000006525647
      15       -0.000000977368     0.000003552283     0.000009199823

  **** Optimization is complete! (in 6 steps) ****
    Final optimized geometry and variables:
    Molecular point group: c1

    Geometry (in Angstrom), charge = 0, multiplicity = 1:

    H           -2.198741553979    -1.001064067481     0.484590436648
    C           -1.180565171232    -0.975110488154     0.858300011060
    O           -0.275065711340    -0.993755890779    -0.203364983336
    H           -1.072304725884    -0.107340264094     1.496001623048
    H           -1.022361115886    -1.857970508172     1.465655061989
    C            0.474385494180     0.160228483914    -0.490754090846
    C           -0.406679631363     1.347122920376    -0.863014228369
    C            1.473674387425     0.491050454690     0.611990764320
    H            1.038688331626    -0.121066823724    -1.371180380270
    H           -1.096798041048     1.069117092622    -1.650118824878
    H            0.204724315156     2.167893773619    -1.220017133501
    H           -0.981154659411     1.709035403886    -0.017852185417
    H            2.070103341703    -0.381288548060     0.848681100070
    H            2.139565679166     1.281311574659     0.284447098707
    H            0.987607545520     0.828844458361     1.519930144113

  Mulliken Charges: (a.u.)
   Center  Symbol    Alpha    Beta     Spin     Total
       1     H     0.45712  0.45712  0.00000  0.08576
       2     C     3.03883  3.03883  0.00000 -0.07766
       3     O     4.18745  4.18745  0.00000 -0.37491
       4     H     0.46921  0.46921  0.00000  0.06158
       5     H     0.45020  0.45020  0.00000  0.09961
       6     C     2.93945  2.93945  0.00000  0.12110
       7     C     3.15497  3.15497  0.00000 -0.30995
       8     C     3.15474  3.15474  0.00000 -0.30948
       9     H     0.44607  0.44607  0.00000  0.10786
      10     H     0.44498  0.44498  0.00000  0.11003
      11     H     0.45016  0.45016  0.00000  0.09968
      12     H     0.45571  0.45571  0.00000  0.08858
      13     H     0.44480  0.44480  0.00000  0.11039
      14     H     0.45085  0.45085  0.00000  0.09830
      15     H     0.45544  0.45544  0.00000  0.08911

   Total alpha = 21.00000, Total beta = 21.00000, Total charge =  0.00000
