                              Psi4 1.0.54 Driver

  ==> Input File <==

--------------------------------------------------------------------------
set {
	reference rhf
	basis cc-pvtz
}

set_num_threads( 4 )
memory 2 gb

molecule MOL {
0 1

O	 -1.313501	 0.131292	 -1.042193
C	 -1.081510	 0.147522	 0.122720
C	 0.327029	 -0.064006	 0.641890
C	 -2.172597	 0.359541	 1.144898
C	 1.349460	 -0.017068	 -0.500215
H	 0.399029	 -1.014606	 1.159950
H	 0.538021	 0.726928	 1.350471
C	 2.779782	 -0.209014	 -0.009215
H	 1.115007	 -0.782959	 -1.233891
H	 1.259071	 0.936707	 -1.006644
H	 3.481860	 -0.160270	 -0.833072
H	 2.903471	 -1.171535	 0.475559
H	 3.052569	 0.559584	 0.705428
H	 -2.131440	 -0.404966	 1.912746
H	 -3.138928	 0.350185	 0.664675
H	 -2.020987	 1.315371	 1.636075

	symmetry c1
}
set optking {
	frozen_dihedral = ("
		4 2 3 5
	")
}

ee,wfn = optimize('scf', return_wfn=True)
oeprop( wfn, 'DIPOLE', 'QUADRUPOLE', 'MULLIKEN_CHARGES')
f=open( 'psi4out.xyz', 'w' )
f.write( "16  " )
f.write( str(ee) + "\n" )
f.write( MOL.save_string_xyz() )
f.close()
--------------------------------------------------------------------------

    Molecular point group: c1
  Charge       = 0
  Multiplicity = 1
  Basis Set: CC-PVTZ
  Basis Set:
  @DF-RHF Final Energy:  -270.12994198597187
    Total Energy =                       -270.1299419859717545
    Molecular point group: c1
  Basis Set: CC-PVTZ
  Basis Set:
  Basis Set: CC-PVTZ
  Basis Set:
  @DF-RHF Final Energy:  -270.13040604022399
    Total Energy =                       -270.1304060402239884
  Basis Set: CC-PVTZ
  Basis Set:
  Basis Set: CC-PVTZ
  Basis Set:
  @DF-RHF Final Energy:  -270.13099153917068
    Total Energy =                       -270.1309915391706795
  Basis Set: CC-PVTZ
  Basis Set:
  Basis Set: CC-PVTZ
  Basis Set:
  @DF-RHF Final Energy:  -270.13112253930313
    Total Energy =                       -270.1311225393032487
  Basis Set: CC-PVTZ
  Basis Set:
  @DF-RHF Final Energy:  -270.13114837767534
    Total Energy =                       -270.1311483776751743
  Basis Set: CC-PVTZ
  Basis Set:
  @DF-RHF Final Energy:  -270.13115733098044
    Total Energy =                       -270.1311573309802725
  Basis Set: CC-PVTZ
  Basis Set:
  Basis Set: CC-PVTZ
  Basis Set:
  @DF-RHF Final Energy:  -270.13115522665356
    Total Energy =                       -270.1311552266536182
  Basis Set: CC-PVTZ
  Basis Set:
  Basis Set: CC-PVTZ
  Basis Set:
  @DF-RHF Final Energy:  -270.13115784627621
    Total Energy =                       -270.1311578462760394
  Basis Set: CC-PVTZ
  Basis Set:
  Charge       = 0
  Multiplicity = 1
  Basis Set: CC-PVTZ
  Basis Set:

    Orbital Energies (a.u.)
    -----------------------

    Doubly Occupied:

       1A    -20.539114     2A    -11.321079     3A    -11.230951
       4A    -11.227139     5A    -11.218293     6A    -11.212192
       7A     -1.399358     8A     -1.078727     9A     -1.016815
      10A     -0.947830    11A     -0.825322    12A     -0.733205
      13A     -0.657248    14A     -0.651744    15A     -0.627664
      16A     -0.599627    17A     -0.567683    18A     -0.560938
      19A     -0.546688    20A     -0.502416    21A     -0.494659
      22A     -0.484317    23A     -0.477389    24A     -0.403308

  @DF-RHF Final Energy:  -270.13115802748274

   => Energetics <=

    Nuclear Repulsion Energy =            237.2356466000442765
    One-Electron Energy =                -836.0861949340513775
    Two-Electron Energy =                 328.7193903065243035
    DFT Exchange-Correlation Energy =       0.0000000000000000
    Empirical Dispersion Energy =           0.0000000000000000
    PCM Polarization Energy =               0.0000000000000000
    EFP Energy =                            0.0000000000000000
    Total Energy =                       -270.1311580274827406
    Molecular point group: c1
  Basis Set: CC-PVTZ
  Basis Set:

  -Total Gradient:
     Atom            X                  Y                   Z
    ------   -----------------  -----------------  -----------------
       1        0.000010809330    -0.000007428179     0.000033966791
       2       -0.000101440887    -0.000358440689    -0.000040794798
       3        0.000003795861    -0.000284001861    -0.000050121061
       4        0.000054512945     0.000375491543    -0.000008496495
       5        0.000026809145     0.000305390552     0.000049865179
       6       -0.000001379083    -0.000010735573     0.000001876126
       7        0.000002020170    -0.000008684094     0.000003950911
       8        0.000004984406     0.000006381474    -0.000005681992
       9        0.000002172942    -0.000001570212    -0.000002040222
      10        0.000000596181     0.000008523976    -0.000005805709
      11       -0.000002370895     0.000001224639    -0.000000864219
      12       -0.000000390500    -0.000005025078     0.000001729976
      13        0.000002578498     0.000004624770     0.000005122875
      14        0.000001741547    -0.000020758282     0.000005597653
      15       -0.000008212862    -0.000007742557    -0.000006902612
      16        0.000003773203     0.000002749572     0.000018597596

  **** Optimization is complete! (in 9 steps) ****
    Final optimized geometry and variables:
    Molecular point group: c1

    Geometry (in Angstrom), charge = 0, multiplicity = 1:

    O           -1.365776781561     0.099366987242    -1.100887672277
    C           -1.080420339588     0.081613926311     0.051542075289
    C            0.343586330864    -0.116450623273     0.530062748658
    C           -2.128093043810     0.261516857266     1.126353156755
    C            1.392948058819    -0.053929255088    -0.571134337582
    H            0.376498461912    -1.079797160811     1.035720456590
    H            0.548006577921     0.621754224889     1.301544548143
    C            2.805763245471    -0.272702122070    -0.040508628762
    H            1.161351851792    -0.795350217336    -1.325251561746
    H            1.330760500900     0.907922977924    -1.067162651823
    H            3.532610402838    -0.221011866864    -0.842307629469
    H            2.903869181058    -1.245184807585     0.431027461749
    H            3.073167661718     0.478530668235     0.695634836839
    H           -2.037340833933    -0.505600388951     1.886852502213
    H           -3.113706282284     0.232520751123     0.687741229123
    H           -1.980489465429     1.219291638788     1.614452002621

  Mulliken Charges: (a.u.)
   Center  Symbol    Alpha    Beta     Spin     Total
       1     O     4.17097  4.17097  0.00000 -0.34194
       2     C     2.86244  2.86244  0.00000  0.27513
       3     C     3.10651  3.10651  0.00000 -0.21303
       4     C     3.15139  3.15139  0.00000 -0.30278
       5     C     3.07966  3.07966  0.00000 -0.15931
       6     H     0.44535  0.44535  0.00000  0.10929
       7     H     0.44688  0.44688  0.00000  0.10625
       8     C     3.15005  3.15005  0.00000 -0.30009
       9     H     0.44409  0.44409  0.00000  0.11183
      10     H     0.44857  0.44857  0.00000  0.10285
      11     H     0.44569  0.44569  0.00000  0.10862
      12     H     0.45605  0.45605  0.00000  0.08790
      13     H     0.45672  0.45672  0.00000  0.08656
      14     H     0.45107  0.45107  0.00000  0.09786
      15     H     0.43562  0.43562  0.00000  0.12875
      16     H     0.44894  0.44894  0.00000  0.10211

   Total alpha = 24.00000, Total beta = 24.00000, Total charge = -0.00000

*** Psi4 exiting successfully. Buy a developer a beer!
