                              Psi4 1.0.54 Driver

  ==> Input File <==

--------------------------------------------------------------------------
set {
	reference rhf
	basis cc-pvtz
}

set_num_threads( 4 )
memory 2 gb

molecule MOL {
0 1

H	 2.614283	 2.028610	 0.296620
O	 3.358864	 1.662087	 -0.142800
C	 3.565468	 0.338079	 0.273842
C	 2.533667	 -0.637565	 -0.272227
H	 4.548038	 0.064914	 -0.086598
H	 3.593945	 0.282242	 1.360360
C	 1.114816	 -0.402372	 0.240993
H	 2.544552	 -0.580764	 -1.356576
H	 2.850574	 -1.642962	 -0.005497
C	 0.113298	 -1.420414	 -0.302504
H	 0.796373	 0.598427	 -0.031033
H	 1.113377	 -0.446476	 1.328807
C	 0.094754	 -1.558948	 -1.825894
H	 0.313747	 -2.391489	 0.143659
H	 -0.881735	 -1.135957	 0.028350
C	 1.361217	 -2.156672	 -2.436256
H	 -0.749715	 -2.184831	 -2.100975
H	 -0.094432	 -0.585172	 -2.272127
C	 1.255746	 -2.366472	 -3.944655
H	 1.573999	 -3.109803	 -1.956952
H	 2.213397	 -1.515893	 -2.230843
C	 2.519876	 -2.959637	 -4.557862
H	 0.412602	 -3.017710	 -4.158139
H	 1.034787	 -1.416608	 -4.424235
H	 2.750207	 -3.925992	 -4.121578
H	 2.410413	 -3.097864	 -5.627450
H	 3.375462	 -2.312658	 -4.394327

	symmetry c1
}
set optking {
	frozen_dihedral = ("
		14 10 7 4
	")
}

ee,wfn = optimize('scf', return_wfn=True)
oeprop( wfn, 'DIPOLE', 'QUADRUPOLE', 'MULLIKEN_CHARGES')
f=open( 'psi4out.xyz', 'w' )
f.write( "27  " )
f.write( str(ee) + "\n" )
f.write( MOL.save_string_xyz() )
f.close()
--------------------------------------------------------------------------

    Molecular point group: c1
  Charge       = 0
  Multiplicity = 1
  Basis Set: CC-PVTZ
  Basis Set:
  @DF-RHF Final Energy:  -388.39903628200653
    Total Energy =                       -388.3990362820071596
    Molecular point group: c1
  Basis Set: CC-PVTZ
  Basis Set:
  Basis Set: CC-PVTZ
  Basis Set:
  @DF-RHF Final Energy:  -388.18596887112466
    Total Energy =                       -388.1859688711244871
  Basis Set: CC-PVTZ
  Basis Set:
  Basis Set: CC-PVTZ
  Basis Set:
  @DF-RHF Final Energy:  -388.32073330140520
    Total Energy =                       -388.3207333014054257
  Basis Set: CC-PVTZ
  Basis Set:
  Basis Set: CC-PVTZ
  Basis Set:
  @DF-RHF Final Energy:  -388.41316299837251
    Total Energy =                       -388.4131629983720586
  Basis Set: CC-PVTZ
  Basis Set:
  @DF-RHF Final Energy:  -388.42065880958091
    Total Energy =                       -388.4206588095801180
  @DF-RHF Final Energy:  -388.41355464579601
    Total Energy =                       -388.4135546457956707
  @DF-RHF Final Energy:  -388.42224379101668
    Total Energy =                       -388.4222437910162853
  @DF-RHF Final Energy:  -388.42164919284158
    Total Energy =                       -388.4216491928420965
  @DF-RHF Final Energy:  -388.42279729974655
    Total Energy =                       -388.4227972997463212
  @DF-RHF Final Energy:  -388.42275042016507
    Total Energy =                       -388.4227504201651300
  Basis Set: CC-PVTZ
  Basis Set:
  @DF-RHF Final Energy:  -388.42285847541609
    Total Energy =                       -388.4228584754158646
  Basis Set: CC-PVTZ
  Basis Set:
  Basis Set: CC-PVTZ
  Basis Set:
  @DF-RHF Final Energy:  -388.42286048457726
    Total Energy =                       -388.4228604845770860
  Basis Set: CC-PVTZ
  Basis Set:
  Basis Set: CC-PVTZ
  Basis Set:
  @DF-RHF Final Energy:  -388.42286208357865
    Total Energy =                       -388.4228620835779111
  Basis Set: CC-PVTZ
  Basis Set:
  Charge       = 0
  Multiplicity = 1
  Basis Set: CC-PVTZ
  Basis Set:

    Orbital Energies (a.u.)
    -----------------------

    Doubly Occupied:

       1A    -20.545551     2A    -11.265165     3A    -11.218203
       4A    -11.215108     5A    -11.213116     6A    -11.212391
       7A    -11.212072     8A    -11.209943     9A    -11.205886
      10A     -1.363467    11A     -1.094287    12A     -1.060551
      13A     -1.009890    14A     -0.952528    15A     -0.885962
      16A     -0.831516    17A     -0.792524    18A     -0.774620
      19A     -0.698650    20A     -0.648089    21A     -0.636374
      22A     -0.616356    23A     -0.606815    24A     -0.587528
      25A     -0.568081    26A     -0.554414    27A     -0.549694
      28A     -0.518969    29A     -0.516085    30A     -0.498053
      31A     -0.483693    32A     -0.472067    33A     -0.465605
      34A     -0.458976    35A     -0.455896    36A     -0.435858
      37A     -0.425606

  @DF-RHF Final Energy:  -388.42286229499041

   => Energetics <=

    Nuclear Repulsion Energy =            468.8890568631663882
    One-Electron Energy =               -1456.1046542133926778
    Two-Electron Energy =                 598.7927350552359940
    DFT Exchange-Correlation Energy =       0.0000000000000000
    Empirical Dispersion Energy =           0.0000000000000000
    PCM Polarization Energy =               0.0000000000000000
    EFP Energy =                            0.0000000000000000
    Total Energy =                       -388.4228622949902956
    Molecular point group: c1
  Basis Set: CC-PVTZ
  Basis Set:

  -Total Gradient:
     Atom            X                  Y                   Z
    ------   -----------------  -----------------  -----------------
       1       -0.000009291303    -0.000010456391     0.000004077470
       2        0.000015199350     0.000027167460    -0.000010222842
       3        0.000013685798    -0.000020255026     0.000021219542
       4       -0.000716516194     0.001091212022    -0.001353048383
       5       -0.000011698863     0.000005115287     0.000001725169
       6       -0.000000837667     0.000006607616     0.000007072866
       7        0.000571864349    -0.001834621590     0.002214050630
       8        0.000008776685     0.000005445563    -0.000014881604
       9       -0.000006001250     0.000003410506     0.000007294860
      10        0.001998527995     0.001835958032    -0.002061696367
      11        0.000010599322    -0.000009247420    -0.000003510167
      12       -0.000006619548    -0.000011149401     0.000007258991
      13       -0.000016547899     0.000011212816    -0.000008226499
      14       -0.001862221925    -0.001110130419     0.001200474224
      15        0.000006465620     0.000017216097    -0.000003594415
      16        0.000000174391    -0.000007219098    -0.000014729513
      17       -0.000000988658    -0.000004639650    -0.000005960825
      18       -0.000003809871    -0.000001630485    -0.000000590079
      19        0.000000808773     0.000001852738    -0.000017755625
      20       -0.000003387376    -0.000008737447    -0.000000126290
      21        0.000006569159     0.000015763939     0.000013948579
      22        0.000013262624    -0.000000994695     0.000023564839
      23       -0.000004925776    -0.000006176590     0.000005444189
      24       -0.000003686957     0.000000670226     0.000006090171
      25       -0.000001101186    -0.000002521812    -0.000003520798
      26       -0.000000058237     0.000004846666    -0.000013767079
      27        0.000001758647     0.000001301056    -0.000000591049

  **** Optimization is complete! (in 14 steps) ****
    Final optimized geometry and variables:
    Molecular point group: c1

    Geometry (in Angstrom), charge = 0, multiplicity = 1:

    H           -1.840153921109     2.322936419797     2.481588543524
    O           -0.985146370395     2.687570611591     2.348526247391
    C           -0.000184488043     1.718412033043     2.592666482169
    C            0.080169703316     0.650093994024     1.511205972347
    H            0.937142192417     2.256098234217     2.640248511070
    H           -0.156034898895     1.255368092321     3.565054365323
    C           -1.167672865192    -0.226314344241     1.425323689347
    H            0.260664971121     1.142540834863     0.562886382574
    H            0.948654985908     0.030180282986     1.720865762792
    C           -1.115971209550    -1.391257437025     0.429659446341
    H           -2.016921385122     0.399477299662     1.161953835255
    H           -1.381377043980    -0.634794236284     2.410393960216
    C           -0.794985407434    -1.033558493038    -1.030266397966
    H           -0.423558211503    -2.147601181375     0.790562306248
    H           -2.092091586050    -1.865355760015     0.458644854716
    C            0.679707858669    -1.142839668326    -1.418401194908
    H           -1.357636372969    -1.697319001472    -1.679608393753
    H           -1.156864837415    -0.031613025831    -1.246955812981
    C            0.943039906771    -0.773607274609    -2.875712785402
    H            1.012703310274    -2.163289594337    -1.243523715834
    H            1.287893209656    -0.513438064291    -0.777996426674
    C            2.409112289708    -0.909818122455    -3.273363754561
    H            0.335252661300    -1.402112223274    -3.521076637902
    H            0.616310018797     0.247729721082    -3.051558341209
    H            2.757031675368    -1.929211830910    -3.142717141521
    H            2.561518914595    -0.639505824373    -4.312007141639
    H            3.040130734973    -0.266773628634    -2.668776947314

  Mulliken Charges: (a.u.)
   Center  Symbol    Alpha    Beta     Spin     Total
       1     H     0.39230  0.39230  0.00000  0.21540
       2     O     4.20575  4.20575  0.00000 -0.41150
       3     C     2.98105  2.98105  0.00000  0.03790
       4     C     3.09730  3.09730  0.00000 -0.19460
       5     H     0.44830  0.44830  0.00000  0.10340
       6     H     0.46832  0.46832  0.00000  0.06336
       7     C     3.10480  3.10480  0.00000 -0.20960
       8     H     0.44853  0.44853  0.00000  0.10293
       9     H     0.45320  0.45320  0.00000  0.09359
      10     C     3.10469  3.10469  0.00000 -0.20938
      11     H     0.45616  0.45616  0.00000  0.08768
      12     H     0.44764  0.44764  0.00000  0.10473
      13     C     3.10661  3.10661  0.00000 -0.21322
      14     H     0.45271  0.45271  0.00000  0.09458
      15     H     0.44384  0.44384  0.00000  0.11232
      16     C     3.08811  3.08811  0.00000 -0.17622
      17     H     0.44478  0.44478  0.00000  0.11043
      18     H     0.44990  0.44990  0.00000  0.10020
      19     C     3.08516  3.08516  0.00000 -0.17032
      20     H     0.45365  0.45365  0.00000  0.09269
      21     H     0.45051  0.45051  0.00000  0.09897
      22     C     3.14983  3.14983  0.00000 -0.29967
      23     H     0.45405  0.45405  0.00000  0.09190
      24     H     0.45391  0.45391  0.00000  0.09219
      25     H     0.45549  0.45549  0.00000  0.08903
      26     H     0.44826  0.44826  0.00000  0.10347
      27     H     0.45514  0.45514  0.00000  0.08973

   Total alpha = 37.00000, Total beta = 37.00000, Total charge = -0.00000

*** Psi4 exiting successfully. Buy a developer a beer!
