  ==> Input File <==

--------------------------------------------------------------------------
set {
	reference rhf
	basis cc-pvtz
}

set_num_threads( 4 )
memory 2 gb

molecule MOL {
0 1

H	 3.273419	 0.176595	 -0.102789
N	 2.433987	 -0.362316	 -0.080024
C	 1.263552	 0.494993	 0.021953
H	 2.497638	 -0.973615	 0.707122
C	 -0.016533	 -0.325589	 -0.026925
H	 1.280915	 1.180773	 -0.818522
H	 1.263064	 1.106893	 0.925038
C	 -1.280353	 0.525521	 0.047747
H	 -0.016686	 -0.912532	 -0.939714
H	 -0.014099	 -1.037598	 0.796369
C	 -1.222828	 1.584215	 1.144036
H	 -2.138087	 -0.119856	 0.217293
H	 -1.448938	 1.009876	 -0.910300
H	 -1.088555	 1.129437	 2.119677
H	 -2.135098	 2.168859	 1.174110
H	 -0.396489	 2.268787	 0.983700

	symmetry c1
}
set optking {
	frozen_dihedral = ("
		12 8 5 9
	")
}

ee = optimize('scf')
oeprop('DIPOLE', 'QUADRUPOLE', 'MULLIKEN_CHARGES')
f=open( 'psi4out.xyz', 'w' )
f.write( "16  " )
f.write( str(ee) + "\n" )
f.write( MOL.save_string_xyz() )
f.close()
--------------------------------------------------------------------------

    Molecular point group: c1
  Charge       = 0
  Multiplicity = 1
  Basis Set: CC-PVTZ
  Basis Set:
  @DF-RHF Final Energy:  -212.39515902661444
    Total Energy =                       -212.3951590266145786
    Molecular point group: c1
  Basis Set: CC-PVTZ
  Basis Set:
  Basis Set: CC-PVTZ
  Basis Set:
  @DF-RHF Final Energy:  -212.39608005389570
    Total Energy =                       -212.3960800538957301
  Basis Set: CC-PVTZ
  Basis Set:
  Basis Set: CC-PVTZ
  Basis Set:
  @DF-RHF Final Energy:  -212.39707838155326
    Total Energy =                       -212.3970783815531718
  Basis Set: CC-PVTZ
  Basis Set:
  Basis Set: CC-PVTZ
  Basis Set:
  @DF-RHF Final Energy:  -212.39716133119657
    Total Energy =                       -212.3971613311965143
  Basis Set: CC-PVTZ
  Basis Set:
  Basis Set: CC-PVTZ
  Basis Set:
  @DF-RHF Final Energy:  -212.39716878968017
    Total Energy =                       -212.3971687896801654
  Basis Set: CC-PVTZ
  Basis Set:
  Basis Set: CC-PVTZ
  Basis Set:
  @DF-RHF Final Energy:  -212.39717012954620
    Total Energy =                       -212.3971701295462253
  Basis Set: CC-PVTZ
  Basis Set:
  Charge       = 0
  Multiplicity = 1
  Basis Set: CC-PVTZ
  Basis Set:

    Orbital Energies (a.u.)
    -----------------------

    Doubly Occupied:

       1A    -15.526158     2A    -11.237186     3A    -11.213641
       4A    -11.208435     5A    -11.206517     6A     -1.177880
       7A     -1.059246     8A     -0.955464     9A     -0.860967
      10A     -0.777882    11A     -0.655297    12A     -0.641449
      13A     -0.623165    14A     -0.569749    15A     -0.556896
      16A     -0.536117    17A     -0.505684    18A     -0.467325
      19A     -0.464674    20A     -0.458247    21A     -0.383310

  @DF-RHF Final Energy:  -212.39717024120381

   => Energetics <=

    Nuclear Repulsion Energy =            189.2769410591355950
    One-Electron Energy =                -661.1776440724524946
    Two-Electron Energy =                 259.5035327721130329
    DFT Exchange-Correlation Energy =       0.0000000000000000
    Empirical Dispersion Energy =           0.0000000000000000
    PCM Polarization Energy =               0.0000000000000000
    EFP Energy =                            0.0000000000000000
    Total Energy =                       -212.3971702412038667
    Molecular point group: c1
  Basis Set: CC-PVTZ
  Basis Set:

  -Total Gradient:
     Atom            X                  Y                   Z
    ------   -----------------  -----------------  -----------------
       1        0.000000148333     0.000001277517    -0.000003814202
       2       -0.000002727988    -0.000009577514     0.000005231804
       3       -0.000001231684     0.000009615738    -0.000004381875
       4        0.000003627604     0.000001663728     0.000000794632
       5       -0.002150848176    -0.003266522611     0.002987934644
       6       -0.000000965345     0.000003161191    -0.000000311228
       7       -0.000005210839    -0.000006552066    -0.000001235065
       8        0.000007068079     0.000104042817    -0.004878283319
       9        0.001813230371     0.002735379920    -0.001771703947
      10       -0.000001420412    -0.000001006648    -0.000001424605
      11        0.000001654305     0.000000880117     0.000004093453
      12        0.000338000460     0.000430144535     0.003663907453
      13       -0.000001550779    -0.000001757163    -0.000000966600
      14       -0.000001747924    -0.000000572544     0.000001300776
      15       -0.000000662285     0.000001193878    -0.000001309267
      16        0.000002636275    -0.000001370893     0.000000167345

  **** Optimization is complete! (in 7 steps) ****
    Final optimized geometry and variables:
    Molecular point group: c1

    Geometry (in Angstrom), charge = 0, multiplicity = 1:

    H            3.026575459332    -0.286838585051    -0.412887201174
    N            2.168183900909    -0.795744863908    -0.401158560661
    C            1.036697083216     0.094391945689    -0.184285137766
    H            2.236622804733    -1.467666505328     0.334843406249
    C           -0.267513204526    -0.694752492518    -0.201277947456
    H            1.026394208688     0.819799310228    -0.992029406240
    H            1.121653251184     0.656870017715     0.743169673423
    C           -1.539388098968     0.158220895862    -0.184487546921
    H           -0.255296929813    -1.290945020358    -1.106798904835
    H           -0.276860019659    -1.382938619209     0.640947944116
    C           -1.590664331446     1.229400313433     0.905193241250
    H           -2.385404627806    -0.503751759214    -0.029340027616
    H           -1.674991513645     0.626737252903    -1.154341491637
    H           -1.424971519868     0.797980487340     1.887523502324
    H           -2.561754596601     1.711000444484     0.918025696709
    H           -0.847015691846     2.002333002453     0.754238732393

  Mulliken Charges: (a.u.)
   Center  Symbol    Alpha    Beta     Spin     Total
       1     H     0.43010  0.43010  0.00000  0.13979
       2     N     3.69104  3.69104  0.00000 -0.38208
       3     C     3.02704  3.02704  0.00000 -0.05408
       4     H     0.43092  0.43092  0.00000  0.13816
       5     C     3.09118  3.09118  0.00000 -0.18237
       6     H     0.45673  0.45673  0.00000  0.08655
       7     H     0.46468  0.46468  0.00000  0.07065
       8     C     3.09303  3.09303  0.00000 -0.18605
       9     H     0.44473  0.44473  0.00000  0.11054
      10     H     0.45805  0.45805  0.00000  0.08391
      11     C     3.15679  3.15679  0.00000 -0.31358
      12     H     0.44985  0.44985  0.00000  0.10030
      13     H     0.45187  0.45187  0.00000  0.09626
      14     H     0.45466  0.45466  0.00000  0.09069
      15     H     0.44574  0.44574  0.00000  0.10852
      16     H     0.45361  0.45361  0.00000  0.09278

   Total alpha = 21.00000, Total beta = 21.00000, Total charge = -0.00000
