                              Psi4 1.0.54 Driver

  ==> Input File <==

--------------------------------------------------------------------------
set {
	reference rhf
	basis cc-pvtz
}

set_num_threads( 4 )
memory 2 gb

molecule MOL {
0 1

H	 1.128311	 0.207724	 1.465118
C	 1.134565	 0.093781	 0.372499
C	 0.062554	 0.862911	 -0.350953
O	 1.948932	 -0.587720	 -0.146651
C	 0.345629	 1.000522	 -1.850134
H	 -0.047395	 1.829752	 0.122992
H	 -0.865266	 0.312760	 -0.211104
C	 1.557815	 1.873673	 -2.161361
H	 -0.533000	 1.418262	 -2.327709
H	 0.484228	 0.013386	 -2.282337
H	 1.424235	 2.876464	 -1.771331
H	 1.713199	 1.949548	 -3.230818
H	 2.465066	 1.471547	 -1.724067

	symmetry c1
}
set optking {
	frozen_dihedral = ("
		6 3 2 4
	")
}

ee,wfn = optimize('scf', return_wfn=True)
oeprop( wfn, 'DIPOLE', 'QUADRUPOLE', 'MULLIKEN_CHARGES')
f=open( 'psi4out.xyz', 'w' )
f.write( "13  " )
f.write( str(ee) + "\n" )
f.write( MOL.save_string_xyz() )
f.close()
--------------------------------------------------------------------------

    Molecular point group: c1
  Charge       = 0
  Multiplicity = 1
  Basis Set: CC-PVTZ
  Basis Set:
  @DF-RHF Final Energy:  -231.07062254244337
    Total Energy =                       -231.0706225424432319
    Molecular point group: c1
  Basis Set: CC-PVTZ
  Basis Set:
  Basis Set: CC-PVTZ
  Basis Set:
  @DF-RHF Final Energy:  -231.07017470494449
    Total Energy =                       -231.0701747049445487
  Basis Set: CC-PVTZ
  Basis Set:
  Basis Set: CC-PVTZ
  Basis Set:
  @DF-RHF Final Energy:  -231.07084002028108
    Total Energy =                       -231.0708400202811390
  Basis Set: CC-PVTZ
  Basis Set:
  Basis Set: CC-PVTZ
  Basis Set:
  @DF-RHF Final Energy:  -231.07149405243445
    Total Energy =                       -231.0714940524344740
  Basis Set: CC-PVTZ
  Basis Set:
  Basis Set: CC-PVTZ
  Basis Set:
  @DF-RHF Final Energy:  -231.07150788266136
    Total Energy =                       -231.0715078826613080
  Basis Set: CC-PVTZ
  Basis Set:
  Basis Set: CC-PVTZ
  Basis Set:
  @DF-RHF Final Energy:  -231.07151143050629
    Total Energy =                       -231.0715114305063764
  Basis Set: CC-PVTZ
  Basis Set:
  Charge       = 0
  Multiplicity = 1
  Basis Set: CC-PVTZ
  Basis Set:

    Orbital Energies (a.u.)
    -----------------------

    Doubly Occupied:

       1A    -20.553318     2A    -11.323784     3A    -11.236998
       4A    -11.224019     5A    -11.209574     6A     -1.409084
       7A     -1.079562     8A     -0.974012     9A     -0.851810
      10A     -0.765738    11A     -0.688951    12A     -0.640811
      13A     -0.628256    14A     -0.586152    15A     -0.565388
      16A     -0.525158    17A     -0.497695    18A     -0.485009
      19A     -0.482918    20A     -0.414198

  @DF-RHF Final Energy:  -231.07151165487537

   => Energetics <=

    Nuclear Repulsion Energy =            176.4229344470061562
    One-Electron Energy =                -662.7040232632896277
    Two-Electron Energy =                 255.2095771614082196
    DFT Exchange-Correlation Energy =       0.0000000000000000
    Empirical Dispersion Energy =           0.0000000000000000
    PCM Polarization Energy =               0.0000000000000000
    EFP Energy =                            0.0000000000000000
    Total Energy =                       -231.0715116548752803
    Molecular point group: c1
  Basis Set: CC-PVTZ
  Basis Set:

  -Total Gradient:
     Atom            X                  Y                   Z
    ------   -----------------  -----------------  -----------------
       1       -0.000001065835    -0.000008341404    -0.000005694228
       2        0.000781259883     0.001178173778     0.000015883190
       3        0.000576565973     0.000075736110    -0.000781896251
       4       -0.000637982230    -0.000863029521     0.000079128646
       5       -0.000020693694    -0.000012552616     0.000038005768
       6       -0.000695769142    -0.000368595969     0.000642838365
       7       -0.000015730435     0.000003539240     0.000012300119
       8        0.000010784503     0.000009034486    -0.000001686026
       9        0.000009157887    -0.000003369413     0.000002886596
      10       -0.000000291253    -0.000006120735    -0.000011489377
      11        0.000003511802    -0.000004431394    -0.000002948280
      12       -0.000000394652    -0.000001838766     0.000016082270
      13       -0.000009352805     0.000001796201    -0.000003410793

  **** Optimization is complete! (in 7 steps) ****
    Final optimized geometry and variables:
    Molecular point group: c1

    Geometry (in Angstrom), charge = 0, multiplicity = 1:

    H            0.160385621465    -0.486008602283     2.317405074741
    C            0.176705862843    -0.567325760253     1.223551587286
    C           -0.904401495549     0.208847627884     0.517962601031
    O            0.977879624630    -1.256706303309     0.693598861885
    C           -0.736577567656     0.340599821870    -0.991658796689
    H           -0.991503334201     1.179243566491     1.000370889759
    H           -1.831199199532    -0.311704264923     0.756658664363
    C            0.399530173853     1.274175625190    -1.399711084227
    H           -1.669209304609     0.707822832652    -1.406530008662
    H           -0.569934780596    -0.642273142881    -1.414465019703
    H            0.241263272486     2.274997381992    -1.010206000607
    H            0.464841277579     1.348279169721    -2.478685198695
    H            1.353409983568     0.915967160226    -1.034745270695

  Mulliken Charges: (a.u.)
   Center  Symbol    Alpha    Beta     Spin     Total
       1     H     0.45210  0.45210  0.00000  0.09579
       2     C     2.91738  2.91738  0.00000  0.16523
       3     C     3.09748  3.09748  0.00000 -0.19497
       4     O     4.16741  4.16741  0.00000 -0.33483
       5     C     3.08480  3.08480  0.00000 -0.16959
       6     H     0.44746  0.44746  0.00000  0.10507
       7     H     0.43935  0.43935  0.00000  0.12130
       8     C     3.15152  3.15152  0.00000 -0.30305
       9     H     0.44723  0.44723  0.00000  0.10554
      10     H     0.44540  0.44540  0.00000  0.10919
      11     H     0.45812  0.45812  0.00000  0.08377
      12     H     0.44730  0.44730  0.00000  0.10540
      13     H     0.44443  0.44443  0.00000  0.11114

   Total alpha = 20.00000, Total beta = 20.00000, Total charge = -0.00000

*** Psi4 exiting successfully. Buy a developer a beer!
