  ==> Input File <==

--------------------------------------------------------------------------
set {
	reference rhf
	basis 6-31G*
}

set_num_threads( 4 )
memory 2 gb

molecule MOL {
0 1

H	 -2.698709	 -0.000305	 0.034435
C	 -1.693833	 0.000034	 0.434417
O	 -0.828952	 -0.000968	 -0.659236
H	 -1.574200	 0.882896	 1.055746
H	 -1.574147	 -0.881698	 1.057355
C	 0.500930	 -0.423871	 -0.466703
C	 1.274999	 0.491660	 0.479625
C	 0.594965	 -1.892944	 -0.059346
H	 0.936227	 -0.324862	 -1.453995
H	 1.144646	 1.528809	 0.190006
H	 2.334077	 0.257270	 0.438985
H	 0.955947	 0.380844	 1.511172
H	 -0.006625	 -2.506191	 -0.721521
H	 1.624579	 -2.230819	 -0.124161
H	 0.260979	 -2.059043	 0.959823

	symmetry c1
}
set optking {
	frozen_dihedral = ("
		6 3 2 1
	")
}

ee = optimize('scf')
oeprop('DIPOLE', 'QUADRUPOLE', 'MULLIKEN_CHARGES')
f=open( 'psi4out.xyz', 'w' )
f.write( "15  " )
f.write( str(ee) + "\n" )
f.write( MOL.save_string_xyz() )
f.close()
--------------------------------------------------------------------------

    Molecular point group: c1
  Charge       = 0
  Multiplicity = 1
  Basis Set: 6-31G*
  Basis Set:
  @DF-RHF Final Energy:  -232.13704784791946
    Total Energy =                       -232.1370478479194048
    Molecular point group: c1
  Basis Set: 6-31G*
  Basis Set:
  Basis Set: 6-31G*
  Basis Set:
  @DF-RHF Final Energy:  -232.13685431362893
    Total Energy =                       -232.1368543136287599
  Basis Set: 6-31G*
  Basis Set:
  Basis Set: 6-31G*
  Basis Set:
  @DF-RHF Final Energy:  -232.13731162450458
    Total Energy =                       -232.1373116245045480
  Basis Set: 6-31G*
  Basis Set:
  Basis Set: 6-31G*
  Basis Set:
  @DF-RHF Final Energy:  -232.13732312016248
    Total Energy =                       -232.1373231201625913
  Basis Set: 6-31G*
  Basis Set:
  Basis Set: 6-31G*
  Basis Set:
  @DF-RHF Final Energy:  -232.13732965794159
    Total Energy =                       -232.1373296579416774
  Basis Set: 6-31G*
  Basis Set:
  Charge       = 0
  Multiplicity = 1
  Basis Set: 6-31G*
  Basis Set:

    Orbital Energies (a.u.)
    -----------------------

    Doubly Occupied:

       1A    -20.547770     2A    -11.274450     3A    -11.261327
       4A    -11.211468     5A    -11.209639     6A     -1.369957
       7A     -1.050252     8A     -0.940204     9A     -0.930799
      10A     -0.781358    11A     -0.674842    12A     -0.640387
      13A     -0.632763    14A     -0.571456    15A     -0.564290
      16A     -0.552772    17A     -0.535403    18A     -0.499127
      19A     -0.497006    20A     -0.442938    21A     -0.405528

  @DF-RHF Final Energy:  -232.13733033595207

   => Energetics <=

    Nuclear Repulsion Energy =            198.8155727716439287
    One-Electron Energy =                -708.7183384527146472
    Two-Electron Energy =                 277.7654353451188740
    DFT Exchange-Correlation Energy =       0.0000000000000000
    Empirical Dispersion Energy =           0.0000000000000000
    PCM Polarization Energy =               0.0000000000000000
    EFP Energy =                            0.0000000000000000
    Total Energy =                       -232.1373303359518445
    Molecular point group: c1
  Basis Set: 6-31G*
  Basis Set:

  -Total Gradient:
     Atom            X                  Y                   Z
    ------   -----------------  -----------------  -----------------
       1        0.000023683961    -0.001397928805     0.000160220606
       2       -0.000202114175     0.001210621722    -0.000260344651
       3        0.000445088106     0.001350990596     0.000205996652
       4       -0.000029993081    -0.000026471619    -0.000008991069
       5        0.000017035812    -0.000014030630     0.000018041581
       6       -0.000331967931    -0.001108816161    -0.000103922697
       7        0.000041401625    -0.000009342581     0.000009867873
       8        0.000020951788     0.000012214341    -0.000024083084
       9        0.000035593826    -0.000026080617     0.000005151102
      10       -0.000001471130    -0.000000035088     0.000000078266
      11       -0.000014345473     0.000009695907     0.000000694286
      12        0.000017396783    -0.000001671152     0.000002583609
      13       -0.000015774297    -0.000006583990     0.000014852049
      14       -0.000000984641    -0.000010381782    -0.000007204838
      15       -0.000004501174     0.000017819860    -0.000012939683

  **** Optimization is complete! (in 6 steps) ****
    Final optimized geometry and variables:
    Molecular point group: c1

    Geometry (in Angstrom), charge = 0, multiplicity = 1:

    H           -2.643401020493     0.364848156616     0.132836090412
    C           -1.623786716417     0.420703711692     0.490523959993
    O           -0.792621440903     0.315674916789    -0.625354314550
    H           -1.485363283887     1.364906486490     1.009633311016
    H           -1.475572737112    -0.387300201143     1.200319579224
    C            0.549300047771    -0.066223333042    -0.430539024227
    C            1.288389555410     0.854868855897     0.537453738404
    C            0.676557110886    -1.539725571302    -0.048588097733
    H            0.989736283116     0.059283973043    -1.412533319686
    H            1.154269871177     1.892031466735     0.249259116339
    H            2.350977274251     0.633694735668     0.525592200514
    H            0.940144561788     0.735780220719     1.558872857618
    H            0.110045762647    -2.153934123559    -0.739682687252
    H            1.716822544983    -1.847725110641    -0.091285647386
    H            0.319263560173    -1.737841170115     0.956745492961

  Mulliken Charges: (a.u.)
   Center  Symbol    Alpha    Beta     Spin     Total
       1     H     0.41336  0.41336  0.00000  0.17328
       2     C     3.08105  3.08105  0.00000 -0.16211
       3     O     4.31258  4.31258  0.00000 -0.62517
       4     H     0.42708  0.42708  0.00000  0.14584
       5     H     0.43084  0.43084  0.00000  0.13832
       6     C     2.90970  2.90970  0.00000  0.18060
       7     C     3.25460  3.25460  0.00000 -0.50920
       8     C     3.25014  3.25014  0.00000 -0.50028
       9     H     0.41544  0.41544  0.00000  0.16913
      10     H     0.41175  0.41175  0.00000  0.17651
      11     H     0.41855  0.41855  0.00000  0.16290
      12     H     0.42114  0.42114  0.00000  0.15772
      13     H     0.41130  0.41130  0.00000  0.17741
      14     H     0.42059  0.42059  0.00000  0.15882
      15     H     0.42189  0.42189  0.00000  0.15623

   Total alpha = 21.00000, Total beta = 21.00000, Total charge =  0.00000
