                              Psi4 1.0.54 Driver

  ==> Input File <==

--------------------------------------------------------------------------
set {
	reference rhf
	basis cc-pvtz
}

set_num_threads( 4 )
memory 2 gb

molecule MOL {
0 1

O	 -0.694481	 1.313155	 -0.204815
C	 -0.862519	 0.151932	 -0.046791
C	 -2.171428	 -0.477048	 0.339095
O	 0.085519	 -0.757083	 -0.192238
H	 -2.467997	 -1.191667	 -0.417688
H	 -2.923379	 0.287970	 0.444097
H	 -2.053854	 -1.015120	 1.270901
C	 0.573380	 -1.034384	 -1.499745
C	 1.665544	 -0.067198	 -1.906716
H	 -0.248270	 -1.009469	 -2.198377
H	 0.954839	 -2.042759	 -1.441255
H	 2.057603	 -0.349620	 -2.877273
H	 1.282443	 0.941699	 -1.975584
H	 2.479463	 -0.086385	 -1.192041

	symmetry c1
}
set optking {
	frozen_dihedral = ("
		8 4 2 1
	")
}

ee,wfn = optimize('scf', return_wfn=True)
oeprop( wfn, 'DIPOLE', 'QUADRUPOLE', 'MULLIKEN_CHARGES')
f=open( 'psi4out.xyz', 'w' )
f.write( "14  " )
f.write( str(ee) + "\n" )
f.write( MOL.save_string_xyz() )
f.close()
--------------------------------------------------------------------------

    Molecular point group: c1
  Charge       = 0
  Multiplicity = 1
  Basis Set: CC-PVTZ
  Basis Set:
  @DF-RHF Final Energy:  -305.97338841707153
    Total Energy =                       -305.9733884170714759
    Molecular point group: c1
  Basis Set: CC-PVTZ
  Basis Set:
  Basis Set: CC-PVTZ
  Basis Set:
  @DF-RHF Final Energy:  -305.94725798893580
    Total Energy =                       -305.9472579889358599
  Basis Set: CC-PVTZ
  Basis Set:
  Basis Set: CC-PVTZ
  Basis Set:
  @DF-RHF Final Energy:  -305.96737561568852
    Total Energy =                       -305.9673756156886384
  Basis Set: CC-PVTZ
  Basis Set:
  Basis Set: CC-PVTZ
  Basis Set:
  @DF-RHF Final Energy:  -305.97396093245482
    Total Energy =                       -305.9739609324551566
  Basis Set: CC-PVTZ
  Basis Set:
  @DF-RHF Final Energy:  -305.96763553260610
    Total Energy =                       -305.9676355326059820
  @DF-RHF Final Energy:  -305.97294842429062
    Total Energy =                       -305.9729484242905073
  @DF-RHF Final Energy:  -305.97460946299213
    Total Energy =                       -305.9746094629919639
  @DF-RHF Final Energy:  -305.97462532972088
    Total Energy =                       -305.9746253297211638
  @DF-RHF Final Energy:  -305.97462916820871
    Total Energy =                       -305.9746291682085939
  @DF-RHF Final Energy:  -305.97463140273442
    Total Energy =                       -305.9746314027343601
  @DF-RHF Final Energy:  -305.93298287066034
    Total Energy =                       -305.9329828706603394
  @DF-RHF Final Energy:  -305.88348757913468
    Total Energy =                       -305.8834875791346803
  @DF-RHF Final Energy:  -305.94404154389144
    Total Energy =                       -305.9440415438913305
  @DF-RHF Final Energy:  -305.95032249726626
    Total Energy =                       -305.9503224972663133
  @DF-RHF Final Energy:  -305.95532938695476
    Total Energy =                       -305.9553293869547588
  @DF-RHF Final Energy:  -305.95968419799647
    Total Energy =                       -305.9596841979964665
  @DF-RHF Final Energy:  -305.96091248908601
    Total Energy =                       -305.9609124890862404
  @DF-RHF Final Energy:  -305.96673982188196
    Total Energy =                       -305.9667398218820153
  @DF-RHF Final Energy:  -305.96430349071682
    Total Energy =                       -305.9643034907169294
  @DF-RHF Final Energy:  -305.96946071170993
    Total Energy =                       -305.9694607117099281
  @DF-RHF Final Energy:  -305.97075977346526
    Total Energy =                       -305.9707597734655451
  @DF-RHF Final Energy:  -305.96355725238425
    Total Energy =                       -305.9635572523841347
  @DF-RHF Final Energy:  -305.97202105907746
    Total Energy =                       -305.9720210590775764
  @DF-RHF Final Energy:  -305.96908685231841
    Total Energy =                       -305.9690868523181848
  @DF-RHF Final Energy:  -305.97075659809150
    Total Energy =                       -305.9707565980916115
  @DF-RHF Final Energy:  -305.97281656476559
    Total Energy =                       -305.9728165647655942
  @DF-RHF Final Energy:  -305.97303949085159
    Total Energy =                       -305.9730394908515336
  @DF-RHF Final Energy:  -305.97119611242312
    Total Energy =                       -305.9711961124231721
  @DF-RHF Final Energy:  -305.97340927677743
    Total Energy =                       -305.9734092767772609
  @DF-RHF Final Energy:  -305.97369948019139
    Total Energy =                       -305.9736994801916126
  @DF-RHF Final Energy:  -305.97405991958021
    Total Energy =                       -305.9740599195802133
  @DF-RHF Final Energy:  -305.97429671136842
    Total Energy =                       -305.9742967113681971
  @DF-RHF Final Energy:  -305.97454001010652
    Total Energy =                       -305.9745400101066934
  Basis Set: CC-PVTZ
  Basis Set:
  @DF-RHF Final Energy:  -305.97461846718431
    Total Energy =                       -305.9746184671841434
  Basis Set: CC-PVTZ
  Basis Set:
  Basis Set: CC-PVTZ
  Basis Set:
  @DF-RHF Final Energy:  -305.97463008801810
    Total Energy =                       -305.9746300880178183
  Basis Set: CC-PVTZ
  Basis Set:
  Basis Set: CC-PVTZ
  Basis Set:
  @DF-RHF Final Energy:  -305.97463172040818
    Total Energy =                       -305.9746317204084107
  Basis Set: CC-PVTZ
  Basis Set:
  Charge       = 0
  Multiplicity = 1
  Basis Set: CC-PVTZ
  Basis Set:

    Orbital Energies (a.u.)
    -----------------------

    Doubly Occupied:

       1A    -20.577198     2A    -20.543751     3A    -11.370527
       4A    -11.292621     5A    -11.234561     6A    -11.214425
       7A     -1.461691     8A     -1.368089     9A     -1.049581
      10A     -1.003651    11A     -0.879875    12A     -0.772414
      13A     -0.696081    14A     -0.684735    15A     -0.661516
      16A     -0.610759    17A     -0.586626    18A     -0.578882
      19A     -0.561824    20A     -0.537344    21A     -0.510396
      22A     -0.494452    23A     -0.452481    24A     -0.440198

  @DF-RHF Final Energy:  -305.97463195371091

   => Energetics <=

    Nuclear Repulsion Energy =            247.6008325691073537
    One-Electron Energy =                -907.9835688870405193
    Two-Electron Energy =                 354.4081043642222539
    DFT Exchange-Correlation Energy =       0.0000000000000000
    Empirical Dispersion Energy =           0.0000000000000000
    PCM Polarization Energy =               0.0000000000000000
    EFP Energy =                            0.0000000000000000
    Total Energy =                       -305.9746319537109684
    Molecular point group: c1
  Basis Set: CC-PVTZ
  Basis Set:

  -Total Gradient:
     Atom            X                  Y                   Z
    ------   -----------------  -----------------  -----------------
       1       -0.005642509740     0.000501797940    -0.003756442023
       2        0.007603660364    -0.000194619190     0.008068788733
       3        0.000067216009    -0.000008806442     0.000029598993
       4       -0.000871556354    -0.001295080850    -0.009590428256
       5        0.000015646484     0.000000623829     0.000014149092
       6       -0.000000497159    -0.000007084423     0.000001521874
       7        0.000000194401    -0.000016206706     0.000000524976
       8       -0.001176446251     0.001021104818     0.005230478177
       9        0.000013141515    -0.000017308212    -0.000001424435
      10        0.000004089279    -0.000003264979     0.000001615006
      11       -0.000007063955    -0.000003250448    -0.000003924981
      12        0.000010834948     0.000008190929    -0.000002252877
      13       -0.000008193109     0.000006475618     0.000010142332
      14       -0.000008516434     0.000007428109    -0.000002346607

  **** Optimization is complete! (in 37 steps) ****
    Final optimized geometry and variables:
    Molecular point group: c1

    Geometry (in Angstrom), charge = 0, multiplicity = 1:

    O           -0.225745027313    -1.471728784140    -0.545999184002
    C           -0.626793794920    -0.628153363214     0.172097865338
    C           -1.543172819388    -0.869456955292     1.337183294084
    O           -0.372881485402     0.675799654288    -0.025491608509
    H           -1.068157026338    -0.523103030122     2.247707496424
    H           -1.779176497919    -1.918308188872     1.417215787126
    H           -2.446812125937    -0.288497596177     1.203622132223
    C            0.959990781579     1.132689085688     0.179043420170
    C            1.763954759497     1.142898298949    -1.104218440721
    H            1.441285985021     0.515082474140     0.929166479972
    H            0.862116856692     2.130418700260     0.580812247744
    H            2.752853600865     1.546172434085    -0.913299180601
    H            1.864722679811     0.143680845272    -1.503470588455
    H            1.277671521746     1.763287597450    -1.846632505261

  Mulliken Charges: (a.u.)
   Center  Symbol    Alpha    Beta     Spin     Total
       1     O     4.17688  4.17688  0.00000 -0.35376
       2     C     2.80829  2.80829  0.00000  0.38342
       3     C     3.13400  3.13400  0.00000 -0.26799
       4     O     4.17332  4.17332  0.00000 -0.34665
       5     H     0.45071  0.45071  0.00000  0.09859
       6     H     0.43811  0.43811  0.00000  0.12378
       7     H     0.44293  0.44293  0.00000  0.11413
       8     C     2.98085  2.98085  0.00000  0.03831
       9     C     3.13514  3.13514  0.00000 -0.27028
      10     H     0.46548  0.46548  0.00000  0.06903
      11     H     0.44495  0.44495  0.00000  0.11010
      12     H     0.45566  0.45566  0.00000  0.08868
      13     H     0.44199  0.44199  0.00000  0.11601
      14     H     0.45169  0.45169  0.00000  0.09662

   Total alpha = 24.00000, Total beta = 24.00000, Total charge =  0.00000

*** Psi4 exiting successfully. Buy a developer a beer!
