  ==> Input File <==

--------------------------------------------------------------------------
set {
	reference rhf
	basis cc-pvtz
}

set_num_threads( 4 )
memory 2 gb

molecule MOL {
0 1

H	 -2.698799	 -0.000846	 0.036018
C	 -1.694291	 -0.000483	 0.434279
O	 -0.828718	 -0.000608	 -0.655022
H	 -1.576855	 0.881100	 1.056504
H	 -1.576401	 -0.881658	 1.057001
C	 -1.026589	 0.942613	 -1.679258
C	 -2.352619	 0.748431	 -2.406038
C	 -0.833841	 2.376912	 -1.199796
H	 -0.230940	 0.718774	 -2.378869
H	 -2.473887	 -0.287252	 -2.698804
H	 -2.374196	 1.359731	 -3.300796
H	 -3.200741	 1.034515	 -1.794950
H	 0.098185	 2.470600	 -0.656111
H	 -0.800315	 3.047451	 -2.050694
H	 -1.641598	 2.706155	 -0.556625

	symmetry c1
}
set optking {
	frozen_dihedral = ("
		6 3 2 1
	")
}

ee = optimize('scf')
oeprop('DIPOLE', 'QUADRUPOLE', 'MULLIKEN_CHARGES')
f=open( 'psi4out.xyz', 'w' )
f.write( "15  " )
f.write( str(ee) + "\n" )
f.write( MOL.save_string_xyz() )
f.close()
--------------------------------------------------------------------------

    Molecular point group: c1
  Charge       = 0
  Multiplicity = 1
  Basis Set: CC-PVTZ
  Basis Set:
  @DF-RHF Final Energy:  -232.22358864767824
    Total Energy =                       -232.2235886476784685
    Molecular point group: c1
  Basis Set: CC-PVTZ
  Basis Set:
  Basis Set: CC-PVTZ
  Basis Set:
  @DF-RHF Final Energy:  -232.22551547145645
    Total Energy =                       -232.2255154714563901
  Basis Set: CC-PVTZ
  Basis Set:
  Basis Set: CC-PVTZ
  Basis Set:
  @DF-RHF Final Energy:  -232.22603989480268
    Total Energy =                       -232.2260398948026818
  Basis Set: CC-PVTZ
  Basis Set:
  Basis Set: CC-PVTZ
  Basis Set:
  @DF-RHF Final Energy:  -232.22604951992199
    Total Energy =                       -232.2260495199220713
  Basis Set: CC-PVTZ
  Basis Set:
  Basis Set: CC-PVTZ
  Basis Set:
  @DF-RHF Final Energy:  -232.22604628984607
    Total Energy =                       -232.2260462898460105
  Basis Set: CC-PVTZ
  Basis Set:
  Basis Set: CC-PVTZ
  Basis Set:
  @DF-RHF Final Energy:  -232.22605551082822
    Total Energy =                       -232.2260555108280755
  Basis Set: CC-PVTZ
  Basis Set:
  Charge       = 0
  Multiplicity = 1
  Basis Set: CC-PVTZ
  Basis Set:

    Orbital Energies (a.u.)
    -----------------------

    Doubly Occupied:

       1A    -20.541674     2A    -11.272693     3A    -11.258677
       4A    -11.209341     5A    -11.208048     6A     -1.373437
       7A     -1.051525     8A     -0.940552     9A     -0.931349
      10A     -0.781540    11A     -0.676045    12A     -0.642229
      13A     -0.634896    14A     -0.573704    15A     -0.564957
      16A     -0.553042    17A     -0.534188    18A     -0.498881
      19A     -0.497430    20A     -0.444904    21A     -0.409014

  @DF-RHF Final Energy:  -232.22605641121851

   => Energetics <=

    Nuclear Repulsion Energy =            199.0555779820224984
    One-Electron Energy =                -709.3670132550821563
    Two-Electron Energy =                 278.0853788618412636
    DFT Exchange-Correlation Energy =       0.0000000000000000
    Empirical Dispersion Energy =           0.0000000000000000
    PCM Polarization Energy =               0.0000000000000000
    EFP Energy =                            0.0000000000000000
    Total Energy =                       -232.2260564112183943
    Molecular point group: c1
  Basis Set: CC-PVTZ
  Basis Set:

  -Total Gradient:
     Atom            X                  Y                   Z
    ------   -----------------  -----------------  -----------------
       1        0.000111016166     0.000703328485     0.000012008661
       2       -0.000234103769    -0.001100613709    -0.000074104909
       3        0.000569381638     0.000800445978     0.000332776567
       4       -0.000031530546     0.000019888297     0.000026936701
       5       -0.000025211536     0.000010740259     0.000030624749
       6       -0.000336759653    -0.000446091451    -0.000355798892
       7       -0.000000607963     0.000046821795    -0.000005930728
       8       -0.000037399376    -0.000031929414     0.000075024289
       9       -0.000002175264     0.000013706416    -0.000032452131
      10       -0.000003589755    -0.000008089176    -0.000000131802
      11        0.000007141776    -0.000008327816     0.000012142086
      12        0.000009918512     0.000019004723    -0.000040491257
      13       -0.000002801902    -0.000019844712    -0.000009293523
      14       -0.000009133995    -0.000017153204    -0.000006628367
      15       -0.000014144334     0.000018113529     0.000035318558

  **** Optimization is complete! (in 7 steps) ****
    Final optimized geometry and variables:
    Molecular point group: c1

    Geometry (in Angstrom), charge = 0, multiplicity = 1:

    H           -1.373745651116    -0.688262825821     1.280868129787
    C           -0.322489326141    -0.768044288892     1.537602037423
    O            0.499828248219    -0.831575219472     0.416624213665
    H           -0.065283964924     0.064923833922     2.185039811223
    H           -0.176246190020    -1.684860776514     2.090581712494
    C            0.335617870451     0.126784108512    -0.599387861499
    C           -0.968837381020    -0.060401510022    -1.366502930629
    C            0.512965225995     1.554703492350    -0.096521480079
    H            1.150424915266    -0.088461670148    -1.279440288512
    H           -1.075295870821    -1.092030741739    -1.678127153207
    H           -0.968436180998     0.565042248968    -2.251925414630
    H           -1.836179738762     0.211319927780    -0.776420884600
    H            1.435484838914     1.647156542442     0.463675035692
    H            0.555773618945     2.237989418960    -0.936651550035
    H           -0.307460468551     1.867863638617     0.539097551205

  Mulliken Charges: (a.u.)
   Center  Symbol    Alpha    Beta     Spin     Total
       1     H     0.47098  0.47098  0.00000  0.05804
       2     C     3.03954  3.03954  0.00000 -0.07908
       3     O     4.18345  4.18345  0.00000 -0.36690
       4     H     0.46809  0.46809  0.00000  0.06381
       5     H     0.44152  0.44152  0.00000  0.11695
       6     C     2.93448  2.93448  0.00000  0.13105
       7     C     3.15484  3.15484  0.00000 -0.30968
       8     C     3.16090  3.16090  0.00000 -0.32179
       9     H     0.44697  0.44697  0.00000  0.10605
      10     H     0.44440  0.44440  0.00000  0.11120
      11     H     0.45097  0.45097  0.00000  0.09806
      12     H     0.45630  0.45630  0.00000  0.08741
      13     H     0.44383  0.44383  0.00000  0.11235
      14     H     0.44850  0.44850  0.00000  0.10299
      15     H     0.45524  0.45524  0.00000  0.08953

   Total alpha = 21.00000, Total beta = 21.00000, Total charge = -0.00000
