  ==> Input File <==

--------------------------------------------------------------------------
set {
	reference rhf
	basis cc-pvtz
}

set_num_threads( 4 )
memory 2 gb

molecule MOL {
0 1

O	 1.059362	 -2.060784	 -1.677173
C	 0.272314	 -1.653952	 -0.893003
C	 -1.150994	 -2.119917	 -0.780189
O	 0.550743	 -0.719877	 0.000412
H	 -1.326469	 -2.513379	 0.212686
H	 -1.342206	 -2.879517	 -1.520446
H	 -1.819801	 -1.281260	 -0.924368
C	 1.863204	 -0.194033	 0.000410
H	 2.031502	 0.409177	 -0.879273
H	 2.524488	 -1.045142	 0.000793
H	 2.031291	 0.409823	 0.879686

	symmetry c1
}
set optking {
	frozen_dihedral = ("
		2 4 8 9
	")
}

ee = optimize('scf')
oeprop('DIPOLE', 'QUADRUPOLE', 'MULLIKEN_CHARGES')
f=open( 'psi4out.xyz', 'w' )
f.write( "11  " )
f.write( str(ee) + "\n" )
f.write( MOL.save_string_xyz() )
f.close()
--------------------------------------------------------------------------

    Molecular point group: c1
  Charge       = 0
  Multiplicity = 1
  Basis Set: CC-PVTZ
  Basis Set:
  @DF-RHF Final Energy:  -266.93745415138687
    Total Energy =                       -266.9374541513871577
    Molecular point group: c1
  Basis Set: CC-PVTZ
  Basis Set:
  Basis Set: CC-PVTZ
  Basis Set:
  @DF-RHF Final Energy:  -266.93877801873487
    Total Energy =                       -266.9387780187346948
  Basis Set: CC-PVTZ
  Basis Set:
  Basis Set: CC-PVTZ
  Basis Set:
  @DF-RHF Final Energy:  -266.93909367935737
    Total Energy =                       -266.9390936793575975
  Basis Set: CC-PVTZ
  Basis Set:
  Basis Set: CC-PVTZ
  Basis Set:
  @DF-RHF Final Energy:  -266.93880898995252
    Total Energy =                       -266.9388089899525198
  Basis Set: CC-PVTZ
  Basis Set:
  Basis Set: CC-PVTZ
  Basis Set:
  @DF-RHF Final Energy:  -266.93910217424383
    Total Energy =                       -266.9391021742439420
  Basis Set: CC-PVTZ
  Basis Set:
  Charge       = 0
  Multiplicity = 1
  Basis Set: CC-PVTZ
  Basis Set:

    Orbital Energies (a.u.)
    -----------------------

    Doubly Occupied:

       1A    -20.598762     2A    -20.535268     3A    -11.368904
       4A    -11.279916     5A    -11.233196     6A     -1.474177
       7A     -1.367744     8A     -1.037041     9A     -0.953768
      10A     -0.780097    11A     -0.698223    12A     -0.684598
      13A     -0.681201    14A     -0.596020    15A     -0.593472
      16A     -0.561790    17A     -0.527168    18A     -0.525079
      19A     -0.462298    20A     -0.445928

  @DF-RHF Final Energy:  -266.93910251200043

   => Energetics <=

    Nuclear Repulsion Energy =            183.6809673301434316
    One-Electron Energy =                -728.4308410821286088
    Two-Electron Energy =                 277.8107712399846037
    DFT Exchange-Correlation Energy =       0.0000000000000000
    Empirical Dispersion Energy =           0.0000000000000000
    PCM Polarization Energy =               0.0000000000000000
    EFP Energy =                            0.0000000000000000
    Total Energy =                       -266.9391025120006020
    Molecular point group: c1
  Basis Set: CC-PVTZ
  Basis Set:

  -Total Gradient:
     Atom            X                  Y                   Z
    ------   -----------------  -----------------  -----------------
       1       -0.000040833961    -0.000023011460    -0.000067729801
       2        0.000273921118    -0.000556637968     0.000506599532
       3        0.000013285711     0.000021345241     0.000000610485
       4       -0.000340505361     0.001007725209    -0.000572308616
       5        0.000004248814     0.000001828947     0.000003229856
       6        0.000011176938     0.000002496035    -0.000000808446
       7        0.000002472837     0.000002732244    -0.000004551184
       8        0.000436473355    -0.001125169603    -0.000281178693
       9       -0.000327036374     0.000669274215     0.000402520457
      10       -0.000024403362    -0.000012879120     0.000001985744
      11       -0.000008799714     0.000012296263     0.000011630665

  **** Optimization is complete! (in 6 steps) ****
    Final optimized geometry and variables:
    Molecular point group: c1

    Geometry (in Angstrom), charge = 0, multiplicity = 1:

    O            0.509846931159    -0.719802113055    -1.025900943532
    C           -0.266888365361    -0.313709264617    -0.231162357324
    C           -1.690394961919    -0.775461388133    -0.105099072196
    O            0.022837181372     0.616610801466     0.662804039278
    H           -1.856601004734    -1.172875726771     0.887786535100
    H           -1.892117461214    -1.530833229368    -0.846894827316
    H           -2.357625075006     0.066261029595    -0.238331860565
    C            1.340558419468     1.128923516611     0.665971357747
    H            1.513384000125     1.731209512889    -0.214346042802
    H            2.063376242841     0.328731554748     0.699256530343
    H            1.418737695060     1.741897318236     1.549341397963

  Mulliken Charges: (a.u.)
   Center  Symbol    Alpha    Beta     Spin     Total
       1     O     4.19670  4.19670  0.00000 -0.39341
       2     C     2.80156  2.80156  0.00000  0.39688
       3     C     3.13807  3.13807  0.00000 -0.27613
       4     O     4.14784  4.14784  0.00000 -0.29568
       5     H     0.44559  0.44559  0.00000  0.10882
       6     H     0.43788  0.43788  0.00000  0.12425
       7     H     0.44529  0.44529  0.00000  0.10942
       8     C     3.03344  3.03344  0.00000 -0.06688
       9     H     0.45554  0.45554  0.00000  0.08892
      10     H     0.45222  0.45222  0.00000  0.09555
      11     H     0.44587  0.44587  0.00000  0.10825

   Total alpha = 20.00000, Total beta = 20.00000, Total charge = -0.00000
