  ==> Input File <==

--------------------------------------------------------------------------
set {
	reference rhf
	basis cc-pvtz
}

set_num_threads( 4 )
memory 2 gb

molecule MOL {
0 1

O	 0.839851	 0.090130	 0.862604
C	 0.029490	 0.077183	 0.000078
C	 -1.232113	 -0.748027	 0.000015
O	 0.130226	 0.802972	 -1.100974
C	 -2.501422	 0.088592	 -0.000052
H	 -1.188777	 -1.400384	 -0.865133
H	 -1.188857	 -1.400312	 0.865225
H	 -2.548170	 0.725504	 -0.873205
H	 -3.371613	 -0.556398	 -0.000040
H	 -2.548215	 0.725571	 0.873047
C	 1.270428	 1.627779	 -1.232412
H	 1.312103	 2.351021	 -0.431526
H	 1.167860	 2.128689	 -2.181303
H	 2.173085	 1.035086	 -1.219305

	symmetry c1
}
set optking {
	frozen_dihedral = ("
		4 2 3 6
	")
}

ee = optimize('scf')
oeprop('DIPOLE', 'QUADRUPOLE', 'MULLIKEN_CHARGES')
f=open( 'psi4out.xyz', 'w' )
f.write( "14  " )
f.write( str(ee) + "\n" )
f.write( MOL.save_string_xyz() )
f.close()
--------------------------------------------------------------------------

    Molecular point group: c1
  Charge       = 0
  Multiplicity = 1
  Basis Set: CC-PVTZ
  Basis Set:
  @DF-RHF Final Energy:  -305.98585870124998
    Total Energy =                       -305.9858587012495832
    Molecular point group: c1
  Basis Set: CC-PVTZ
  Basis Set:
  Basis Set: CC-PVTZ
  Basis Set:
  @DF-RHF Final Energy:  -305.98614483011215
    Total Energy =                       -305.9861448301119253
  Basis Set: CC-PVTZ
  Basis Set:
  Basis Set: CC-PVTZ
  Basis Set:
  @DF-RHF Final Energy:  -305.98615355541699
    Total Energy =                       -305.9861535554168199
  Basis Set: CC-PVTZ
  Basis Set:
  Basis Set: CC-PVTZ
  Basis Set:
  @DF-RHF Final Energy:  -305.98613756148433
    Total Energy =                       -305.9861375614841563
  Basis Set: CC-PVTZ
  Basis Set:
  Charge       = 0
  Multiplicity = 1
  Basis Set: CC-PVTZ
  Basis Set:

    Orbital Energies (a.u.)
    -----------------------

    Doubly Occupied:

       1A    -20.597838     2A    -20.533820     3A    -11.364435
       4A    -11.279344     5A    -11.236375     6A    -11.224185
       7A     -1.472882     8A     -1.365683     9A     -1.068548
      10A     -0.976718    11A     -0.886231    12A     -0.776504
      13A     -0.698547    14A     -0.683081    15A     -0.676872
      16A     -0.620564    17A     -0.590667    18A     -0.570555
      19A     -0.545748    20A     -0.520764    21A     -0.513872
      22A     -0.504148    23A     -0.460423    24A     -0.437634

  @DF-RHF Final Energy:  -305.98615559108458

   => Energetics <=

    Nuclear Repulsion Energy =            248.7170649109186229
    One-Electron Energy =                -910.1955614439250439
    Two-Electron Energy =                 355.4923409419218956
    DFT Exchange-Correlation Energy =       0.0000000000000000
    Empirical Dispersion Energy =           0.0000000000000000
    PCM Polarization Energy =               0.0000000000000000
    EFP Energy =                            0.0000000000000000
    Total Energy =                       -305.9861555910844686
    Molecular point group: c1
  Basis Set: CC-PVTZ
  Basis Set:

  -Total Gradient:
     Atom            X                  Y                   Z
    ------   -----------------  -----------------  -----------------
       1       -0.000072913085    -0.000009493030    -0.000069153080
       2        0.000301532836    -0.000341716629     0.000069980699
       3       -0.000267942236     0.000296012427    -0.000173372951
       4       -0.000124428563     0.000261788292    -0.000012207200
       5        0.000087595318    -0.000028969338    -0.000000097276
       6        0.000162379392    -0.000202882800     0.000155418685
       7       -0.000000347275     0.000038119792    -0.000018885444
       8       -0.000006782962    -0.000008632387     0.000009165541
       9       -0.000028314913     0.000001199858     0.000002150720
      10       -0.000028058918     0.000021385895     0.000016062588
      11       -0.000040621974    -0.000034487776     0.000024471344
      12        0.000007976266     0.000006293474    -0.000000399510
      13        0.000002607495     0.000000733244    -0.000000987949
      14        0.000007318620     0.000000648978    -0.000002146169

  **** Optimization is complete! (in 5 steps) ****
    Final optimized geometry and variables:
    Molecular point group: c1

    Geometry (in Angstrom), charge = 0, multiplicity = 1:

    O            1.074943731369    -0.276544062071     1.105065594519
    C            0.256267316853    -0.273756871052     0.249852266936
    C           -1.003787762887    -1.100568764834     0.263564446725
    O            0.351750214334     0.468591393497    -0.841049742942
    C           -2.275291953933    -0.251721513108     0.248074212146
    H           -0.983022298683    -1.748561391467    -0.605473932587
    H           -0.964718433463    -1.719956943149     1.147050231264
    H           -2.334053709527     0.349790877275    -0.648464880085
    H           -3.147478173481    -0.891973857083     0.285871389364
    H           -2.311327492573     0.410070014022     1.105570998186
    C            1.492499457375     1.293509020241    -0.966785251651
    H            1.541499361253     2.002369210107    -0.153631013437
    H            1.383790872500     1.811034545438    -1.906075788170
    H            2.393815669276     0.698771559665    -0.970565793085

  Mulliken Charges: (a.u.)
   Center  Symbol    Alpha    Beta     Spin     Total
       1     O     4.19883  4.19883  0.00000 -0.39766
       2     C     2.80065  2.80065  0.00000  0.39870
       3     C     3.08492  3.08492  0.00000 -0.16984
       4     O     4.15023  4.15023  0.00000 -0.30045
       5     C     3.14980  3.14980  0.00000 -0.29960
       6     H     0.44734  0.44734  0.00000  0.10533
       7     H     0.43622  0.43622  0.00000  0.12757
       8     H     0.44590  0.44590  0.00000  0.10820
       9     H     0.44767  0.44767  0.00000  0.10465
      10     H     0.44987  0.44987  0.00000  0.10027
      11     C     3.03559  3.03559  0.00000 -0.07118
      12     H     0.45432  0.45432  0.00000  0.09135
      13     H     0.44569  0.44569  0.00000  0.10861
      14     H     0.45298  0.45298  0.00000  0.09404

   Total alpha = 24.00000, Total beta = 24.00000, Total charge = -0.00000
