                              Psi4 1.0.54 Driver

  ==> Input File <==

--------------------------------------------------------------------------
set {
	reference rhf
	basis cc-pvtz
}

set_num_threads( 4 )
memory 2 gb

molecule MOL {
0 1

O	 1.847685	 1.294399	 -0.000190
C	 1.704209	 0.119472	 -0.000093
C	 0.380337	 -0.600947	 -0.000234
O	 2.715427	 -0.733672	 0.000025
C	 -0.824290	 0.329213	 -0.000115
H	 0.371455	 -1.255476	 -0.865660
H	 0.371410	 -1.255787	 0.864952
C	 -0.809530	 1.298049	 1.178511
H	 -1.732507	 -0.262376	 0.020819
H	 -0.848124	 0.883058	 -0.931768
C	 -2.010094	 2.239766	 1.195379
H	 -0.783113	 0.736268	 2.109615
H	 0.105302	 1.886002	 1.153412
C	 -1.995651	 3.207757	 2.373597
H	 -2.924364	 1.653600	 1.221417
H	 -2.036549	 2.802561	 0.266551
H	 -2.003769	 2.674742	 3.318617
H	 -2.860534	 3.860739	 2.355526
H	 -1.109132	 3.833063	 2.355988
C	 4.020999	 -0.192556	 0.000019
H	 4.182809	 0.412891	 -0.879449
H	 4.692590	 -1.035653	 0.000152
H	 4.182726	 0.413087	 0.879368

	symmetry c1
}
set optking {
	frozen_dihedral = ("
		9 5 3 6
	")
}

ee,wfn = optimize('scf', return_wfn=True)
oeprop( wfn, 'DIPOLE', 'QUADRUPOLE', 'MULLIKEN_CHARGES')
f=open( 'psi4out.xyz', 'w' )
f.write( "23  " )
f.write( str(ee) + "\n" )
f.write( MOL.save_string_xyz() )
f.close()
--------------------------------------------------------------------------

    Molecular point group: c1
  Charge       = 0
  Multiplicity = 1
  Basis Set: CC-PVTZ
  Basis Set:
  @DF-RHF Final Energy:  -423.12623268305219
    Total Energy =                       -423.1262326830518532
    Molecular point group: c1
  Basis Set: CC-PVTZ
  Basis Set:
  Basis Set: CC-PVTZ
  Basis Set:
  @DF-RHF Final Energy:  -423.12896795044725
    Total Energy =                       -423.1289679504466221
  Basis Set: CC-PVTZ
  Basis Set:
  Basis Set: CC-PVTZ
  Basis Set:
  @DF-RHF Final Energy:  -423.12791258347124
    Total Energy =                       -423.1279125834714705
  Basis Set: CC-PVTZ
  Basis Set:
  Basis Set: CC-PVTZ
  Basis Set:
  @DF-RHF Final Energy:  -423.12957323764658
    Total Energy =                       -423.1295732376468095
  Basis Set: CC-PVTZ
  Basis Set:
  @DF-RHF Final Energy:  -423.12972898473311
    Total Energy =                       -423.1297289847331058
  Basis Set: CC-PVTZ
  Basis Set:
  @DF-RHF Final Energy:  -423.12988893320733
    Total Energy =                       -423.1298889332068711
  Basis Set: CC-PVTZ
  Basis Set:
  Basis Set: CC-PVTZ
  Basis Set:
  @DF-RHF Final Energy:  -423.12994067888349
    Total Energy =                       -423.1299406788834858
  Basis Set: CC-PVTZ
  Basis Set:
  Basis Set: CC-PVTZ
  Basis Set:
  @DF-RHF Final Energy:  -423.12994380742145
    Total Energy =                       -423.1299438074211139
  Basis Set: CC-PVTZ
  Basis Set:
  Charge       = 0
  Multiplicity = 1
  Basis Set: CC-PVTZ
  Basis Set:

    Orbital Energies (a.u.)
    -----------------------

    Doubly Occupied:

       1A    -20.597707     2A    -20.533361     3A    -11.365081
       4A    -11.278952     5A    -11.234235     6A    -11.219231
       7A    -11.211646     8A    -11.209718     9A    -11.204619
      10A     -1.473007    11A     -1.365885    12A     -1.092393
      13A     -1.042595    14A     -0.986875    15A     -0.931753
      16A     -0.844339    17A     -0.794942    18A     -0.768151
      19A     -0.701802    20A     -0.683980    21A     -0.675030
      22A     -0.643412    23A     -0.613394    24A     -0.600700
      25A     -0.569665    26A     -0.561440    27A     -0.553410
      28A     -0.529314    29A     -0.524701    30A     -0.502245
      31A     -0.492820    32A     -0.468934    33A     -0.464881
      34A     -0.458158    35A     -0.452961    36A     -0.436994

  @DF-RHF Final Energy:  -423.12994446028222

   => Energetics <=

    Nuclear Repulsion Energy =            464.6278994718679769
    One-Electron Energy =               -1497.3390222533298584
    Two-Electron Energy =                 609.5811783211797774
    DFT Exchange-Correlation Energy =       0.0000000000000000
    Empirical Dispersion Energy =           0.0000000000000000
    PCM Polarization Energy =               0.0000000000000000
    EFP Energy =                            0.0000000000000000
    Total Energy =                       -423.1299444602821040
    Molecular point group: c1
  Basis Set: CC-PVTZ
  Basis Set:

  -Total Gradient:
     Atom            X                  Y                   Z
    ------   -----------------  -----------------  -----------------
       1        0.000021113059    -0.000059090371     0.000030470281
       2       -0.000055177786     0.000078167541    -0.000019976861
       3       -0.001926451930    -0.002309323897     0.002385485404
       4       -0.000015460955     0.000016374915    -0.000014805816
       5        0.000439105417     0.000426719725    -0.003689247994
       6        0.001527229253     0.001841319660    -0.001411990494
       7        0.000006915101    -0.000020301190    -0.000010532322
       8        0.000025123673     0.000002402875    -0.000017464703
       9       -0.000007831760     0.000024025226     0.002743236442
      10       -0.000014206817     0.000011014427    -0.000011266740
      11        0.000004502374    -0.000010842820     0.000012851948
      12       -0.000008428364     0.000002374347     0.000002361289
      13        0.000001558716    -0.000003689675     0.000002351036
      14        0.000001077693     0.000001460311    -0.000002989272
      15       -0.000006461973     0.000001134623     0.000001387150
      16        0.000002491753    -0.000001077599    -0.000000689090
      17       -0.000000045871    -0.000001842259    -0.000001276694
      18       -0.000001903783     0.000003267703    -0.000000479682
      19        0.000001271091    -0.000000032044     0.000000695405
      20       -0.000049061403    -0.000029922626     0.000012368934
      21        0.000012606619     0.000008649728    -0.000034704511
      22        0.000034635294    -0.000015085591     0.000008838406
      23        0.000007400608     0.000034296987     0.000015377886

  **** Optimization is complete! (in 9 steps) ****
    Final optimized geometry and variables:
    Molecular point group: c1

    Geometry (in Angstrom), charge = 0, multiplicity = 1:

    O            1.352660757467     0.401597671851    -1.062935020583
    C            1.155325106133    -0.671803004602    -0.603009519211
    C           -0.188855316458    -1.355293623033    -0.534166223860
    O            2.118601557355    -1.441717376011    -0.126376437256
    C           -1.379142611500    -0.401529718395    -0.560899951590
    H           -0.209397631544    -1.997962072453    -1.410364297882
    H           -0.208734268970    -2.001184163909     0.333404549194
    C           -1.444384266027     0.546235317010     0.636089608672
    H           -2.281496040145    -1.005542404817    -0.562522046609
    H           -1.365337264785     0.169035297442    -1.481225668356
    C           -2.678353784338     1.443943956715     0.612862250987
    H           -1.445816474422    -0.037630516055     1.554673373486
    H           -0.555176870414     1.165570695021     0.660383157550
    C           -2.751105095622     2.390199932971     1.806504407483
    H           -3.573411773920     0.827919876344     0.586799733574
    H           -2.679821861316     2.023462333324    -0.305946605463
    H           -2.784081206108     1.839940839141     2.741168011009
    H           -3.636114349879     3.014366122846     1.759487345236
    H           -1.886271625097     3.044150089590     1.839456477187
    C            3.440614742082    -0.946602914773    -0.198923823846
    H            3.723617414027    -0.764250717360    -1.225093984350
    H            4.068406949306    -1.710462068528     0.230392425727
    H            3.534670063220    -0.028107016464     0.361077384201

  Mulliken Charges: (a.u.)
   Center  Symbol    Alpha    Beta     Spin     Total
       1     O     4.20227  4.20227  0.00000 -0.40455
       2     C     2.80291  2.80291  0.00000  0.39418
       3     C     3.10924  3.10924  0.00000 -0.21848
       4     O     4.14577  4.14577  0.00000 -0.29155
       5     C     3.08943  3.08943  0.00000 -0.17887
       6     H     0.43569  0.43569  0.00000  0.12863
       7     H     0.43629  0.43629  0.00000  0.12742
       8     C     3.09233  3.09233  0.00000 -0.18466
       9     H     0.44756  0.44756  0.00000  0.10488
      10     H     0.44535  0.44535  0.00000  0.10930
      11     C     3.08566  3.08566  0.00000 -0.17132
      12     H     0.45739  0.45739  0.00000  0.08521
      13     H     0.44335  0.44335  0.00000  0.11330
      14     C     3.14997  3.14997  0.00000 -0.29994
      15     H     0.45575  0.45575  0.00000  0.08851
      16     H     0.45251  0.45251  0.00000  0.09498
      17     H     0.45625  0.45625  0.00000  0.08749
      18     H     0.44877  0.44877  0.00000  0.10246
      19     H     0.45361  0.45361  0.00000  0.09278
      20     C     3.03609  3.03609  0.00000 -0.07217
      21     H     0.45445  0.45445  0.00000  0.09110
      22     H     0.44524  0.44524  0.00000  0.10951
      23     H     0.45411  0.45411  0.00000  0.09178

   Total alpha = 36.00000, Total beta = 36.00000, Total charge =  0.00000

*** Psi4 exiting successfully. Buy a developer a beer!
