                              Psi4 1.0.54 Driver

  ==> Input File <==

--------------------------------------------------------------------------
set {
	reference rhf
	basis cc-pvtz
}

set_num_threads( 4 )
memory 2 gb

molecule MOL {
0 1

H	 -2.816473	 -0.841717	 -0.064695
N	 -1.878876	 -0.711934	 0.250168
C	 -1.341434	 0.551398	 -0.220247
H	 -1.333689	 -1.468590	 -0.105134
C	 0.082175	 0.731456	 0.254689
H	 -1.357080	 0.652018	 -1.304763
H	 -1.939912	 1.357470	 0.189781
O	 0.881180	 -0.248384	 -0.336253
H	 0.440886	 1.722416	 -0.020079
H	 0.119881	 0.643526	 1.338098
C	 2.208053	 -0.234477	 0.074155
H	 2.725484	 -1.027114	 -0.446784
H	 2.688362	 0.712024	 -0.164872
H	 2.295122	 -0.403467	 1.144867

	symmetry c1
}
ee,wfn = energy('scf', return_wfn=True)
oeprop( wfn, 'DIPOLE', 'QUADRUPOLE', 'MULLIKEN_CHARGES')
oeprop( wfn, 'GRID_ESP')
f=open( 'psi4out.xyz', 'w' )
f.write( "14  " )
f.write( str(ee) + "\n" )
f.write( MOL.save_string_xyz() )
f.close()
--------------------------------------------------------------------------

    Molecular point group: c1

    Geometry (in Angstrom), charge = 0, multiplicity = 1:

       Center              X                  Y                   Z               Mass
    ------------   -----------------  -----------------  -----------------  -----------------
           H         -2.816458412152    -0.841656809049    -0.064678991122     1.007825032070
           N         -1.878861412152    -0.711873809049     0.250184008878    14.003074004780
           C         -1.341419412152     0.551458190951    -0.220230991122    12.000000000000
           H         -1.333674412152    -1.468529809049    -0.105117991122     1.007825032070
           C          0.082189587848     0.731516190951     0.254705008878    12.000000000000
           H         -1.357065412152     0.652078190951    -1.304746991122     1.007825032070
           H         -1.939897412152     1.357530190951     0.189797008878     1.007825032070
           O          0.881194587848    -0.248323809049    -0.336236991122    15.994914619560
           H          0.440900587848     1.722476190951    -0.020062991122     1.007825032070
           H          0.119895587848     0.643586190951     1.338114008878     1.007825032070
           C          2.208067587848    -0.234416809049     0.074171008878    12.000000000000
           H          2.725498587848    -1.027053809049    -0.446767991122     1.007825032070
           H          2.688376587848     0.712084190951    -0.164855991122     1.007825032070
           H          2.295136587848    -0.403406809049     1.144883008878     1.007825032070

  Charge       = 0
  Multiplicity = 1
  Basis Set: CC-PVTZ
  Basis Set:

    Orbital Energies (a.u.)
    -----------------------

    Doubly Occupied:

       1A    -20.550777     2A    -15.523560     3A    -11.263956
       4A    -11.263646     5A    -11.239930     6A     -1.384649
       7A     -1.176050     8A     -1.000615     9A     -0.907672
      10A     -0.815803    11A     -0.685512    12A     -0.676168
      13A     -0.647397    14A     -0.612249    15A     -0.607627
      16A     -0.542200    17A     -0.530347    18A     -0.498036
      19A     -0.474551    20A     -0.420254    21A     -0.383932

  @DF-RHF Final Energy:  -248.22619657250596

   => Energetics <=

    Nuclear Repulsion Energy =            194.6992648802969370
    One-Electron Energy =                -723.4411194758590682
    Two-Electron Energy =                 280.5156580230561758
    DFT Exchange-Correlation Energy =       0.0000000000000000
    Empirical Dispersion Energy =           0.0000000000000000
    PCM Polarization Energy =               0.0000000000000000
    EFP Energy =                            0.0000000000000000
    Total Energy =                       -248.2261965725059554

  Mulliken Charges: (a.u.)
   Center  Symbol    Alpha    Beta     Spin     Total
       1     H     0.43022  0.43022  0.00000  0.13955
       2     N     3.69419  3.69419  0.00000 -0.38837
       3     C     3.02194  3.02194  0.00000 -0.04387
       4     H     0.42249  0.42249  0.00000  0.15502
       5     C     2.96938  2.96938  0.00000  0.06124
       6     H     0.46451  0.46451  0.00000  0.07097
       7     H     0.45870  0.45870  0.00000  0.08261
       8     O     4.17996  4.17996  0.00000 -0.35992
       9     H     0.46968  0.46968  0.00000  0.06063
      10     H     0.46860  0.46860  0.00000  0.06281
      11     C     3.03185  3.03185  0.00000 -0.06370
      12     H     0.44758  0.44758  0.00000  0.10484
      13     H     0.47117  0.47117  0.00000  0.05765
      14     H     0.46974  0.46974  0.00000  0.06053

   Total alpha = 21.00000, Total beta = 21.00000, Total charge =  0.00000

*** Psi4 exiting successfully. Buy a developer a beer!
