  ==> Input File <==

--------------------------------------------------------------------------
set {
	reference rhf
	basis 6-31G*
}

set_num_threads( 1 )
memory 2 gb

molecule MOL {
0 1

H	 2.650994	 1.935097	 0.004804
O	 3.366180	 1.558124	 -0.486592
C	 3.592546	 0.239577	 -0.057352
C	 2.514839	 -0.735826	 -0.517639
H	 4.548179	 -0.046720	 -0.477439
H	 3.692395	 0.203628	 1.026861
C	 1.126950	 -0.447799	 0.060004
H	 2.470157	 -0.713126	 -1.603390
H	 2.823323	 -1.740614	 -0.233729
C	 0.079445	 -1.475492	 -0.377486
H	 0.811343	 0.545334	 -0.247316
H	 1.183090	 -0.436289	 1.148607
C	 -1.309753	 -1.282496	 0.241564
H	 -0.004975	 -1.460908	 -1.462617
H	 0.438250	 -2.468540	 -0.115159
C	 -2.037799	 -0.007733	 -0.193645
H	 -1.924221	 -2.140337	 -0.023679
H	 -1.224598	 -1.296569	 1.327100
C	 -3.489788	 0.042957	 0.286558
H	 -2.017067	 0.064384	 -1.280144
H	 -1.513726	 0.868678	 0.179924
C	 -4.216917	 1.317354	 -0.141063
H	 -4.025645	 -0.823308	 -0.095450
H	 -3.513059	 -0.038752	 1.371301
H	 -4.239342	 1.411634	 -1.223113
H	 -5.243387	 1.322503	 0.212445
H	 -3.726170	 2.201406	 0.256408

	symmetry c1
}
set optking {
	frozen_dihedral = ("
		14 10 7 4,
		14 10 13 16,
		10 7 4 8,
		8 4 3 2,
		20 16 19 22,
		4 3 2 1
	")
}

ee = energy('scf')
oeprop('DIPOLE', 'QUADRUPOLE', 'MULLIKEN_CHARGES')
f=open( 'psi4out.xyz', 'w' )
f.write( "27  " )
f.write( str(ee) + "\n" )
f.write( MOL.save_string_xyz() )
f.close()
--------------------------------------------------------------------------

    Molecular point group: c1

    Geometry (in Angstrom), charge = 0, multiplicity = 1:

       Center              X                  Y                   Z               Mass
    ------------   -----------------  -----------------  -----------------  -----------------
           H          2.650436080587     1.980467905783     0.138633098736     1.007825032070
           O          3.365622080587     1.603494905783    -0.352762901264    15.994914619560
           C          3.591988080587     0.284947905783     0.076477098736    12.000000000000
           C          2.514281080587    -0.690455094217    -0.383809901264    12.000000000000
           H          4.547621080587    -0.001349094217    -0.343609901264     1.007825032070
           H          3.691837080587     0.248998905783     1.160690098736     1.007825032070
           C          1.126392080587    -0.402428094217     0.193833098736    12.000000000000
           H          2.469599080587    -0.667755094217    -1.469560901264     1.007825032070
           H          2.822765080587    -1.695243094217    -0.099899901264     1.007825032070
           C          0.078887080587    -1.430121094217    -0.243656901264    12.000000000000
           H          0.810785080587     0.590704905783    -0.113486901264     1.007825032070
           H          1.182532080587    -0.390918094217     1.282436098736     1.007825032070
           C         -1.310310919413    -1.237125094217     0.375393098736    12.000000000000
           H         -0.005532919413    -1.415537094217    -1.328787901264     1.007825032070
           H          0.437692080587    -2.423169094217     0.018670098736     1.007825032070
           C         -2.038356919413     0.037637905783    -0.059815901264    12.000000000000
           H         -1.924778919413    -2.094966094217     0.110150098736     1.007825032070
           H         -1.225155919413    -1.251198094217     1.460929098736     1.007825032070
           C         -3.490345919413     0.088327905783     0.420387098736    12.000000000000
           H         -2.017624919413     0.109754905783    -1.146314901264     1.007825032070
           H         -1.514283919413     0.914048905783     0.313753098736     1.007825032070
           C         -4.217474919413     1.362724905783    -0.007233901264    12.000000000000
           H         -4.026202919413    -0.777937094217     0.038379098736     1.007825032070
           H         -3.513616919413     0.006618905783     1.505130098736     1.007825032070
           H         -4.239899919413     1.457004905783    -1.089283901264     1.007825032070
           H         -5.243944919413     1.367873905783     0.346274098736     1.007825032070
           H         -3.726727919413     2.246776905783     0.390237098736     1.007825032070

  Charge       = 0
  Multiplicity = 1
  Basis Set: 6-31G*
  Basis Set:

    Orbital Energies (a.u.)
    -----------------------

    Doubly Occupied:

       1A    -20.552284     2A    -11.267058     3A    -11.219827
       4A    -11.217308     5A    -11.216166     6A    -11.215688
       7A    -11.215231     8A    -11.214370     9A    -11.209409
      10A     -1.359031    11A     -1.095247    12A     -1.061603
      13A     -1.011562    14A     -0.948529    15A     -0.888039
      16A     -0.819989    17A     -0.801746    18A     -0.778193
      19A     -0.693689    20A     -0.652472    21A     -0.637386
      22A     -0.614759    23A     -0.600429    24A     -0.583343
      25A     -0.579962    26A     -0.552490    27A     -0.540861
      28A     -0.531843    29A     -0.505361    30A     -0.493894
      31A     -0.485233    32A     -0.473959    33A     -0.469645
      34A     -0.460991    35A     -0.452361    36A     -0.441836
      37A     -0.422832

  @DF-RHF Final Energy:  -388.28170009162773

   => Energetics <=

    Nuclear Repulsion Energy =            459.5891755673932266
    One-Electron Energy =               -1437.1725790916379992
    Two-Electron Energy =                 589.3017034326146586
    DFT Exchange-Correlation Energy =       0.0000000000000000
    Empirical Dispersion Energy =           0.0000000000000000
    PCM Polarization Energy =               0.0000000000000000
    EFP Energy =                            0.0000000000000000
    Total Energy =                       -388.2817000916301140

  Mulliken Charges: (a.u.)
   Center  Symbol    Alpha    Beta     Spin     Total
       1     H     0.27991  0.27991  0.00000  0.44018
       2     O     4.37094  4.37094  0.00000 -0.74188
       3     C     2.99735  2.99735  0.00000  0.00530
       4     C     3.16100  3.16100  0.00000 -0.32199
       5     H     0.41444  0.41444  0.00000  0.17111
       6     H     0.43206  0.43206  0.00000  0.13589
       7     C     3.16328  3.16328  0.00000 -0.32656
       8     H     0.41497  0.41497  0.00000  0.17007
       9     H     0.42432  0.42432  0.00000  0.15136
      10     C     3.15214  3.15214  0.00000 -0.30427
      11     H     0.42276  0.42276  0.00000  0.15448
      12     H     0.42546  0.42546  0.00000  0.14907
      13     C     3.15358  3.15358  0.00000 -0.30717
      14     H     0.42158  0.42158  0.00000  0.15684
      15     H     0.42156  0.42156  0.00000  0.15687
      16     C     3.15228  3.15228  0.00000 -0.30456
      17     H     0.42124  0.42124  0.00000  0.15752
      18     H     0.42410  0.42410  0.00000  0.15180
      19     C     3.15136  3.15136  0.00000 -0.30272
      20     H     0.42362  0.42362  0.00000  0.15276
      21     H     0.42391  0.42391  0.00000  0.15218
      22     C     3.23920  3.23920  0.00000 -0.47840
      23     H     0.42278  0.42278  0.00000  0.15443
      24     H     0.42326  0.42326  0.00000  0.15348
      25     H     0.42142  0.42142  0.00000  0.15716
      26     H     0.41920  0.41920  0.00000  0.16159
      27     H     0.42227  0.42227  0.00000  0.15546

   Total alpha = 37.00000, Total beta = 37.00000, Total charge =  0.00000
