                              Psi4 1.0.54 Driver

  ==> Input File <==

--------------------------------------------------------------------------
set {
	reference rhf
	basis cc-pvtz
}

set_num_threads( 4 )
memory 2 gb

molecule MOL {
0 1

H	 5.269878	 0.195679	 1.068175
C	 4.673900	 -0.208485	 0.258034
C	 3.190199	 -0.204714	 0.610086
H	 4.865136	 0.391893	 -0.624684
H	 5.027838	 -1.214511	 0.056939
C	 2.319208	 -0.778154	 -0.505491
H	 2.876954	 0.809861	 0.827925
H	 3.035335	 -0.782733	 1.518235
C	 1.073707	 -1.502597	 -0.004696
H	 2.018660	 0.017542	 -1.175840
H	 2.908610	 -1.478469	 -1.090255
C	 -0.005969	 -0.593513	 0.557755
H	 0.611716	 -2.049849	 -0.822525
H	 1.331516	 -2.249726	 0.740187
C	 -1.077425	 -1.231298	 1.420646
O	 -0.028872	 0.570668	 0.318104
C	 -1.944653	 -2.251010	 0.674679
H	 -1.692766	 -0.429604	 1.805980
H	 -0.594246	 -1.717664	 2.263962
C	 -3.071887	 -2.802605	 1.543445
H	 -2.369226	 -1.780321	 -0.207809
H	 -1.332391	 -3.075259	 0.322897
C	 -3.947408	 -3.813354	 0.810658
H	 -3.686877	 -1.979877	 1.895550
H	 -2.646963	 -3.267206	 2.428973
H	 -4.411342	 -3.368240	 -0.063023
H	 -3.366393	 -4.666751	 0.477198
H	 -4.738428	 -4.182958	 1.452524

	symmetry c1
}
set optking {
	frozen_dihedral = ("
		10 6 3 2
	")
}

ee,wfn = optimize('scf', return_wfn=True)
oeprop( wfn, 'DIPOLE', 'QUADRUPOLE', 'MULLIKEN_CHARGES')
f=open( 'psi4out.xyz', 'w' )
f.write( "28  " )
f.write( str(ee) + "\n" )
f.write( MOL.save_string_xyz() )
f.close()
--------------------------------------------------------------------------

    Molecular point group: c1
  Charge       = 0
  Multiplicity = 1
  Basis Set: CC-PVTZ
  Basis Set:
  @DF-RHF Final Energy:  -426.31675355276809
    Total Energy =                       -426.3167535527686596
    Molecular point group: c1
  Basis Set: CC-PVTZ
  Basis Set:
  Basis Set: CC-PVTZ
  Basis Set:
  @DF-RHF Final Energy:  -426.31704090174958
    Total Energy =                       -426.3170409017490101
  Basis Set: CC-PVTZ
  Basis Set:
  Basis Set: CC-PVTZ
  Basis Set:
  @DF-RHF Final Energy:  -426.31490993689113
    Total Energy =                       -426.3149099368911266
  Basis Set: CC-PVTZ
  Basis Set:
  Basis Set: CC-PVTZ
  Basis Set:
  @DF-RHF Final Energy:  -426.31688933698490
    Total Energy =                       -426.3168893369850139
  Basis Set: CC-PVTZ
  Basis Set:
  @DF-RHF Final Energy:  -426.31711475234079
    Total Energy =                       -426.3171147523413538
  @DF-RHF Final Energy:  -426.31713410352222
    Total Energy =                       -426.3171341035226760
  Basis Set: CC-PVTZ
  Basis Set:
  @DF-RHF Final Energy:  -426.31713902367858
    Total Energy =                       -426.3171390236782372
  Basis Set: CC-PVTZ
  Basis Set:
  Basis Set: CC-PVTZ
  Basis Set:
  @DF-RHF Final Energy:  -426.31713780597511
    Total Energy =                       -426.3171378059746530
  Basis Set: CC-PVTZ
  Basis Set:
  Basis Set: CC-PVTZ
  Basis Set:
  @DF-RHF Final Energy:  -426.31714083584802
    Total Energy =                       -426.3171408358482495
  Basis Set: CC-PVTZ
  Basis Set:
  Charge       = 0
  Multiplicity = 1
  Basis Set: CC-PVTZ
  Basis Set:

    Orbital Energies (a.u.)
    -----------------------

    Doubly Occupied:

       1A    -20.536797     2A    -11.316393     3A    -11.229770
       4A    -11.228077     5A    -11.226807     6A    -11.223773
       7A    -11.214772     8A    -11.214217     9A    -11.210292
      10A    -11.205170    11A     -1.396564    12A     -1.095972
      13A     -1.077791    14A     -1.023322    15A     -0.991889
      16A     -0.908132    17A     -0.873671    18A     -0.809371
      19A     -0.800985    20A     -0.723691    21A     -0.669249
      22A     -0.653848    23A     -0.634580    24A     -0.621877
      25A     -0.605986    26A     -0.584503    27A     -0.583228
      28A     -0.576771    29A     -0.542604    30A     -0.536158
      31A     -0.519818    32A     -0.504932    33A     -0.503336
      34A     -0.485730    35A     -0.480623    36A     -0.476572
      37A     -0.473014    38A     -0.462434    39A     -0.456399
      40A     -0.394125

  @DF-RHF Final Energy:  -426.31714100173201

   => Energetics <=

    Nuclear Repulsion Energy =            531.8495348602060631
    One-Electron Energy =               -1632.1868611595825769
    Two-Electron Energy =                 674.0201852976447299
    DFT Exchange-Correlation Energy =       0.0000000000000000
    Empirical Dispersion Energy =           0.0000000000000000
    PCM Polarization Energy =               0.0000000000000000
    EFP Energy =                            0.0000000000000000
    Total Energy =                       -426.3171410017316703
    Molecular point group: c1
  Basis Set: CC-PVTZ
  Basis Set:

  -Total Gradient:
     Atom            X                  Y                   Z
    ------   -----------------  -----------------  -----------------
       1        0.000003863479     0.000004651808     0.000003822897
       2        0.000340886417    -0.002510226940     0.001478180357
       3       -0.001288706709     0.003649800803    -0.001552034337
       4        0.000002218186     0.000000487607    -0.000007510789
       5       -0.000001898971    -0.000001629764     0.000004124173
       6        0.004304413449    -0.001894662067    -0.002027375052
       7        0.000008165222     0.000000407446    -0.000004949708
       8       -0.000000257368    -0.000001312751     0.000007812915
       9        0.000001859589    -0.000021752005     0.000015224620
      10       -0.003379148242     0.000760647526     0.002091867503
      11        0.000000150170     0.000000729465    -0.000001166984
      12       -0.000014005098     0.000023732930     0.000009353727
      13       -0.000001418338     0.000003778577    -0.000003404792
      14        0.000007022277    -0.000003048488    -0.000003029290
      15       -0.000008127255     0.000000898365    -0.000022305173
      16        0.000013213586    -0.000014744333     0.000004077091
      17        0.000004577209     0.000002851236     0.000013698070
      18       -0.000000026247     0.000000119095     0.000001728255
      19        0.000009629004     0.000002803208     0.000004407279
      20       -0.000006427610     0.000001370459    -0.000005141884
      21       -0.000005319464     0.000000348407    -0.000003983598
      22       -0.000002331886    -0.000006085523    -0.000001725427
      23        0.000009211086    -0.000002279731    -0.000001987873
      24        0.000002250434     0.000007442172    -0.000000419016
      25        0.000004605008     0.000001088039     0.000002219577
      26       -0.000002166570     0.000001297866    -0.000001323794
      27       -0.000000656976    -0.000005347895    -0.000003063930
      28       -0.000001574383    -0.000001365513     0.000002905181

  **** Optimization is complete! (in 10 steps) ****
    Final optimized geometry and variables:
    Molecular point group: c1

    Geometry (in Angstrom), charge = 0, multiplicity = 1:

    H            5.089429086952     1.682945612653     0.403238619350
    C            4.536232565170     1.132742276922    -0.349357410155
    C            3.043966430086     1.112046857789    -0.032748192259
    H            4.729261529380     1.602560843490    -1.308570518910
    H            4.939212504398     0.126257826136    -0.389084263473
    C            2.216964823471     0.375003653218    -1.095468545784
    H            2.671011727200     2.121164128450     0.082822235697
    H            2.909433516873     0.625315484119     0.930524563595
    C            0.964342954774    -0.301252551740    -0.543311701550
    H            1.901289326412     1.075642137584    -1.858192057566
    H            2.825504314249    -0.385117414050    -1.573573506680
    C           -0.103757202647     0.658511926220    -0.048203846519
    H            0.497408827504    -0.902423423582    -1.319655170967
    H            1.215666273350    -0.993293089523     0.254944796217
    C           -1.190974686500     0.096395623211     0.846845833941
    O           -0.105000800087     1.805028562077    -0.362879390464
    C           -2.072200417221    -0.953652826903     0.161924617006
    H           -1.793891378467     0.931843093519     1.176001402503
    H           -0.721342236328    -0.343321238143     1.722741644241
    C           -3.213650939268    -1.428704891781     1.056846806231
    H           -2.483619335575    -0.533061842462    -0.751525641907
    H           -1.472879180897    -1.809292584970    -0.132475330529
    C           -4.100101340682    -2.472482514288     0.386228846823
    H           -3.817842862104    -0.575009562925     1.348790471368
    H           -2.801877280016    -1.839797704129     1.974453765212
    H           -4.552225163682    -2.079036934365    -0.517902390349
    H           -3.530165921075    -3.354438651456     0.113492573851
    H           -4.900270790223    -2.787315148416     1.045713095624

  Mulliken Charges: (a.u.)
   Center  Symbol    Alpha    Beta     Spin     Total
       1     H     0.44886  0.44886  0.00000  0.10228
       2     C     3.14970  3.14970  0.00000 -0.29939
       3     C     3.09054  3.09054  0.00000 -0.18108
       4     H     0.45370  0.45370  0.00000  0.09260
       5     H     0.45765  0.45765  0.00000  0.08470
       6     C     3.08780  3.08780  0.00000 -0.17559
       7     H     0.43813  0.43813  0.00000  0.12374
       8     H     0.45946  0.45946  0.00000  0.08108
       9     C     3.13374  3.13374  0.00000 -0.26749
      10     H     0.44431  0.44431  0.00000  0.11137
      11     H     0.44731  0.44731  0.00000  0.10538
      12     C     2.86135  2.86135  0.00000  0.27730
      13     H     0.43513  0.43513  0.00000  0.12974
      14     H     0.44214  0.44214  0.00000  0.11572
      15     C     3.09236  3.09236  0.00000 -0.18471
      16     O     4.17821  4.17821  0.00000 -0.35643
      17     C     3.10123  3.10123  0.00000 -0.20245
      18     H     0.43809  0.43809  0.00000  0.12383
      19     H     0.44897  0.44897  0.00000  0.10206
      20     C     3.08719  3.08719  0.00000 -0.17437
      21     H     0.44566  0.44566  0.00000  0.10868
      22     H     0.45039  0.45039  0.00000  0.09922
      23     C     3.14918  3.14918  0.00000 -0.29836
      24     H     0.44980  0.44980  0.00000  0.10041
      25     H     0.45367  0.45367  0.00000  0.09267
      26     H     0.45343  0.45343  0.00000  0.09314
      27     H     0.45521  0.45521  0.00000  0.08958
      28     H     0.44681  0.44681  0.00000  0.10638

   Total alpha = 40.00000, Total beta = 40.00000, Total charge = -0.00000

*** Psi4 exiting successfully. Buy a developer a beer!
