                              Psi4 1.0.54 Driver

  ==> Input File <==

--------------------------------------------------------------------------
set {
	reference rhf
	basis cc-pvtz
}

set_num_threads( 4 )
memory 2 gb

molecule MOL {
0 1

O	 -2.071633	 -1.227563	 -0.223463
C	 -1.652164	 -0.152425	 0.058082
C	 -0.327811	 0.006324	 0.778296
C	 -2.402515	 1.108629	 -0.298924
C	 0.849600	 -0.135969	 -0.193754
H	 -0.282215	 0.971189	 1.272341
H	 -0.271143	 -0.766711	 1.533970
C	 2.203415	 -0.000246	 0.496894
H	 0.771888	 0.612930	 -0.977849
H	 0.782880	 -1.102846	 -0.680643
C	 3.377572	 -0.153604	 -0.463834
H	 2.262218	 0.967252	 0.987826
H	 2.279199	 -0.746719	 1.282116
H	 3.348841	 0.602037	 -1.241790
H	 3.363248	 -1.124761	 -0.946553
H	 4.323317	 -0.056430	 0.056287
H	 -3.240910	 0.874416	 -0.936711
H	 -1.747554	 1.818823	 -0.790984
H	 -2.760419	 1.579708	 0.610998

	symmetry c1
}
set optking {
	frozen_dihedral = ("
		5 3 2 4
	")
}

ee,wfn = optimize('scf', return_wfn=True)
oeprop( wfn, 'DIPOLE', 'QUADRUPOLE', 'MULLIKEN_CHARGES')
f=open( 'psi4out.xyz', 'w' )
f.write( "19  " )
f.write( str(ee) + "\n" )
f.write( MOL.save_string_xyz() )
f.close()
--------------------------------------------------------------------------

    Molecular point group: c1
  Charge       = 0
  Multiplicity = 1
  Basis Set: CC-PVTZ
  Basis Set:
  @DF-RHF Final Energy:  -309.17733275690529
    Total Energy =                       -309.1773327569053436
    Molecular point group: c1
  Basis Set: CC-PVTZ
  Basis Set:
  Basis Set: CC-PVTZ
  Basis Set:
  @DF-RHF Final Energy:  -309.17730672777753
    Total Energy =                       -309.1773067277775340
  Basis Set: CC-PVTZ
  Basis Set:
  Basis Set: CC-PVTZ
  Basis Set:
  @DF-RHF Final Energy:  -309.17733669569390
    Total Energy =                       -309.1773366956937252
  Basis Set: CC-PVTZ
  Basis Set:
  Basis Set: CC-PVTZ
  Basis Set:
  @DF-RHF Final Energy:  -309.17734018952370
    Total Energy =                       -309.1773401895241022
  Basis Set: CC-PVTZ
  Basis Set:
  Charge       = 0
  Multiplicity = 1
  Basis Set: CC-PVTZ
  Basis Set:

    Orbital Energies (a.u.)
    -----------------------

    Doubly Occupied:

       1A    -20.536888     2A    -11.319625     3A    -11.228197
       4A    -11.227563     5A    -11.227201     6A    -11.222501
       7A    -11.212706     8A     -1.397215     9A     -1.092264
      10A     -1.030455    11A     -0.984973    12A     -0.890373
      13A     -0.806731    14A     -0.734510    15A     -0.664847
      16A     -0.648017    17A     -0.624897    18A     -0.614906
      19A     -0.583174    20A     -0.574473    21A     -0.553861
      22A     -0.537868    23A     -0.515158    24A     -0.499918
      25A     -0.482203    26A     -0.476269    27A     -0.469829
      28A     -0.399284

  @DF-RHF Final Energy:  -309.17733925854338

   => Energetics <=

    Nuclear Repulsion Energy =            301.8304103499739313
    One-Electron Energy =               -1016.9036920535312447
    Two-Electron Energy =                 405.8959424450137590
    DFT Exchange-Correlation Energy =       0.0000000000000000
    Empirical Dispersion Energy =           0.0000000000000000
    PCM Polarization Energy =               0.0000000000000000
    EFP Energy =                            0.0000000000000000
    Total Energy =                       -309.1773392585435545
    Molecular point group: c1
  Basis Set: CC-PVTZ
  Basis Set:

  -Total Gradient:
     Atom            X                  Y                   Z
    ------   -----------------  -----------------  -----------------
       1        0.000032244057     0.000069179707     0.000009815459
       2        0.000094920143    -0.000151100100    -0.000159025190
       3       -0.000079204075     0.000077782599     0.000075497342
       4       -0.000022250089     0.000022269334     0.000089449076
       5        0.000011540853    -0.000022628396     0.000022882173
       6       -0.000025670302     0.000033915944    -0.000058881882
       7       -0.000013402910     0.000032467785     0.000038476692
       8       -0.000009584008    -0.000048404610    -0.000019964511
       9        0.000060595105     0.000006336765    -0.000020828569
      10       -0.000028553031     0.000026131668    -0.000021291829
      11        0.000008879927    -0.000009213722     0.000000533441
      12       -0.000017467234    -0.000014503087    -0.000021134369
      13        0.000003738133    -0.000000598771     0.000015759885
      14       -0.000003781612    -0.000001530241     0.000002313062
      15        0.000003155249     0.000001909671     0.000000892599
      16        0.000000035625    -0.000000875061    -0.000001758307
      17        0.000034831961     0.000002850663     0.000022740963
      18       -0.000046678707    -0.000010576503     0.000030289349
      19       -0.000003349086    -0.000013413646    -0.000005765387

  **** Optimization is complete! (in 5 steps) ****
    Final optimized geometry and variables:
    Molecular point group: c1

    Geometry (in Angstrom), charge = 0, multiplicity = 1:

    O           -2.070702467333    -1.149740766820    -0.231986940186
    C           -1.655359418221    -0.071820703967     0.044761274065
    C           -0.332287672903     0.092632322482     0.767140609723
    C           -2.408281550437     1.185216239984    -0.318765273830
    C            0.845792635210    -0.051037680390    -0.203464944256
    H           -0.288684059955     1.057054242616     1.261552526372
    H           -0.275221674908    -0.679748409904     1.524063548634
    C            2.199517762590     0.073122792616     0.489220446453
    H            0.772522089444     0.703175081605    -0.983246058732
    H            0.772850422596    -1.014208076201    -0.696007644488
    C            3.373672795813    -0.079389292882    -0.471672336411
    H            2.263063561494     1.036792600561     0.987056776652
    H            2.270957872763    -0.679292252456     1.269255981722
    H            3.348617601747     0.681130581592    -1.244978845898
    H            3.355331557981    -1.047458944057    -0.960388080294
    H            4.319539441908     0.010489787105     0.049561759445
    H           -3.256576664517     0.944743744666    -0.940839537745
    H           -1.757096316732     1.884694652945    -0.831257046944
    H           -2.749916972533     1.672191270299     0.589014472767

  Mulliken Charges: (a.u.)
   Center  Symbol    Alpha    Beta     Spin     Total
       1     O     4.17798  4.17798  0.00000 -0.35595
       2     C     2.85797  2.85797  0.00000  0.28407
       3     C     3.09902  3.09902  0.00000 -0.19804
       4     C     3.15486  3.15486  0.00000 -0.30973
       5     C     3.09588  3.09588  0.00000 -0.19177
       6     H     0.44920  0.44920  0.00000  0.10161
       7     H     0.43955  0.43955  0.00000  0.12090
       8     C     3.08568  3.08568  0.00000 -0.17137
       9     H     0.45344  0.45344  0.00000  0.09311
      10     H     0.44054  0.44054  0.00000  0.11892
      11     C     3.14938  3.14938  0.00000 -0.29876
      12     H     0.45424  0.45424  0.00000  0.09153
      13     H     0.45166  0.45166  0.00000  0.09668
      14     H     0.45516  0.45516  0.00000  0.08967
      15     H     0.45271  0.45271  0.00000  0.09457
      16     H     0.44747  0.44747  0.00000  0.10506
      17     H     0.43615  0.43615  0.00000  0.12769
      18     H     0.45075  0.45075  0.00000  0.09850
      19     H     0.44834  0.44834  0.00000  0.10332

   Total alpha = 28.00000, Total beta = 28.00000, Total charge = -0.00000

*** Psi4 exiting successfully. Buy a developer a beer!
