  ==> Input File <==

--------------------------------------------------------------------------
set {
	reference rhf
	basis 6-31G*
}

set_num_threads( 4 )
memory 2 gb

molecule MOL {
0 1

H	 -0.216825	 0.021369	 -3.357402
C	 0.374198	 0.036393	 -2.447010
C	 -0.521757	 -0.028637	 -1.217342
H	 0.969602	 0.942322	 -2.434777
H	 1.053364	 -0.811668	 -2.481329
N	 0.263400	 0.031178	 0.000000
H	 -1.199035	 0.820290	 -1.219355
H	 -1.147901	 -0.924895	 -1.265384
C	 -0.521757	 -0.028637	 1.217342
H	 0.935769	 -0.712709	 0.000000
C	 -0.304399	 -1.350707	 1.941175
H	 -0.206275	 0.789426	 1.858146
H	 -1.590240	 0.117576	 1.031308
H	 0.746037	 -1.488791	 2.171129
H	 -0.869824	 -1.382123	 2.867272
H	 -0.627549	 -2.189201	 1.329493

	symmetry c1
}
set optking {
	frozen_dihedral = ("
		12 9 6 3
	")
}

ee = optimize('scf')
oeprop('DIPOLE', 'QUADRUPOLE', 'MULLIKEN_CHARGES')
f=open( 'psi4out.xyz', 'w' )
f.write( "16  " )
f.write( str(ee) + "\n" )
f.write( MOL.save_string_xyz() )
f.close()
--------------------------------------------------------------------------

    Molecular point group: c1
  Charge       = 0
  Multiplicity = 1
  Basis Set: 6-31G*
  Basis Set:
  @DF-RHF Final Energy:  -212.30723600257346
    Total Energy =                       -212.3072360025735179
    Molecular point group: c1
  Basis Set: 6-31G*
  Basis Set:
  Basis Set: 6-31G*
  Basis Set:
  @DF-RHF Final Energy:  -212.30831700263604
    Total Energy =                       -212.3083170026361586
  Basis Set: 6-31G*
  Basis Set:
  Basis Set: 6-31G*
  Basis Set:
  @DF-RHF Final Energy:  -212.30852333456076
    Total Energy =                       -212.3085233345605616
  Basis Set: 6-31G*
  Basis Set:
  Basis Set: 6-31G*
  Basis Set:
  @DF-RHF Final Energy:  -212.30853660666500
    Total Energy =                       -212.3085366066651432
  Basis Set: 6-31G*
  Basis Set:
  Basis Set: 6-31G*
  Basis Set:
  @DF-RHF Final Energy:  -212.30853841445250
    Total Energy =                       -212.3085384144526415
  Basis Set: 6-31G*
  Basis Set:
  Charge       = 0
  Multiplicity = 1
  Basis Set: 6-31G*
  Basis Set:

    Orbital Energies (a.u.)
    -----------------------

    Doubly Occupied:

       1A    -15.530005     2A    -11.240912     3A    -11.240186
       4A    -11.212489     5A    -11.207878     6A     -1.200580
       7A     -1.027316     8A     -0.963744     9A     -0.839202
      10A     -0.820941    11A     -0.642502    12A     -0.627790
      13A     -0.621736    14A     -0.574675    15A     -0.555869
      16A     -0.524444    17A     -0.507265    18A     -0.496458
      19A     -0.488268    20A     -0.472327    21A     -0.350159

  @DF-RHF Final Energy:  -212.30853851091317

   => Energetics <=

    Nuclear Repulsion Energy =            189.8702995508262177
    One-Electron Energy =                -662.0681857433405639
    Two-Electron Energy =                 259.8893476816011798
    DFT Exchange-Correlation Energy =       0.0000000000000000
    Empirical Dispersion Energy =           0.0000000000000000
    PCM Polarization Energy =               0.0000000000000000
    EFP Energy =                            0.0000000000000000
    Total Energy =                       -212.3085385109131948
    Molecular point group: c1
  Basis Set: 6-31G*
  Basis Set:

  -Total Gradient:
     Atom            X                  Y                   Z
    ------   -----------------  -----------------  -----------------
       1       -0.000001204572     0.000002669204     0.000010579757
       2        0.000005662504     0.000005628173     0.000010706262
       3       -0.000163888128     0.001474109572     0.000010112390
       4        0.000005250983     0.000004073769    -0.000005632451
       5       -0.000002174624    -0.000002096682     0.000001109878
       6       -0.000115960135    -0.001876597528    -0.000195445681
       7        0.000000117295     0.000002125430    -0.000003585652
       8       -0.000004558926     0.000000961122    -0.000000923966
       9        0.001661945773    -0.000712269516     0.000950779535
      10        0.000002325437     0.000000152405    -0.000007334215
      11       -0.000005064653     0.000007531808    -0.000020744352
      12       -0.001375795454     0.001112344002    -0.000754160398
      13       -0.000011644529     0.000006770133    -0.000002063212
      14       -0.000001023050    -0.000002973421     0.000006897149
      15        0.000002809241    -0.000005147496    -0.000004913367
      16        0.000003202839    -0.000017280975     0.000004618319

  **** Optimization is complete! (in 6 steps) ****
    Final optimized geometry and variables:
    Molecular point group: c1

    Geometry (in Angstrom), charge = 0, multiplicity = 1:

    H           -0.081402103518     0.305484572503    -3.266294967663
    C            0.508229929274     0.328165695723    -2.355170847232
    C           -0.388683209308     0.251369066921    -1.127152684802
    H            1.091284299821     1.242145778800    -2.341517629611
    H            1.198696216287    -0.510877856941    -2.388888179650
    N            0.397718828626     0.330038054541     0.088232213556
    H           -1.077912420157     1.089782010482    -1.135231623596
    H           -1.000317465015    -0.654932443418    -1.179406698407
    C           -0.348969588140     0.251170573705     1.337330804703
    H            1.131400764261    -0.350069455213     0.072426041164
    C           -0.183413898070    -1.077513300573     2.071185615611
    H           -0.053369331682     1.069448410572     1.988797369298
    H           -1.401938930993     0.408462077978     1.123033154445
    H            0.859092700100    -1.253743208104     2.323205408125
    H           -0.750330149322    -1.085116153133     2.997264081992
    H           -0.525671643023    -1.907547917410     1.459492398695

  Mulliken Charges: (a.u.)
   Center  Symbol    Alpha    Beta     Spin     Total
       1     H     0.42007  0.42007  0.00000  0.15987
       2     C     3.24374  3.24374  0.00000 -0.48747
       3     C     3.05164  3.05164  0.00000 -0.10329
       4     H     0.41185  0.41185  0.00000  0.17630
       5     H     0.42504  0.42504  0.00000  0.14991
       6     N     3.85723  3.85723  0.00000 -0.71445
       7     H     0.41980  0.41980  0.00000  0.16039
       8     H     0.43641  0.43641  0.00000  0.12719
       9     C     3.04791  3.04791  0.00000 -0.09581
      10     H     0.33279  0.33279  0.00000  0.33443
      11     C     3.25131  3.25131  0.00000 -0.50263
      12     H     0.41864  0.41864  0.00000  0.16272
      13     H     0.42341  0.42341  0.00000  0.15317
      14     H     0.42107  0.42107  0.00000  0.15787
      15     H     0.41882  0.41882  0.00000  0.16236
      16     H     0.42028  0.42028  0.00000  0.15944

   Total alpha = 21.00000, Total beta = 21.00000, Total charge = -0.00000
