  ==> Input File <==

--------------------------------------------------------------------------
set {
	reference rhf
	basis 6-31G*
}

set_num_threads( 1 )
memory 2 gb

molecule MOL {
0 1

O	 -2.821601	 1.309235	 -0.001213
C	 -2.668563	 0.129746	 -0.000350
C	 -3.801572	 -0.864014	 -0.000442
O	 -1.481751	 -0.454642	 0.000584
H	 -4.417280	 -0.689587	 -0.874708
H	 -3.443784	 -1.883046	 -0.000565
H	 -4.417179	 -0.689832	 0.873954
C	 -0.334255	 0.388708	 0.000906
C	 0.891947	 -0.504646	 0.000751
H	 -0.365390	 1.025305	 -0.873475
H	 -0.365484	 1.024911	 0.875569
C	 2.191998	 0.301789	 0.000897
H	 0.855148	 -1.151283	 -0.871571
H	 0.855132	 -1.151660	 0.872805
C	 3.441114	 -0.581407	 0.000108
H	 2.215074	 0.954890	 -0.869742
H	 2.215465	 0.953923	 0.872248
C	 3.116658	 -2.071113	 -0.101728
H	 4.012020	 -0.397006	 0.907378
H	 4.083798	 -0.293939	 -0.828981
H	 2.502184	 -2.396675	 0.732805
H	 4.021441	 -2.670780	 -0.099738
H	 2.574819	 -2.292889	 -1.016734

	symmetry c1
}
set optking {
	frozen_dihedral = ("
		13 9 8 10,
		2 4 8 10,
		16 12 9 13,
		1 2 4 8
	")
}

ee = energy('scf')
oeprop('DIPOLE', 'QUADRUPOLE', 'MULLIKEN_CHARGES')
f=open( 'psi4out.xyz', 'w' )
f.write( "23  " )
f.write( str(ee) + "\n" )
f.write( MOL.save_string_xyz() )
f.close()
--------------------------------------------------------------------------

    Molecular point group: c1

    Geometry (in Angstrom), charge = 0, multiplicity = 1:

       Center              X                  Y                   Z               Mass
    ------------   -----------------  -----------------  -----------------  -----------------
           O         -2.634228401630     1.574227358726     0.010404774216    15.994914619560
           C         -2.481190401630     0.394738358726     0.011267774216    12.000000000000
           C         -3.614199401630    -0.599021641274     0.011175774216    12.000000000000
           O         -1.294378401630    -0.189649641274     0.012201774216    15.994914619560
           H         -4.229907401630    -0.424594641274    -0.863090225784     1.007825032070
           H         -3.256411401630    -1.618053641274     0.011052774216     1.007825032070
           H         -4.229806401630    -0.424839641274     0.885571774216     1.007825032070
           C         -0.146882401630     0.653700358726     0.012523774216    12.000000000000
           C          1.079319598370    -0.239653641274     0.012368774216    12.000000000000
           H         -0.178017401630     1.290297358726    -0.861857225784     1.007825032070
           H         -0.178111401630     1.289903358726     0.887186774216     1.007825032070
           C          2.379370598370     0.566781358726     0.012514774216    12.000000000000
           H          1.042520598370    -0.886290641274    -0.859953225784     1.007825032070
           H          1.042504598370    -0.886667641274     0.884422774216     1.007825032070
           C          3.628486598370    -0.316414641274     0.011725774216    12.000000000000
           H          2.402446598370     1.219882358726    -0.858124225784     1.007825032070
           H          2.402837598370     1.218915358726     0.883865774216     1.007825032070
           C          3.304030598370    -1.806120641274    -0.090110225784    12.000000000000
           H          4.199392598370    -0.132013641274     0.918995774216     1.007825032070
           H          4.271170598370    -0.028946641274    -0.817363225784     1.007825032070
           H          2.689556598370    -2.131682641274     0.744422774216     1.007825032070
           H          4.208813598370    -2.405787641274    -0.088120225784     1.007825032070
           H          2.762191598370    -2.027896641274    -1.005116225784     1.007825032070

  Charge       = 0
  Multiplicity = 1
  Basis Set: 6-31G*
  Basis Set:

    Orbital Energies (a.u.)
    -----------------------

    Doubly Occupied:

       1A    -20.602388     2A    -20.540105     3A    -11.373667
       4A    -11.280132     5A    -11.232169     6A    -11.222718
       7A    -11.222126     8A    -11.220035     9A    -11.211528
      10A     -1.467405    11A     -1.360239    12A     -1.097443
      13A     -1.040115    14A     -0.998979    15A     -0.929858
      16A     -0.863074    17A     -0.785790    18A     -0.766720
      19A     -0.692057    20A     -0.684246    21A     -0.670705
      22A     -0.647807    23A     -0.610022    24A     -0.603273
      25A     -0.573237    26A     -0.561750    27A     -0.554154
      28A     -0.535153    29A     -0.533822    30A     -0.503496
      31A     -0.499964    32A     -0.471677    33A     -0.469731
      34A     -0.452922    35A     -0.448905    36A     -0.434938

  @DF-RHF Final Energy:  -422.96525146662469

   => Energetics <=

    Nuclear Repulsion Energy =            458.6176144860401678
    One-Electron Energy =               -1484.8409355973135462
    Two-Electron Energy =                 603.2580696446483444
    DFT Exchange-Correlation Energy =       0.0000000000000000
    Empirical Dispersion Energy =           0.0000000000000000
    PCM Polarization Energy =               0.0000000000000000
    EFP Energy =                            0.0000000000000000
    Total Energy =                       -422.9652514666250909

  Mulliken Charges: (a.u.)
   Center  Symbol    Alpha    Beta     Spin     Total
       1     O     4.28401  4.28401  0.00000 -0.56803
       2     C     2.61520  2.61520  0.00000  0.76960
       3     C     3.28768  3.28768  0.00000 -0.57535
       4     O     4.31302  4.31302  0.00000 -0.62604
       5     H     0.39757  0.39757  0.00000  0.20487
       6     H     0.39997  0.39997  0.00000  0.20007
       7     H     0.39757  0.39757  0.00000  0.20486
       8     C     2.99287  2.99287  0.00000  0.01426
       9     C     3.17204  3.17204  0.00000 -0.34408
      10     H     0.41120  0.41120  0.00000  0.17761
      11     H     0.41124  0.41124  0.00000  0.17752
      12     C     3.16402  3.16402  0.00000 -0.32803
      13     H     0.41192  0.41192  0.00000  0.17616
      14     H     0.41251  0.41251  0.00000  0.17497
      15     C     3.15454  3.15454  0.00000 -0.30907
      16     H     0.41814  0.41814  0.00000  0.16373
      17     H     0.41782  0.41782  0.00000  0.16436
      18     C     3.24681  3.24681  0.00000 -0.49362
      19     H     0.41852  0.41852  0.00000  0.16297
      20     H     0.41821  0.41821  0.00000  0.16359
      21     H     0.41918  0.41918  0.00000  0.16164
      22     H     0.41630  0.41630  0.00000  0.16741
      23     H     0.41969  0.41969  0.00000  0.16063

   Total alpha = 36.00000, Total beta = 36.00000, Total charge = -0.00000
