                              Psi4 1.0.54 Driver

  ==> Input File <==

--------------------------------------------------------------------------
set {
	reference rhf
	basis cc-pvtz
}

set_num_threads( 4 )
memory 2 gb

molecule MOL {
0 1

H	 -4.659399	 -3.298204	 -3.086382
O	 -5.073142	 -4.055479	 -2.716002
C	 -4.116251	 -4.884346	 -2.110518
C	 -3.564836	 -4.323271	 -0.808281
H	 -4.618508	 -5.822444	 -1.916379
H	 -3.302025	 -5.092035	 -2.802148
C	 -2.756557	 -3.038013	 -0.971515
H	 -4.393640	 -4.150309	 -0.128335
H	 -2.938062	 -5.087098	 -0.354275
C	 -2.191774	 -2.522863	 0.351541
H	 -3.384045	 -2.274091	 -1.418377
H	 -1.936012	 -3.214224	 -1.665014
C	 -1.311023	 -1.277304	 0.237018
H	 -3.012592	 -2.320253	 1.035233
H	 -1.606785	 -3.315930	 0.809036
C	 -2.041121	 -0.006551	 -0.194127
H	 -0.846927	 -1.098038	 1.202940
H	 -0.496533	 -1.476664	 -0.455814
C	 -3.489218	 0.042606	 0.286507
H	 -2.022185	 0.066287	 -1.279394
H	 -1.518764	 0.869305	 0.178730
C	 -4.219984	 1.311773	 -0.139038
H	 -4.022855	 -0.824300	 -0.093339
H	 -3.510372	 -0.038577	 1.370031
H	 -4.244251	 1.405725	 -1.219696
H	 -5.244345	 1.313233	 0.215630
H	 -3.732090	 2.196311	 0.257073

	symmetry c1
}
set optking {
	frozen_dihedral = ("
		10 13 16 20
	")
}

ee,wfn = optimize('scf', return_wfn=True)
oeprop( wfn, 'DIPOLE', 'QUADRUPOLE', 'MULLIKEN_CHARGES')
f=open( 'psi4out.xyz', 'w' )
f.write( "27  " )
f.write( str(ee) + "\n" )
f.write( MOL.save_string_xyz() )
f.close()
--------------------------------------------------------------------------

    Molecular point group: c1
  Charge       = 0
  Multiplicity = 1
  Basis Set: CC-PVTZ
  Basis Set:
  @DF-RHF Final Energy:  -388.41956587816850
    Total Energy =                       -388.4195658781688962
    Molecular point group: c1
  Basis Set: CC-PVTZ
  Basis Set:
  Basis Set: CC-PVTZ
  Basis Set:
  @DF-RHF Final Energy:  -388.42027726122421
    Total Energy =                       -388.4202772612244416
  Basis Set: CC-PVTZ
  Basis Set:
  Basis Set: CC-PVTZ
  Basis Set:
  @DF-RHF Final Energy:  -388.42265017076039
    Total Energy =                       -388.4226501707605621
  Basis Set: CC-PVTZ
  Basis Set:
  Basis Set: CC-PVTZ
  Basis Set:
  @DF-RHF Final Energy:  -388.42286551678376
    Total Energy =                       -388.4228655167835313
  Basis Set: CC-PVTZ
  Basis Set:
  Basis Set: CC-PVTZ
  Basis Set:
  @DF-RHF Final Energy:  -388.42290639742868
    Total Energy =                       -388.4229063974285054
  Basis Set: CC-PVTZ
  Basis Set:
  Basis Set: CC-PVTZ
  Basis Set:
  @DF-RHF Final Energy:  -388.42291235386045
    Total Energy =                       -388.4229123538610793
  Basis Set: CC-PVTZ
  Basis Set:
  Charge       = 0
  Multiplicity = 1
  Basis Set: CC-PVTZ
  Basis Set:

    Orbital Energies (a.u.)
    -----------------------

    Doubly Occupied:

       1A    -20.545424     2A    -11.264976     3A    -11.216309
       4A    -11.214132     5A    -11.213867     6A    -11.213244
       7A    -11.213121     8A    -11.212389     9A    -11.207140
      10A     -1.363279    11A     -1.095578    12A     -1.060362
      13A     -1.011069    14A     -0.950268    15A     -0.888164
      16A     -0.834110    17A     -0.801529    18A     -0.763070
      19A     -0.696461    20A     -0.649603    21A     -0.641908
      22A     -0.615408    23A     -0.601339    24A     -0.586697
      25A     -0.575903    26A     -0.570258    27A     -0.531998
      28A     -0.520472    29A     -0.511858    30A     -0.497580
      31A     -0.487898    32A     -0.479416    33A     -0.469957
      34A     -0.451716    35A     -0.448361    36A     -0.445359
      37A     -0.424095

  @DF-RHF Final Energy:  -388.42291281984956

   => Energetics <=

    Nuclear Repulsion Energy =            471.3924377560953189
    One-Electron Energy =               -1461.0820717957315082
    Two-Electron Energy =                 601.2667212197866320
    DFT Exchange-Correlation Energy =       0.0000000000000000
    Empirical Dispersion Energy =           0.0000000000000000
    PCM Polarization Energy =               0.0000000000000000
    EFP Energy =                            0.0000000000000000
    Total Energy =                       -388.4229128198495573
    Molecular point group: c1
  Basis Set: CC-PVTZ
  Basis Set:

  -Total Gradient:
     Atom            X                  Y                   Z
    ------   -----------------  -----------------  -----------------
       1       -0.000016468572    -0.000035201466     0.000009513406
       2       -0.000009885853     0.000064560324    -0.000023799230
       3        0.000063972081    -0.000032117936     0.000028974785
       4       -0.000021608005    -0.000019996753    -0.000000480625
       5        0.000017066798     0.000025831367    -0.000001178874
       6       -0.000031001369     0.000001136490     0.000019429478
       7        0.000012964989     0.000019469661    -0.000010770210
       8        0.000019566411    -0.000008559839    -0.000017944523
       9       -0.000017564010     0.000024871975    -0.000005219975
      10       -0.001344660271     0.001075477057     0.004612991838
      11        0.000002568721    -0.000020355854     0.000013880409
      12       -0.000015963924     0.000010827889    -0.000000166348
      13        0.003252802955    -0.000651726167    -0.006556144844
      14        0.000003745467     0.000001425226    -0.000003378645
      15       -0.000007192609     0.000006079284    -0.000002283616
      16       -0.007212687547    -0.004273951216     0.001311809257
      17       -0.000004157754    -0.000006272497    -0.000009164089
      18       -0.000001795330    -0.000000737202     0.000002766896
      19        0.000013104168    -0.000001404675     0.000016440263
      20        0.005299511133     0.003826209356     0.000626645317
      21       -0.000003502892    -0.000000004578    -0.000001494953
      22        0.000002430454     0.000003672897    -0.000001666994
      23       -0.000001454555     0.000002944782    -0.000006646588
      24       -0.000005049210    -0.000005292257     0.000001495910
      25       -0.000000706057     0.000001240277    -0.000002897845
      26        0.000007118905    -0.000006462964    -0.000001333448
      27       -0.000001154128    -0.000001663185     0.000000623245

  **** Optimization is complete! (in 7 steps) ****
    Final optimized geometry and variables:
    Molecular point group: c1

    Geometry (in Angstrom), charge = 0, multiplicity = 1:

    H           -1.004983930667    -1.488693293052    -2.512573772010
    O           -1.412504234419    -2.250237019851    -2.144433926276
    C           -0.486452919920    -2.973295259996    -1.376839914055
    C           -0.141298680683    -2.303559623778    -0.055319896292
    H           -0.945713597906    -3.934005310859    -1.187086053341
    H            0.419930795440    -3.157161385394    -1.950263464237
    C            0.582722933710    -0.967146655910    -0.199146455728
    H           -1.057373118102    -2.164002258624     0.510718411122
    H            0.480379893470    -2.989649207038     0.514993051885
    C            0.969888755285    -0.350062644612     1.144333509195
    H           -0.045398714520    -0.272623446886    -0.748195133821
    H            1.482580761944    -1.107160321774    -0.795379333431
    C            1.698333695008     0.991768659387     1.038461971157
    H            0.085757421208    -0.243198371970     1.763272968686
    H            1.619447826561    -1.045770002993     1.668153059903
    C            0.888480476265     2.193905512368     0.518612458747
    H            2.057452697586     1.237601308220     2.033977194480
    H            2.585607537703     0.874560059837     0.423754735647
    C           -0.568778783381     2.284800445250     0.960848267986
    H            0.968627900461     2.260925915435    -0.563350800771
    H            1.396858943894     3.089183222699     0.869257163477
    C           -1.234281088701     3.580362078936     0.506867674557
    H           -1.136162134816     1.444462778502     0.577028228822
    H           -0.620077358733     2.217141327018     2.044367720029
    H           -1.221083664338     3.668344838037    -0.574549347396
    H           -2.268392886520     3.623469611868     0.828721421151
    H           -0.724169942819     4.447099587819     0.913516958121

  Mulliken Charges: (a.u.)
   Center  Symbol    Alpha    Beta     Spin     Total
       1     H     0.39212  0.39212  0.00000  0.21575
       2     O     4.20583  4.20583  0.00000 -0.41167
       3     C     2.98001  2.98001  0.00000  0.03999
       4     C     3.08926  3.08926  0.00000 -0.17852
       5     H     0.44855  0.44855  0.00000  0.10289
       6     H     0.46936  0.46936  0.00000  0.06128
       7     C     3.10298  3.10298  0.00000 -0.20596
       8     H     0.45064  0.45064  0.00000  0.09872
       9     H     0.45520  0.45520  0.00000  0.08960
      10     C     3.10969  3.10969  0.00000 -0.21938
      11     H     0.45611  0.45611  0.00000  0.08777
      12     H     0.45115  0.45115  0.00000  0.09770
      13     C     3.10310  3.10310  0.00000 -0.20620
      14     H     0.44750  0.44750  0.00000  0.10500
      15     H     0.44262  0.44262  0.00000  0.11476
      16     C     3.10397  3.10397  0.00000 -0.20793
      17     H     0.44719  0.44719  0.00000  0.10563
      18     H     0.44855  0.44855  0.00000  0.10289
      19     C     3.08816  3.08816  0.00000 -0.17633
      20     H     0.45052  0.45052  0.00000  0.09895
      21     H     0.44746  0.44746  0.00000  0.10508
      22     C     3.15105  3.15105  0.00000 -0.30209
      23     H     0.44985  0.44985  0.00000  0.10029
      24     H     0.45182  0.45182  0.00000  0.09636
      25     H     0.45540  0.45540  0.00000  0.08921
      26     H     0.44761  0.44761  0.00000  0.10478
      27     H     0.45429  0.45429  0.00000  0.09143

   Total alpha = 37.00000, Total beta = 37.00000, Total charge =  0.00000

*** Psi4 exiting successfully. Buy a developer a beer!
