  ==> Input File <==

--------------------------------------------------------------------------
set {
	reference rhf
	basis 6-31G*
}

set_num_threads( 1 )
memory 2 gb

molecule MOL {
0 1

H	 2.176868	 -0.646004	 -0.217325
O	 1.337496	 -0.537251	 0.205931
C	 0.702312	 0.627605	 -0.264544
C	 -0.714990	 0.596302	 0.266387
H	 0.682322	 0.642550	 -1.350929
H	 1.215941	 1.520383	 0.085680
O	 -1.405996	 -0.526611	 -0.195820
H	 -1.257453	 1.468809	 -0.075599
H	 -0.688972	 0.618407	 1.353696
H	 -1.952054	 -0.251303	 -0.921106

	symmetry c1
}
set optking {
	frozen_dihedral = ("
		5 3 4 7
	")
}

ee = energy('scf')
oeprop('DIPOLE', 'QUADRUPOLE', 'MULLIKEN_CHARGES')
f=open( 'psi4out.xyz', 'w' )
f.write( "10  " )
f.write( str(ee) + "\n" )
f.write( MOL.save_string_xyz() )
f.close()
--------------------------------------------------------------------------

    Molecular point group: c1

    Geometry (in Angstrom), charge = 0, multiplicity = 1:

       Center              X                  Y                   Z               Mass
    ------------   -----------------  -----------------  -----------------  -----------------
           H          2.194111856849    -0.662922677094    -0.202002635589     1.007825032070
           O          1.354739856849    -0.554169677094     0.221253364411    15.994914619560
           C          0.719555856849     0.610686322906    -0.249221635589    12.000000000000
           C         -0.697746143151     0.579383322906     0.281709364411    12.000000000000
           H          0.699565856849     0.625631322906    -1.335606635589     1.007825032070
           H          1.233184856849     1.503464322906     0.101002364411     1.007825032070
           O         -1.388752143151    -0.543529677094    -0.180497635589    15.994914619560
           H         -1.240209143151     1.451890322906    -0.060276635589     1.007825032070
           H         -0.671728143151     0.601488322906     1.369018364411     1.007825032070
           H         -1.934810143151    -0.268221677094    -0.905783635589     1.007825032070

  Charge       = 0
  Multiplicity = 1
  Basis Set: 6-31G*
  Basis Set:

    Orbital Energies (a.u.)
    -----------------------

    Doubly Occupied:

       1A    -20.551874     2A    -20.551714     3A    -11.270953
       4A    -11.270135     5A     -1.371556     6A     -1.348300
       7A     -0.999657     8A     -0.836685     9A     -0.722170
      10A     -0.675723    11A     -0.652331    12A     -0.593680
      13A     -0.571784    14A     -0.519744    15A     -0.487296
      16A     -0.441869    17A     -0.431979

  @DF-RHF Final Energy:  -228.91539240911430

   => Energetics <=

    Nuclear Repulsion Energy =            133.8753301082926441
    One-Electron Energy =                -578.9866324257891392
    Two-Electron Energy =                 216.1959099083820774
    DFT Exchange-Correlation Energy =       0.0000000000000000
    Empirical Dispersion Energy =           0.0000000000000000
    PCM Polarization Energy =               0.0000000000000000
    EFP Energy =                            0.0000000000000000
    Total Energy =                       -228.9153924091144177

  Mulliken Charges: (a.u.)
   Center  Symbol    Alpha    Beta     Spin     Total
       1     H     0.28042  0.28042  0.00000  0.43916
       2     O     4.36487  4.36487  0.00000 -0.72973
       3     C     2.99802  2.99802  0.00000  0.00396
       4     C     3.00483  3.00483  0.00000 -0.00967
       5     H     0.43358  0.43358  0.00000  0.13285
       6     H     0.43189  0.43189  0.00000  0.13623
       7     O     4.36058  4.36058  0.00000 -0.72116
       8     H     0.43313  0.43313  0.00000  0.13373
       9     H     0.41138  0.41138  0.00000  0.17723
      10     H     0.28130  0.28130  0.00000  0.43740

   Total alpha = 17.00000, Total beta = 17.00000, Total charge =  0.00000
