  ==> Input File <==

--------------------------------------------------------------------------
set {
	reference rhf
	basis 6-31G*
}

set_num_threads( 4 )
memory 2 gb

molecule MOL {
0 1

H	 -0.646935	 2.986948	 2.321629
O	 -0.495135	 3.280530	 1.434412
C	 -0.308686	 2.171926	 0.595828
C	 1.059820	 1.547662	 0.803558
H	 -1.079526	 1.421174	 0.745948
H	 -0.391517	 2.529713	 -0.420822
O	 1.171513	 0.459272	 -0.058250
H	 1.172144	 1.228102	 1.841462
H	 1.832855	 2.287646	 0.605001
C	 2.397842	 -0.198080	 -0.002151
H	 2.508049	 -0.905315	 -0.822092
H	 3.173794	 0.550865	 -0.078850
H	 2.517602	 -0.735921	 0.936026

	symmetry c1
}
set optking {
	frozen_dihedral = ("
		4 7 10 13
	")
}

ee = optimize('scf')
oeprop('DIPOLE', 'QUADRUPOLE', 'MULLIKEN_CHARGES')
f=open( 'psi4out.xyz', 'w' )
f.write( "13  " )
f.write( str(ee) + "\n" )
f.write( MOL.save_string_xyz() )
f.close()
--------------------------------------------------------------------------

    Molecular point group: c1
  Charge       = 0
  Multiplicity = 1
  Basis Set: 6-31G*
  Basis Set:
  @DF-RHF Final Energy:  -267.94919266894101
    Total Energy =                       -267.9491926689410661
    Molecular point group: c1
  Basis Set: 6-31G*
  Basis Set:
  Basis Set: 6-31G*
  Basis Set:
  @DF-RHF Final Energy:  -267.95015246415022
    Total Energy =                       -267.9501524641501078
  Basis Set: 6-31G*
  Basis Set:
  Basis Set: 6-31G*
  Basis Set:
  @DF-RHF Final Energy:  -267.95042352142252
    Total Energy =                       -267.9504235214226355
  Basis Set: 6-31G*
  Basis Set:
  Basis Set: 6-31G*
  Basis Set:
  @DF-RHF Final Energy:  -267.95042477098468
    Total Energy =                       -267.9504247709846823
  Basis Set: 6-31G*
  Basis Set:
  Charge       = 0
  Multiplicity = 1
  Basis Set: 6-31G*
  Basis Set:

    Orbital Energies (a.u.)
    -----------------------

    Doubly Occupied:

       1A    -20.562296     2A    -20.560170     3A    -11.270928
       4A    -11.270252     5A    -11.268983     6A     -1.388548
       7A     -1.365151     8A     -1.018606     9A     -0.913399
      10A     -0.841824    11A     -0.709623    12A     -0.673984
      13A     -0.660067    14A     -0.637708    15A     -0.595684
      16A     -0.569750    17A     -0.545490    18A     -0.489386
      19A     -0.481786    20A     -0.438449    21A     -0.422012

  @DF-RHF Final Energy:  -267.95042512822488

   => Energetics <=

    Nuclear Repulsion Energy =            190.2032348900694387
    One-Electron Energy =                -742.9391292912661129
    Two-Electron Energy =                 284.7854692729718522
    DFT Exchange-Correlation Energy =       0.0000000000000000
    Empirical Dispersion Energy =           0.0000000000000000
    PCM Polarization Energy =               0.0000000000000000
    EFP Energy =                            0.0000000000000000
    Total Energy =                       -267.9504251282248219
    Molecular point group: c1
  Basis Set: 6-31G*
  Basis Set:

  -Total Gradient:
     Atom            X                  Y                   Z
    ------   -----------------  -----------------  -----------------
       1       -0.000001314507     0.000004117178     0.000003156711
       2       -0.000004170602     0.000002763073     0.000008398574
       3        0.000001604718    -0.000000723133     0.000001251612
       4        0.000400289958     0.000675586227    -0.000802546131
       5       -0.000004330097     0.000000505428    -0.000002455233
       6        0.000005622528    -0.000005589195     0.000001371249
       7       -0.000718074532    -0.001281954229     0.000960552700
       8       -0.000002000501    -0.000003726726    -0.000003735811
       9        0.000000343841     0.000000097605    -0.000000747117
      10        0.000905698451     0.001725685776     0.000417001449
      11       -0.000004002384    -0.000000275345    -0.000000355572
      12       -0.000001086215     0.000000665921     0.000000536698
      13       -0.000578580657    -0.001117152579    -0.000582429130

  **** Optimization is complete! (in 5 steps) ****
    Final optimized geometry and variables:
    Molecular point group: c1

    Geometry (in Angstrom), charge = 0, multiplicity = 1:

    H           -1.423912862916     1.511048065411     1.741172449860
    O           -1.268448358382     1.806939935887     0.855359249941
    C           -1.071682469211     0.700786938658     0.015694294353
    C            0.298960655868     0.083142139868     0.229237878872
    H           -1.839401434338    -0.054067291658     0.160644560965
    H           -1.150930519676     1.059608646687    -1.000871652724
    O            0.421833416879    -1.001123659294    -0.636851582099
    H            0.406879973131    -0.238503079202     1.267051377401
    H            1.068977402033     0.827442171353     0.036619090091
    C            1.650311356235    -1.655038111072    -0.577066374785
    H            1.680656912029    -2.365548270922    -1.391848773739
    H            2.479360103428    -0.959523923479    -0.685505537310
    H            1.765455579479    -2.197199378821     0.359528267662

  Mulliken Charges: (a.u.)
   Center  Symbol    Alpha    Beta     Spin     Total
       1     H     0.28125  0.28125  0.00000  0.43750
       2     O     4.37089  4.37089  0.00000 -0.74178
       3     C     3.00467  3.00467  0.00000 -0.00933
       4     C     2.99656  2.99656  0.00000  0.00688
       5     H     0.42229  0.42229  0.00000  0.15541
       6     H     0.40842  0.40842  0.00000  0.18316
       7     O     4.30780  4.30780  0.00000 -0.61559
       8     H     0.43774  0.43774  0.00000  0.12451
       9     H     0.42302  0.42302  0.00000  0.15395
      10     C     3.07982  3.07982  0.00000 -0.15964
      11     H     0.41100  0.41100  0.00000  0.17800
      12     H     0.42817  0.42817  0.00000  0.14367
      13     H     0.42836  0.42836  0.00000  0.14327

   Total alpha = 21.00000, Total beta = 21.00000, Total charge =  0.00000
