                              Psi4 1.0.54 Driver

  ==> Input File <==

--------------------------------------------------------------------------
set {
	reference rhf
	basis cc-pvtz
}

set_num_threads( 4 )
memory 2 gb

molecule MOL {
0 1

H	 2.827715	 -0.377064	 -0.335879
O	 1.991073	 -0.816979	 -0.351397
C	 1.050374	 0.054877	 0.000135
C	 -0.318151	 -0.570512	 0.000144
O	 1.302738	 1.177527	 0.272050
C	 -1.454884	 0.441630	 -0.000560
H	 -0.371613	 -1.223646	 -0.864985
H	 -0.371920	 -1.222758	 0.865929
C	 -2.822577	 -0.232186	 0.000063
H	 -1.359760	 1.084704	 -0.867077
H	 -1.359641	 1.085996	 0.864983
H	 -2.954352	 -0.858985	 -0.875745
H	 -3.615886	 0.505352	 0.000019
H	 -2.953878	 -0.858359	 0.876394

	symmetry c1
}
set optking {
	frozen_dihedral = ("
		2 3 4 7
	")
}

ee,wfn = optimize('scf', return_wfn=True)
oeprop( wfn, 'DIPOLE', 'QUADRUPOLE', 'MULLIKEN_CHARGES')
f=open( 'psi4out.xyz', 'w' )
f.write( "14  " )
f.write( str(ee) + "\n" )
f.write( MOL.save_string_xyz() )
f.close()
--------------------------------------------------------------------------

    Molecular point group: c1
  Charge       = 0
  Multiplicity = 1
  Basis Set: CC-PVTZ
  Basis Set:
  @DF-RHF Final Energy:  -306.00071037097325
    Total Energy =                       -306.0007103709733656
    Molecular point group: c1
  Basis Set: CC-PVTZ
  Basis Set:
  Basis Set: CC-PVTZ
  Basis Set:
  @DF-RHF Final Energy:  -306.00073921969431
    Total Energy =                       -306.0007392196941964
  Basis Set: CC-PVTZ
  Basis Set:
  Basis Set: CC-PVTZ
  Basis Set:
  @DF-RHF Final Energy:  -306.00060895503168
    Total Energy =                       -306.0006089550315664
  Basis Set: CC-PVTZ
  Basis Set:
  Basis Set: CC-PVTZ
  Basis Set:
  @DF-RHF Final Energy:  -306.00080358251762
    Total Energy =                       -306.0008035825177330
  Basis Set: CC-PVTZ
  Basis Set:
  Charge       = 0
  Multiplicity = 1
  Basis Set: CC-PVTZ
  Basis Set:

    Orbital Energies (a.u.)
    -----------------------

    Doubly Occupied:

       1A    -20.604884     2A    -20.540564     3A    -11.374057
       4A    -11.239769     5A    -11.224501     6A    -11.215632
       7A     -1.478205     8A     -1.369451     9A     -1.084554
      10A     -0.980992    11A     -0.859210    12A     -0.794051
      13A     -0.704661    14A     -0.691860    15A     -0.668035
      16A     -0.619147    17A     -0.596823    18A     -0.574735
      19A     -0.546363    20A     -0.507734    21A     -0.492708
      22A     -0.483764    23A     -0.483109    24A     -0.447174

  @DF-RHF Final Energy:  -306.00080426694080

   => Energetics <=

    Nuclear Repulsion Energy =            240.4239934367320473
    One-Electron Energy =                -893.6856326058309605
    Two-Electron Energy =                 347.2608349021580807
    DFT Exchange-Correlation Energy =       0.0000000000000000
    Empirical Dispersion Energy =           0.0000000000000000
    PCM Polarization Energy =               0.0000000000000000
    EFP Energy =                            0.0000000000000000
    Total Energy =                       -306.0008042669408042
    Molecular point group: c1
  Basis Set: CC-PVTZ
  Basis Set:

  -Total Gradient:
     Atom            X                  Y                   Z
    ------   -----------------  -----------------  -----------------
       1        0.000014231746    -0.000007112402    -0.000008357439
       2       -0.000053656099     0.000227171736    -0.000675879684
       3        0.000118869158    -0.000400298055     0.001023767059
       4       -0.000405184504     0.000887544132    -0.000805677644
       5        0.000036701969    -0.000030606133    -0.000012107397
       6       -0.000003556597    -0.000007729406     0.000023320391
       7        0.000294978833    -0.000652244170     0.000477314536
       8       -0.000003013001    -0.000003994861     0.000001020970
       9       -0.000006100313     0.000001521014    -0.000017355968
      10        0.000001067430    -0.000005800245    -0.000000648193
      11        0.000007888004    -0.000007606706    -0.000003816431
      12       -0.000006885225    -0.000003782642     0.000000041810
      13       -0.000001271425    -0.000000795054    -0.000002027794
      14        0.000005930025     0.000003732791     0.000000405783

  **** Optimization is complete! (in 5 steps) ****
    Final optimized geometry and variables:
    Molecular point group: c1

    Geometry (in Angstrom), charge = 0, multiplicity = 1:

    H            2.835491370250    -0.379189272698    -0.286026418729
    O            1.998373447255    -0.816156789547    -0.333328663094
    C            1.051039555316     0.052970064210     0.005806724492
    C           -0.317020951727    -0.574093135081    -0.001271605506
    O            1.298029972034     1.174949514694     0.285971833681
    C           -1.454298562836     0.437927094972     0.019859822892
    H           -0.380067863218    -1.235171493854    -0.857351523547
    H           -0.360380813363    -1.218782711908     0.872774700367
    C           -2.821611063995    -0.235965561235     0.045525418712
    H           -1.377282978905     1.079954699562    -0.850416254013
    H           -1.340839217645     1.082221473006     0.882148147573
    H           -2.968697492417    -0.866008719324    -0.825439564320
    H           -3.614830060844     0.501595505959     0.056862875823
    H           -2.937017718928    -0.858718653213     0.926505530587

  Mulliken Charges: (a.u.)
   Center  Symbol    Alpha    Beta     Spin     Total
       1     H     0.38181  0.38181  0.00000  0.23637
       2     O     4.15975  4.15975  0.00000 -0.31951
       3     C     2.80677  2.80677  0.00000  0.38646
       4     C     3.10288  3.10288  0.00000 -0.20576
       5     O     4.19192  4.19192  0.00000 -0.38384
       6     C     3.08038  3.08038  0.00000 -0.16075
       7     H     0.43720  0.43720  0.00000  0.12559
       8     H     0.44147  0.44147  0.00000  0.11706
       9     C     3.15016  3.15016  0.00000 -0.30032
      10     H     0.44886  0.44886  0.00000  0.10228
      11     H     0.44297  0.44297  0.00000  0.11406
      12     H     0.45554  0.45554  0.00000  0.08893
      13     H     0.44515  0.44515  0.00000  0.10970
      14     H     0.45514  0.45514  0.00000  0.08972

   Total alpha = 24.00000, Total beta = 24.00000, Total charge = -0.00000

*** Psi4 exiting successfully. Buy a developer a beer!
