  ==> Input File <==

--------------------------------------------------------------------------
set {
	reference rhf
	basis 6-31G*
}

set_num_threads( 4 )
memory 2 gb

molecule MOL {
0 1

H	 -3.650283	 0.221984	 0.000000
C	 -2.577024	 0.154109	 0.000000
C	 -1.960329	 -1.089307	 0.000000
C	 -1.811733	 1.307557	 0.000000
H	 -2.554473	 -1.985285	 0.000000
C	 -0.581547	 -1.175855	 0.000000
H	 -2.287118	 2.271701	 0.000000
C	 -0.428719	 1.219221	 0.000000
H	 -0.090826	 -2.129898	 0.000000
C	 0.198341	 -0.021559	 0.000000
H	 0.149947	 2.124040	 0.000000
C	 1.691355	 -0.173192	 0.000000
C	 2.510016	 0.598642	 1.013710
O	 2.228945	 -0.893057	 -0.788775
H	 2.361161	 1.667507	 0.899034
H	 3.553837	 0.364468	 0.861754
H	 2.225428	 0.331050	 2.026224

	symmetry c1
}
set optking {
	frozen_dihedral = ("
		13 12 10 8
	")
}

ee = optimize('scf')
oeprop('DIPOLE', 'QUADRUPOLE', 'MULLIKEN_CHARGES')
f=open( 'psi4out.xyz', 'w' )
f.write( "17  " )
f.write( str(ee) + "\n" )
f.write( MOL.save_string_xyz() )
f.close()
--------------------------------------------------------------------------

    Molecular point group: c1
  Charge       = 0
  Multiplicity = 1
  Basis Set: 6-31G*
  Basis Set:
  @DF-RHF Final Energy:  -382.47013152826446
    Total Energy =                       -382.4701315282645737
    Molecular point group: c1
  Basis Set: 6-31G*
  Basis Set:
  Basis Set: 6-31G*
  Basis Set:
  @DF-RHF Final Energy:  -382.46955757687465
    Total Energy =                       -382.4695575768745357
  Basis Set: 6-31G*
  Basis Set:
  Basis Set: 6-31G*
  Basis Set:
  @DF-RHF Final Energy:  -382.47093258198106
    Total Energy =                       -382.4709325819818559
  Basis Set: 6-31G*
  Basis Set:
  Basis Set: 6-31G*
  Basis Set:
  @DF-RHF Final Energy:  -382.47107327585081
    Total Energy =                       -382.4710732758509266
  Basis Set: 6-31G*
  Basis Set:
  Basis Set: 6-31G*
  Basis Set:
  @DF-RHF Final Energy:  -382.47107917099669
    Total Energy =                       -382.4710791709976547
  Basis Set: 6-31G*
  Basis Set:
  Basis Set: 6-31G*
  Basis Set:
  @DF-RHF Final Energy:  -382.47108458550696
    Total Energy =                       -382.4710845855072421
  Basis Set: 6-31G*
  Basis Set:
  Charge       = 0
  Multiplicity = 1
  Basis Set: 6-31G*
  Basis Set:

    Orbital Energies (a.u.)
    -----------------------

    Doubly Occupied:

       1A    -20.553403     2A    -11.332590     3A    -11.247331
       4A    -11.244900     5A    -11.243211     6A    -11.241517
       7A    -11.240662     8A    -11.238847     9A    -11.230626
      10A     -1.399101    11A     -1.165617    12A     -1.049751
      13A     -1.026068    14A     -0.997574    15A     -0.860056
      16A     -0.836306    17A     -0.760622    18A     -0.705358
      19A     -0.659095    20A     -0.645343    21A     -0.623765
      22A     -0.616883    23A     -0.599660    24A     -0.589501
      25A     -0.558180    26A     -0.525896    27A     -0.513479
      28A     -0.502055    29A     -0.490677    30A     -0.410525
      31A     -0.344264    32A     -0.341502

  @DF-RHF Final Energy:  -382.47108555369329

   => Energetics <=

    Nuclear Repulsion Energy =            403.1145831254660266
    One-Electron Energy =               -1317.5826034676683776
    Two-Electron Energy =                 531.9969347885082698
    DFT Exchange-Correlation Energy =       0.0000000000000000
    Empirical Dispersion Energy =           0.0000000000000000
    PCM Polarization Energy =               0.0000000000000000
    EFP Energy =                            0.0000000000000000
    Total Energy =                       -382.4710855536941381
    Molecular point group: c1
  Basis Set: 6-31G*
  Basis Set:

  -Total Gradient:
     Atom            X                  Y                   Z
    ------   -----------------  -----------------  -----------------
       1       -0.000002416819    -0.000001152599    -0.000006260798
       2       -0.000008158119    -0.000055584613     0.000043372837
       3       -0.000047781873     0.000035965614     0.000024716024
       4        0.000047689313     0.000005494206    -0.000074794368
       5        0.000000143045     0.000001752138    -0.000004913318
       6        0.000052069788     0.000042095714    -0.000008406652
       7       -0.000002480602    -0.000003072741     0.000006410420
       8       -0.000151925678    -0.000080939053    -0.003999880091
       9        0.000004182632    -0.000018425417    -0.000001283723
      10        0.000051612014    -0.001149384050     0.007153546850
      11        0.000013404100     0.000010468050    -0.000018316335
      12        0.000295481388     0.003896199712    -0.005502466268
      13       -0.000248532987    -0.002729313066     0.002403950834
      14       -0.000023759537     0.000021457235     0.000001707635
      15       -0.000000843393     0.000009212307    -0.000002007022
      16        0.000022206365     0.000005553681     0.000003336421
      17       -0.000000889640     0.000009672877    -0.000018712446

  **** Optimization is complete! (in 7 steps) ****
    Final optimized geometry and variables:
    Molecular point group: c1

    Geometry (in Angstrom), charge = 0, multiplicity = 1:

    H           -3.644286725429     0.254553572636    -0.061049525010
    C           -2.571578441837     0.181186266563    -0.046292058655
    C           -1.960989407886    -1.064240303306    -0.049686702977
    C           -1.799136051082     1.330235620017    -0.032878278897
    H           -2.559005300558    -1.957485095916    -0.068947573271
    C           -0.581232396057    -1.158416827598    -0.044155317008
    H           -2.268999081587     2.297122786123    -0.047409892802
    C           -0.416947469277     1.235323326607    -0.001623817208
    H           -0.100640733094    -2.118453431955    -0.077255896745
    C            0.200397832329    -0.008998874858     0.004607151603
    H            0.172116471418     2.134845981292     0.008069687735
    C            1.695676911292    -0.155651538432    -0.038206925191
    C            2.516310582843     0.650453539742     0.944756922378
    O            2.205329349931    -0.955500097029    -0.763308240433
    H            2.325136444780     1.714611238130     0.858272331142
    H            3.566920354694     0.457777771264     0.778028748904
    H            2.246735524468     0.356905496045     1.954918754983

  Mulliken Charges: (a.u.)
   Center  Symbol    Alpha    Beta     Spin     Total
       1     H     0.39601  0.39601  0.00000  0.20798
       2     C     3.09522  3.09522  0.00000 -0.19044
       3     C     3.10206  3.10206  0.00000 -0.20413
       4     C     3.10162  3.10162  0.00000 -0.20325
       5     H     0.39551  0.39551  0.00000  0.20899
       6     C     3.09409  3.09409  0.00000 -0.18817
       7     H     0.39642  0.39642  0.00000  0.20717
       8     C     3.10352  3.10352  0.00000 -0.20704
       9     H     0.38397  0.38397  0.00000  0.23206
      10     C     3.03933  3.03933  0.00000 -0.07865
      11     H     0.39542  0.39542  0.00000  0.20915
      12     C     2.74335  2.74335  0.00000  0.51330
      13     C     3.28744  3.28744  0.00000 -0.57488
      14     O     4.25776  4.25776  0.00000 -0.51553
      15     H     0.40940  0.40940  0.00000  0.18121
      16     H     0.39645  0.39645  0.00000  0.20709
      17     H     0.40244  0.40244  0.00000  0.19512

   Total alpha = 32.00000, Total beta = 32.00000, Total charge = -0.00000
