                              Psi4 1.0.54 Driver

  ==> Input File <==

--------------------------------------------------------------------------
set {
	reference rhf
	basis cc-pvtz
}

set_num_threads( 4 )
memory 2 gb

molecule MOL {
0 1

O	 1.847685	 1.294399	 -0.000190
C	 1.704209	 0.119472	 -0.000093
C	 0.380337	 -0.600947	 -0.000234
O	 2.715427	 -0.733672	 0.000025
C	 -0.824290	 0.329213	 -0.000115
H	 0.371455	 -1.255476	 -0.865660
H	 0.371410	 -1.255787	 0.864952
C	 -1.975771	 -0.212062	 -0.842214
H	 -0.523791	 1.303051	 -0.369726
H	 -1.155660	 0.484526	 1.020356
C	 -3.193626	 0.707265	 -0.853856
H	 -1.636129	 -0.367942	 -1.863779
H	 -2.270165	 -1.190199	 -0.468291
C	 -4.344317	 0.166579	 -1.695866
H	 -2.900951	 1.684235	 -1.228059
H	 -3.534707	 0.862346	 0.165837
H	 -4.044088	 0.033149	 -2.729932
H	 -5.191476	 0.842511	 -1.682739
H	 -4.683125	 -0.795054	 -1.324781
C	 4.020999	 -0.192556	 0.000019
H	 4.182809	 0.412891	 -0.879449
H	 4.692590	 -1.035653	 0.000152
H	 4.182726	 0.413087	 0.879368

	symmetry c1
}
set optking {
	frozen_dihedral = ("
		9 5 3 6
	")
}

ee,wfn = optimize('scf', return_wfn=True)
oeprop( wfn, 'DIPOLE', 'QUADRUPOLE', 'MULLIKEN_CHARGES')
f=open( 'psi4out.xyz', 'w' )
f.write( "23  " )
f.write( str(ee) + "\n" )
f.write( MOL.save_string_xyz() )
f.close()
--------------------------------------------------------------------------

    Molecular point group: c1
  Charge       = 0
  Multiplicity = 1
  Basis Set: CC-PVTZ
  Basis Set:
  @DF-RHF Final Energy:  -423.12773268971472
    Total Energy =                       -423.1277326897147759
    Molecular point group: c1
  Basis Set: CC-PVTZ
  Basis Set:
  Basis Set: CC-PVTZ
  Basis Set:
  @DF-RHF Final Energy:  -423.12798187491461
    Total Energy =                       -423.1279818749146671
  Basis Set: CC-PVTZ
  Basis Set:
  Basis Set: CC-PVTZ
  Basis Set:
  @DF-RHF Final Energy:  -423.12799836775866
    Total Energy =                       -423.1279983677583232
  Basis Set: CC-PVTZ
  Basis Set:
  Basis Set: CC-PVTZ
  Basis Set:
  @DF-RHF Final Energy:  -423.12805916298356
    Total Energy =                       -423.1280591629838455
  Basis Set: CC-PVTZ
  Basis Set:
  Basis Set: CC-PVTZ
  Basis Set:
  @DF-RHF Final Energy:  -423.12807006939670
    Total Energy =                       -423.1280700693968129
  Basis Set: CC-PVTZ
  Basis Set:
  Charge       = 0
  Multiplicity = 1
  Basis Set: CC-PVTZ
  Basis Set:

    Orbital Energies (a.u.)
    -----------------------

    Doubly Occupied:

       1A    -20.596538     2A    -20.534812     3A    -11.365457
       4A    -11.278658     5A    -11.233576     6A    -11.216199
       7A    -11.215586     8A    -11.214154     9A    -11.207525
      10A     -1.472720    11A     -1.366279    12A     -1.093039
      13A     -1.044270    14A     -0.987988    15A     -0.932615
      16A     -0.844636    17A     -0.795906    18A     -0.769461
      19A     -0.702154    20A     -0.685140    21A     -0.676033
      22A     -0.648708    23A     -0.610024    24A     -0.601492
      25A     -0.572851    26A     -0.559392    27A     -0.557489
      28A     -0.527039    29A     -0.524528    30A     -0.504586
      31A     -0.484014    32A     -0.469559    33A     -0.464996
      34A     -0.461982    35A     -0.459293    36A     -0.440300

  @DF-RHF Final Energy:  -423.12807073714350

   => Energetics <=

    Nuclear Repulsion Energy =            453.1741598777513218
    One-Electron Energy =               -1474.3664645003223086
    Two-Electron Energy =                 598.0642338854275977
    DFT Exchange-Correlation Energy =       0.0000000000000000
    Empirical Dispersion Energy =           0.0000000000000000
    PCM Polarization Energy =               0.0000000000000000
    EFP Energy =                            0.0000000000000000
    Total Energy =                       -423.1280707371433891
    Molecular point group: c1
  Basis Set: CC-PVTZ
  Basis Set:

  -Total Gradient:
     Atom            X                  Y                   Z
    ------   -----------------  -----------------  -----------------
       1       -0.000030635519     0.000091845164    -0.000039963723
       2        0.000112184604     0.000031830073     0.000107342162
       3        0.002585114122     0.003197078848    -0.001584603379
       4       -0.000007678074    -0.000121576983    -0.000040649161
       5       -0.001462137093    -0.001782058687    -0.003603348778
       6       -0.001825826251    -0.002400513430     0.001875027623
       7        0.000000670262    -0.000021670383    -0.000023726431
       8       -0.000062246149    -0.000011953760    -0.000005706302
       9        0.000746705351     0.000992400681     0.003303468721
      10       -0.000010028732     0.000025137221    -0.000017882321
      11       -0.000007675340     0.000002076757     0.000017220179
      12        0.000014908645     0.000011769011    -0.000017081109
      13       -0.000020131665    -0.000027144222    -0.000001033413
      14        0.000027032632    -0.000024918566     0.000008867433
      15        0.000016711646     0.000010333859    -0.000006474507
      16       -0.000009379327     0.000006691009     0.000026142323
      17        0.000005408925    -0.000000783113    -0.000022070185
      18       -0.000002147680     0.000017742827     0.000010607274
      19       -0.000010758159    -0.000020212203     0.000005119324
      20       -0.000030860044     0.000042603679     0.000020564669
      21       -0.000008641232     0.000005807143    -0.000018269027
      22       -0.000024610420    -0.000026446256    -0.000000021388
      23        0.000004019499     0.000001961326     0.000006470018

  **** Optimization is complete! (in 6 steps) ****
    Final optimized geometry and variables:
    Molecular point group: c1

    Geometry (in Angstrom), charge = 0, multiplicity = 1:

    O            1.818941647070     1.201258817909     0.378725447446
    C            1.649389563173     0.029881750619     0.369504362462
    C            0.314673674050    -0.669217194556     0.321763815267
    O            2.641656300680    -0.844572478522     0.402129339479
    C           -0.900177834560     0.260725804297     0.308801334253
    H            0.319391897368    -1.329779132029    -0.538676609238
    H            0.285079850680    -1.338392612891     1.175020794755
    C           -2.069157721017    -0.296614020574    -0.497010629699
    H           -0.604315793650     1.232965748953    -0.062033684515
    H           -1.221595428162     0.432415880141     1.331480722908
    C           -3.304438424895     0.597665538452    -0.458802894002
    H           -1.758170545867    -0.434499853156    -1.530031275595
    H           -2.331164799192    -1.284632514431    -0.124147196350
    C           -4.468301582251     0.046371430001    -1.275497092642
    H           -3.041460293803     1.585650019117    -0.825964380664
    H           -3.619062483048     0.730416966982     0.572639492698
    H           -4.196189237000    -0.063976776149    -2.319992344639
    H           -5.328344809127     0.704173182015    -1.226244508510
    H           -4.776204558540    -0.928051539831    -0.910689028382
    C            3.957591399888    -0.331522272371     0.448833426403
    H            4.162889085774     0.271942935719    -0.422920200291
    H            4.610382248877    -1.189034857963     0.469855331678
    H            4.101764603292     0.268645004517     1.334964947551

  Mulliken Charges: (a.u.)
   Center  Symbol    Alpha    Beta     Spin     Total
       1     O     4.19595  4.19595  0.00000 -0.39191
       2     C     2.80176  2.80176  0.00000  0.39649
       3     C     3.10731  3.10731  0.00000 -0.21462
       4     O     4.14707  4.14707  0.00000 -0.29414
       5     C     3.09190  3.09190  0.00000 -0.18380
       6     H     0.43930  0.43930  0.00000  0.12141
       7     H     0.43727  0.43727  0.00000  0.12545
       8     C     3.08982  3.08982  0.00000 -0.17964
       9     H     0.43624  0.43624  0.00000  0.12753
      10     H     0.45312  0.45312  0.00000  0.09377
      11     C     3.08472  3.08472  0.00000 -0.16944
      12     H     0.45459  0.45459  0.00000  0.09082
      13     H     0.45495  0.45495  0.00000  0.09011
      14     C     3.14994  3.14994  0.00000 -0.29989
      15     H     0.45221  0.45221  0.00000  0.09557
      16     H     0.45403  0.45403  0.00000  0.09194
      17     H     0.45505  0.45505  0.00000  0.08990
      18     H     0.44792  0.44792  0.00000  0.10416
      19     H     0.45563  0.45563  0.00000  0.08875
      20     C     3.03697  3.03697  0.00000 -0.07394
      21     H     0.45440  0.45440  0.00000  0.09119
      22     H     0.44547  0.44547  0.00000  0.10906
      23     H     0.45439  0.45439  0.00000  0.09123

   Total alpha = 36.00000, Total beta = 36.00000, Total charge = -0.00000

*** Psi4 exiting successfully. Buy a developer a beer!
