  ==> Input File <==

--------------------------------------------------------------------------
set {
	reference rhf
	basis 6-31G*
}

set_num_threads( 4 )
memory 2 gb

molecule MOL {
0 1

H	 -2.798360	 -0.862255	 -0.071053
N	 -1.863561	 -0.715187	 0.256814
C	 -1.344686	 0.554728	 -0.219830
H	 -1.300452	 -1.461917	 -0.101532
C	 -0.758920	 1.340035	 0.934858
H	 -0.579497	 0.454667	 -0.990852
H	 -2.163618	 1.126152	 -0.645984
O	 0.344221	 0.635944	 1.429250
H	 -0.451285	 2.330183	 0.599289
H	 -1.509257	 1.460561	 1.713127
C	 0.931704	 1.205937	 2.555102
H	 1.766045	 0.580432	 2.842009
H	 1.299876	 2.209038	 2.347210
H	 0.230114	 1.260938	 3.384894

	symmetry c1
}
set optking {
	frozen_dihedral = ("
		6 3 2 4
	")
}

ee = optimize('scf')
oeprop('DIPOLE', 'QUADRUPOLE', 'MULLIKEN_CHARGES')
f=open( 'psi4out.xyz', 'w' )
f.write( "14  " )
f.write( str(ee) + "\n" )
f.write( MOL.save_string_xyz() )
f.close()
--------------------------------------------------------------------------

    Molecular point group: c1
  Charge       = 0
  Multiplicity = 1
  Basis Set: 6-31G*
  Basis Set:
  @DF-RHF Final Energy:  -248.11899285841477
    Total Energy =                       -248.1189928584149129
    Molecular point group: c1
  Basis Set: 6-31G*
  Basis Set:
  Basis Set: 6-31G*
  Basis Set:
  @DF-RHF Final Energy:  -248.11975582687745
    Total Energy =                       -248.1197558268775083
  Basis Set: 6-31G*
  Basis Set:
  Basis Set: 6-31G*
  Basis Set:
  @DF-RHF Final Energy:  -248.11988077396245
    Total Energy =                       -248.1198807739622794
  Basis Set: 6-31G*
  Basis Set:
  Basis Set: 6-31G*
  Basis Set:
  @DF-RHF Final Energy:  -248.11989778347532
    Total Energy =                       -248.1198977834752668
  Basis Set: 6-31G*
  Basis Set:
  Charge       = 0
  Multiplicity = 1
  Basis Set: 6-31G*
  Basis Set:

    Orbital Energies (a.u.)
    -----------------------

    Doubly Occupied:

       1A    -20.548229     2A    -15.530929     3A    -11.259492
       4A    -11.258201     5A    -11.242440     6A     -1.373540
       7A     -1.172731     8A     -0.996708     9A     -0.901483
      10A     -0.812667    11A     -0.679955    12A     -0.669632
      13A     -0.633731    14A     -0.624019    15A     -0.599705
      16A     -0.529164    17A     -0.517674    18A     -0.506096
      19A     -0.467409    20A     -0.409117    21A     -0.380259

  @DF-RHF Final Energy:  -248.11989851239770

   => Energetics <=

    Nuclear Repulsion Energy =            193.5526450711100210
    One-Electron Energy =                -721.1187204769677237
    Two-Electron Energy =                 279.4461768934603469
    DFT Exchange-Correlation Energy =       0.0000000000000000
    Empirical Dispersion Energy =           0.0000000000000000
    PCM Polarization Energy =               0.0000000000000000
    EFP Energy =                            0.0000000000000000
    Total Energy =                       -248.1198985123972989
    Molecular point group: c1
  Basis Set: 6-31G*
  Basis Set:

  -Total Gradient:
     Atom            X                  Y                   Z
    ------   -----------------  -----------------  -----------------
       1       -0.000003894062     0.000032135635     0.000009476529
       2        0.002942984422     0.000272609397     0.004340773723
       3       -0.003160187123     0.000026667327    -0.003834660573
       4       -0.001855547134    -0.000217005962    -0.002927001215
       5       -0.000121943710    -0.000050064308     0.000100569233
       6        0.002149547337    -0.000082839273     0.002371368540
       7        0.000018555320     0.000004816829     0.000018281798
       8        0.000011034553     0.000006002419    -0.000069516944
       9        0.000042743553    -0.000059385127    -0.000004187439
      10       -0.000026645496     0.000037741251     0.000003220593
      11        0.000009517508     0.000044690579    -0.000005568840
      12       -0.000006428193    -0.000004682218    -0.000009841959
      13        0.000008636616    -0.000002870846     0.000015707764
      14       -0.000008373597    -0.000007815705    -0.000008621212

  **** Optimization is complete! (in 5 steps) ****
    Final optimized geometry and variables:
    Molecular point group: c1

    Geometry (in Angstrom), charge = 0, multiplicity = 1:

    H           -2.294519301103    -1.450976608873    -1.124027960869
    N           -1.380642903032    -1.313262711233    -0.741625039776
    C           -0.808164805126    -0.051952821459    -1.203471260579
    H           -0.828559328257    -2.091199263888    -1.039903258648
    C           -0.222269876990     0.737557702903    -0.047800069263
    H           -0.004862669749    -0.209945620536    -1.918061291922
    H           -1.569563147279     0.552439933980    -1.686938252389
    O            0.915982076297     0.070562481772     0.407750339398
    H            0.043045516687     1.744293491576    -0.376189037701
    H           -0.959546970271     0.822943797425     0.747536981620
    C            1.478819064500     0.615924397682     1.556313941405
    H            2.349607201913     0.025338111289     1.807177984484
    H            1.788773269960     1.648256863833     1.399260040691
    H            0.782625230180     0.588817454381     2.392158964671

  Mulliken Charges: (a.u.)
   Center  Symbol    Alpha    Beta     Spin     Total
       1     H     0.33291  0.33291  0.00000  0.33418
       2     N     3.92047  3.92047  0.00000 -0.84095
       3     C     3.07960  3.07960  0.00000 -0.15920
       4     H     0.32803  0.32803  0.00000  0.34394
       5     C     2.97559  2.97559  0.00000  0.04883
       6     H     0.41780  0.41780  0.00000  0.16439
       7     H     0.42356  0.42356  0.00000  0.15288
       8     O     4.30503  4.30503  0.00000 -0.61006
       9     H     0.43701  0.43701  0.00000  0.12598
      10     H     0.42781  0.42781  0.00000  0.14438
      11     C     3.07767  3.07767  0.00000 -0.15534
      12     H     0.41367  0.41367  0.00000  0.17267
      13     H     0.43256  0.43256  0.00000  0.13488
      14     H     0.42829  0.42829  0.00000  0.14341

   Total alpha = 21.00000, Total beta = 21.00000, Total charge = -0.00000
