  ==> Input File <==

--------------------------------------------------------------------------
set {
	reference rhf
	basis cc-pvtz
}

set_num_threads( 4 )
memory 2 gb

molecule MOL {
0 1

H	 2.307696	 -0.852411	 -0.666648
C	 1.562249	 -0.086982	 -0.801774
O	 0.462329	 -0.453336	 -0.000137
H	 1.284708	 -0.041488	 -1.847298
H	 1.970900	 0.866241	 -0.490955
C	 -0.590565	 0.341382	 0.000062
O	 -1.693898	 -0.053880	 0.000252
H	 -0.340426	 1.403822	 0.000200

	symmetry c1
}
set optking {
	frozen_dihedral = ("
		2 3 6 7
	")
}

ee = optimize('scf')
oeprop('DIPOLE', 'QUADRUPOLE', 'MULLIKEN_CHARGES')
f=open( 'psi4out.xyz', 'w' )
f.write( "8  " )
f.write( str(ee) + "\n" )
f.write( MOL.save_string_xyz() )
f.close()
--------------------------------------------------------------------------

    Molecular point group: c1
  Charge       = 0
  Multiplicity = 1
  Basis Set: CC-PVTZ
  Basis Set:
  @DF-RHF Final Energy:  -227.86578766413609
    Total Energy =                       -227.8657876641361213
    Molecular point group: c1
  Basis Set: CC-PVTZ
  Basis Set:
  Basis Set: CC-PVTZ
  Basis Set:
  @DF-RHF Final Energy:  -227.86577173948132
    Total Energy =                       -227.8657717394812323
  Basis Set: CC-PVTZ
  Basis Set:
  Basis Set: CC-PVTZ
  Basis Set:
  @DF-RHF Final Energy:  -227.86595946166810
    Total Energy =                       -227.8659594616680977
  Basis Set: CC-PVTZ
  Basis Set:
  Basis Set: CC-PVTZ
  Basis Set:
  @DF-RHF Final Energy:  -227.86613988692878
    Total Energy =                       -227.8661398869287495
  Basis Set: CC-PVTZ
  Basis Set:
  Basis Set: CC-PVTZ
  Basis Set:
  @DF-RHF Final Energy:  -227.86614201676480
    Total Energy =                       -227.8661420167647123
  Basis Set: CC-PVTZ
  Basis Set:
  Charge       = 0
  Multiplicity = 1
  Basis Set: CC-PVTZ
  Basis Set:

    Orbital Energies (a.u.)
    -----------------------

    Doubly Occupied:

       1A    -20.603877     2A    -20.553202     3A    -11.375317
       4A    -11.301463     5A     -1.477768     6A     -1.387681
       7A     -0.991452     8A     -0.847020     9A     -0.740644
      10A     -0.688975    11A     -0.682311    12A     -0.616022
      13A     -0.571235    14A     -0.531772    15A     -0.470913
      16A     -0.458873

  @DF-RHF Final Energy:  -227.86614221533574

   => Energetics <=

    Nuclear Repulsion Energy =            121.6075149735933536
    One-Electron Energy =                -552.3502604922939554
    Two-Electron Energy =                 202.8766033033648455
    DFT Exchange-Correlation Energy =       0.0000000000000000
    Empirical Dispersion Energy =           0.0000000000000000
    PCM Polarization Energy =               0.0000000000000000
    EFP Energy =                            0.0000000000000000
    Total Energy =                       -227.8661422153357421
    Molecular point group: c1
  Basis Set: CC-PVTZ
  Basis Set:

  -Total Gradient:
     Atom            X                  Y                   Z
    ------   -----------------  -----------------  -----------------
       1       -0.000021682963    -0.000000406882     0.000019298652
       2       -0.001804504700    -0.001696578536    -0.003802680415
       3        0.002745959597     0.002925196293     0.002782313243
       4        0.000005742734    -0.000002211284    -0.000003574561
       5       -0.000007923401    -0.000018078518     0.000013796147
       6       -0.001041682808    -0.001937262898     0.006726529709
       7        0.000113948215     0.000748864040    -0.005740543648
       8        0.000010143327    -0.000019522215     0.000004860872

  **** Optimization is complete! (in 6 steps) ****
    Final optimized geometry and variables:
    Molecular point group: c1

    Geometry (in Angstrom), charge = 0, multiplicity = 1:

    H            2.413008937301    -0.714453146660    -0.345187317119
    C            1.609057336553    -0.038130536203    -0.583459336963
    O            0.487023331794    -0.453380604797     0.159861177939
    H            1.396602467835    -0.087695080996    -1.643226467507
    H            1.904408512012     0.971739337131    -0.320237566490
    C           -0.523228407630     0.399214575022     0.259903089238
    O           -1.648814478429     0.081382835193     0.203813201455
    H           -0.204330365471     1.434917655655     0.389403849355

  Mulliken Charges: (a.u.)
   Center  Symbol    Alpha    Beta     Spin     Total
       1     H     0.44208  0.44208  0.00000  0.11584
       2     C     3.02811  3.02811  0.00000 -0.05622
       3     O     4.13060  4.13060  0.00000 -0.26120
       4     H     0.45583  0.45583  0.00000  0.08834
       5     H     0.46529  0.46529  0.00000  0.06942
       6     C     2.83419  2.83419  0.00000  0.33162
       7     O     4.16796  4.16796  0.00000 -0.33592
       8     H     0.47594  0.47594  0.00000  0.04811

   Total alpha = 16.00000, Total beta = 16.00000, Total charge =  0.00000
