  ==> Input File <==

--------------------------------------------------------------------------
set {
	reference rhf
	basis 6-31G*
}

set_num_threads( 1 )
memory 2 gb

molecule MOL {
0 1

O	 -0.291628	 1.323815	 -0.000732
C	 -0.449655	 0.146360	 0.000961
C	 -1.783294	 -0.549321	 -0.000296
O	 0.550821	 -0.724572	 0.000672
H	 -1.863538	 -1.185371	 -0.874187
H	 -2.574672	 0.185258	 -0.002793
H	 -1.866414	 -1.182381	 0.875436
C	 0.889194	 -1.312889	 -1.242577
H	 0.050129	 -1.863514	 -1.642749
H	 1.711870	 -1.980263	 -1.038701
H	 1.188247	 -0.554911	 -1.952069

	symmetry c1
}
set optking {
	frozen_dihedral = ("
		2 4 8 9
	")
}

ee = energy('scf')
oeprop('DIPOLE', 'QUADRUPOLE', 'MULLIKEN_CHARGES')
f=open( 'psi4out.xyz', 'w' )
f.write( "11  " )
f.write( str(ee) + "\n" )
f.write( MOL.save_string_xyz() )
f.close()
--------------------------------------------------------------------------

    Molecular point group: c1

    Geometry (in Angstrom), charge = 0, multiplicity = 1:

       Center              X                  Y                   Z               Mass
    ------------   -----------------  -----------------  -----------------  -----------------
           O         -0.084164678008     1.562048476311     0.263666807752    15.994914619560
           C         -0.242191678008     0.384593476311     0.265359807752    12.000000000000
           C         -1.575830678008    -0.311087523689     0.264102807752    12.000000000000
           O          0.758284321992    -0.486338523689     0.265070807752    15.994914619560
           H         -1.656074678008    -0.947137523689    -0.609788192248     1.007825032070
           H         -2.367208678008     0.423491476311     0.261605807752     1.007825032070
           H         -1.658950678008    -0.944147523689     1.139834807752     1.007825032070
           C          1.096657321992    -1.074655523689    -0.978178192248    12.000000000000
           H          0.257592321992    -1.625280523689    -1.378350192248     1.007825032070
           H          1.919333321992    -1.742029523689    -0.774302192248     1.007825032070
           H          1.395710321992    -0.316677523689    -1.687670192248     1.007825032070

  Charge       = 0
  Multiplicity = 1
  Basis Set: 6-31G*
  Basis Set:

    Orbital Energies (a.u.)
    -----------------------

    Doubly Occupied:

       1A    -20.590302     2A    -20.556344     3A    -11.378049
       4A    -11.298320     5A    -11.236528     6A     -1.466129
       7A     -1.370049     8A     -1.026262     9A     -0.974003
      10A     -0.782860    11A     -0.694544    12A     -0.687577
      13A     -0.674283    14A     -0.617448    15A     -0.587436
      16A     -0.577201    17A     -0.548403    18A     -0.489420
      19A     -0.463677    20A     -0.440824

  @DF-RHF Final Energy:  -266.81327652672360

   => Energetics <=

    Nuclear Repulsion Energy =            183.4533690992965660
    One-Electron Energy =                -727.6139672606994964
    Two-Electron Energy =                 277.3473216346791332
    DFT Exchange-Correlation Energy =       0.0000000000000000
    Empirical Dispersion Energy =           0.0000000000000000
    PCM Polarization Energy =               0.0000000000000000
    EFP Energy =                            0.0000000000000000
    Total Energy =                       -266.8132765267238256

  Mulliken Charges: (a.u.)
   Center  Symbol    Alpha    Beta     Spin     Total
       1     O     4.25293  4.25293  0.00000 -0.50586
       2     C     2.63214  2.63214  0.00000  0.73571
       3     C     3.28903  3.28903  0.00000 -0.57806
       4     O     4.30131  4.30131  0.00000 -0.60263
       5     H     0.40781  0.40781  0.00000  0.18438
       6     H     0.39700  0.39700  0.00000  0.20600
       7     H     0.39790  0.39790  0.00000  0.20419
       8     C     3.09360  3.09360  0.00000 -0.18720
       9     H     0.42076  0.42076  0.00000  0.15849
      10     H     0.39949  0.39949  0.00000  0.20103
      11     H     0.40802  0.40802  0.00000  0.18395

   Total alpha = 20.00000, Total beta = 20.00000, Total charge =  0.00000
