                              Psi4 1.0.54 Driver

  ==> Input File <==

--------------------------------------------------------------------------
set {
	reference rhf
	basis cc-pvtz
}

set_num_threads( 4 )
memory 2 gb

molecule MOL {
0 1

H	 1.284247	 0.280450	 0.994011
C	 0.848385	 0.440008	 0.000011
C	 -0.623497	 0.751021	 0.000090
O	 1.526213	 0.362294	 -0.965263
C	 -1.523725	 -0.474323	 -0.000013
H	 -0.813143	 1.382932	 -0.864897
H	 -0.813071	 1.382716	 0.865253
H	 -1.342980	 -1.087348	 -0.873016
H	 -2.565269	 -0.177464	 0.000070
H	 -1.342898	 -1.087564	 0.872820

	symmetry c1
}
set optking {
	frozen_dihedral = ("
		4 2 3 6
	")
}

ee,wfn = optimize('scf', return_wfn=True)
oeprop( wfn, 'DIPOLE', 'QUADRUPOLE', 'MULLIKEN_CHARGES')
f=open( 'psi4out.xyz', 'w' )
f.write( "10  " )
f.write( str(ee) + "\n" )
f.write( MOL.save_string_xyz() )
f.close()
--------------------------------------------------------------------------

    Molecular point group: c1
  Charge       = 0
  Multiplicity = 1
  Basis Set: CC-PVTZ
  Basis Set:
  @DF-RHF Final Energy:  -192.02148222585976
    Total Energy =                       -192.0214822258598133
    Molecular point group: c1
  Basis Set: CC-PVTZ
  Basis Set:
  Basis Set: CC-PVTZ
  Basis Set:
  @DF-RHF Final Energy:  -192.02138424682616
    Total Energy =                       -192.0213842468261589
  Basis Set: CC-PVTZ
  Basis Set:
  Basis Set: CC-PVTZ
  Basis Set:
  @DF-RHF Final Energy:  -192.02163712485361
    Total Energy =                       -192.0216371248536689
  Basis Set: CC-PVTZ
  Basis Set:
  Basis Set: CC-PVTZ
  Basis Set:
  @DF-RHF Final Energy:  -192.02239639010247
    Total Energy =                       -192.0223963901024149
  Basis Set: CC-PVTZ
  Basis Set:
  Basis Set: CC-PVTZ
  Basis Set:
  @DF-RHF Final Energy:  -192.02240931368618
    Total Energy =                       -192.0224093136860688
  Basis Set: CC-PVTZ
  Basis Set:
  Charge       = 0
  Multiplicity = 1
  Basis Set: CC-PVTZ
  Basis Set:

    Orbital Energies (a.u.)
    -----------------------

    Doubly Occupied:

       1A    -20.553492     2A    -11.322766     3A    -11.237632
       4A    -11.231571     5A     -1.408537     6A     -1.065862
       7A     -0.905388     8A     -0.790362     9A     -0.683320
      10A     -0.643535    11A     -0.606566    12A     -0.578063
      13A     -0.543072    14A     -0.510345    15A     -0.500607
      16A     -0.414460

  @DF-RHF Final Energy:  -192.02240969612205

   => Energetics <=

    Nuclear Repulsion Energy =            118.2616028952681972
    One-Electron Energy =                -494.5768704940011276
    Two-Electron Energy =                 184.2928579026108196
    DFT Exchange-Correlation Energy =       0.0000000000000000
    Empirical Dispersion Energy =           0.0000000000000000
    PCM Polarization Energy =               0.0000000000000000
    EFP Energy =                            0.0000000000000000
    Total Energy =                       -192.0224096961221107
    Molecular point group: c1
  Basis Set: CC-PVTZ
  Basis Set:

  -Total Gradient:
     Atom            X                  Y                   Z
    ------   -----------------  -----------------  -----------------
       1        0.000003868566    -0.000020898452     0.000019615273
       2        0.000431237422     0.002581205723     0.000456964403
       3       -0.000308940998    -0.002220323666    -0.001160532796
       4       -0.000291887031    -0.001571603834    -0.000164033389
       5        0.000017322674     0.000009414698     0.000019855086
       6        0.000142569259     0.001250239788     0.000847013170
       7        0.000023249661    -0.000021259742    -0.000011584047
       8        0.000000201912    -0.000004288415    -0.000006435081
       9       -0.000014619648     0.000006496763    -0.000001463037
      10       -0.000003001812    -0.000008982863     0.000000600415

  **** Optimization is complete! (in 6 steps) ****
    Final optimized geometry and variables:
    Molecular point group: c1

    Geometry (in Angstrom), charge = 0, multiplicity = 1:

    H            1.142037686533     0.032798588745     1.320259377355
    C            0.751564630909     0.228790441040     0.313467218099
    C           -0.731032860159     0.479040314819     0.223605416865
    O            1.475919953836     0.189749247392    -0.620098711565
    C           -1.493066315926    -0.845216524460     0.116308040105
    H           -0.921632318685     1.105319941239    -0.637883574541
    H           -1.051346958721     1.015140812124     1.111106583055
    H           -1.209961659991    -1.376781987561    -0.783058349589
    H           -2.559723563575    -0.664810185710     0.084810251711
    H           -1.290077341431    -1.487296612273     0.966490495809

  Mulliken Charges: (a.u.)
   Center  Symbol    Alpha    Beta     Spin     Total
       1     H     0.46232  0.46232  0.00000  0.07536
       2     C     2.90285  2.90285  0.00000  0.19429
       3     C     3.08089  3.08089  0.00000 -0.16179
       4     O     4.16683  4.16683  0.00000 -0.33365
       5     C     3.14696  3.14696  0.00000 -0.29392
       6     H     0.44284  0.44284  0.00000  0.11432
       7     H     0.45282  0.45282  0.00000  0.09436
       8     H     0.44441  0.44441  0.00000  0.11118
       9     H     0.44610  0.44610  0.00000  0.10781
      10     H     0.45397  0.45397  0.00000  0.09205

   Total alpha = 16.00000, Total beta = 16.00000, Total charge = -0.00000

*** Psi4 exiting successfully. Buy a developer a beer!
