  ==> Input File <==

--------------------------------------------------------------------------
set {
	reference rhf
	basis cc-pvtz
}

set_num_threads( 4 )
memory 2 gb

molecule MOL {
0 1

H	 1.507624	 -0.835948	 2.258247
O	 0.827822	 -0.283455	 1.919612
C	 1.135873	 0.113391	 0.608264
C	 0.027642	 1.012027	 0.090274
H	 1.220173	 -0.755313	 -0.039821
H	 2.090986	 0.630682	 0.583133
C	 -1.138737	 0.285728	 -0.581921
H	 0.464661	 1.708096	 -0.618252
H	 -0.340737	 1.603071	 0.925246
C	 -1.933983	 -0.631436	 0.343653
H	 -0.763151	 -0.285569	 -1.422081
H	 -1.808359	 1.035291	 -0.992333
H	 -2.789188	 -1.049673	 -0.174718
H	 -1.335629	 -1.461368	 0.700418
H	 -2.305435	 -0.092167	 1.209725

	symmetry c1
}
set optking {
	frozen_dihedral = ("
		2 3 4 8
	")
}

ee = optimize('scf')
oeprop('DIPOLE', 'QUADRUPOLE', 'MULLIKEN_CHARGES')
f=open( 'psi4out.xyz', 'w' )
f.write( "15  " )
f.write( str(ee) + "\n" )
f.write( MOL.save_string_xyz() )
f.close()
--------------------------------------------------------------------------

    Molecular point group: c1
  Charge       = 0
  Multiplicity = 1
  Basis Set: CC-PVTZ
  Basis Set:
  @DF-RHF Final Energy:  -232.23499297048431
    Total Energy =                       -232.2349929704846545
    Molecular point group: c1
  Basis Set: CC-PVTZ
  Basis Set:
  Basis Set: CC-PVTZ
  Basis Set:
  @DF-RHF Final Energy:  -232.23526388492803
    Total Energy =                       -232.2352638849281448
  Basis Set: CC-PVTZ
  Basis Set:
  Basis Set: CC-PVTZ
  Basis Set:
  @DF-RHF Final Energy:  -232.23530131159959
    Total Energy =                       -232.2353013115995850
  Basis Set: CC-PVTZ
  Basis Set:
  Basis Set: CC-PVTZ
  Basis Set:
  @DF-RHF Final Energy:  -232.23530412416929
    Total Energy =                       -232.2353041241694314
  Basis Set: CC-PVTZ
  Basis Set:
  Charge       = 0
  Multiplicity = 1
  Basis Set: CC-PVTZ
  Basis Set:

    Orbital Energies (a.u.)
    -----------------------

    Doubly Occupied:

       1A    -20.546368     2A    -11.266536     3A    -11.211409
       4A    -11.210632     5A    -11.197488     6A     -1.363886
       7A     -1.065128     8A     -0.970414     9A     -0.865539
      10A     -0.780675    11A     -0.705160    12A     -0.648615
      13A     -0.608671    14A     -0.575489    15A     -0.555712
      16A     -0.541025    17A     -0.505237    18A     -0.476804
      19A     -0.468055    20A     -0.455633    21A     -0.429358

  @DF-RHF Final Energy:  -232.23530447674202

   => Energetics <=

    Nuclear Repulsion Energy =            192.1697814826030424
    One-Electron Energy =                -695.9145022436374575
    Two-Electron Energy =                 271.5094162842924561
    DFT Exchange-Correlation Energy =       0.0000000000000000
    Empirical Dispersion Energy =           0.0000000000000000
    PCM Polarization Energy =               0.0000000000000000
    EFP Energy =                            0.0000000000000000
    Total Energy =                       -232.2353044767419306
    Molecular point group: c1
  Basis Set: CC-PVTZ
  Basis Set:

  -Total Gradient:
     Atom            X                  Y                   Z
    ------   -----------------  -----------------  -----------------
       1        0.000007669139     0.000002925662     0.000009228551
       2        0.000945312588     0.001616040542     0.000702368920
       3       -0.001151903850    -0.001745249378    -0.000549918651
       4       -0.000295155739    -0.001591404081    -0.002174958891
       5       -0.000007591648     0.000009657833     0.000006973428
       6        0.000001480272    -0.000003750865     0.000019617656
       7        0.000048176157     0.000029546354     0.000016122438
       8        0.000444760271     0.001652026624     0.001920984324
       9       -0.000015668467     0.000019330640     0.000024981302
      10        0.000006771524    -0.000036318096     0.000002249057
      11        0.000009252900     0.000012182498     0.000000074182
      12        0.000006444952     0.000003921065     0.000002754137
      13        0.000014361352     0.000013539961     0.000013385441
      14        0.000000023814     0.000004025031    -0.000007448848
      15       -0.000013933263     0.000013526209     0.000013586950

  **** Optimization is complete! (in 5 steps) ****
    Final optimized geometry and variables:
    Molecular point group: c1

    Geometry (in Angstrom), charge = 0, multiplicity = 1:

    H            1.697197288325    -0.943921959301     1.713759558381
    O            1.026673073323    -0.368511412699     1.394659278492
    C            1.328769032430     0.042809909455     0.084968317888
    C            0.212073258034     0.938321168186    -0.436286760359
    H            1.459375119395    -0.818014323669    -0.567504471898
    H            2.263799973734     0.596474439118     0.084642511821
    C           -0.960824009222     0.216756236566    -1.100020866652
    H            0.643225114900     1.643068196279    -1.140511679014
    H           -0.143847225526     1.532307130618     0.399878325529
    C           -1.762946914759    -0.693649840043    -0.173857971501
    H           -0.589908019298    -0.361657648262    -1.942580336385
    H           -1.625838693632     0.965507994134    -1.519790310573
    H           -2.596595906692    -1.138171828023    -0.706231066249
    H           -1.154878105958    -1.493455078381     0.227667207604
    H           -2.161647672843    -0.137462601614     0.667361029414

  Mulliken Charges: (a.u.)
   Center  Symbol    Alpha    Beta     Spin     Total
       1     H     0.39542  0.39542  0.00000  0.20916
       2     O     4.19920  4.19920  0.00000 -0.39840
       3     C     2.97912  2.97912  0.00000  0.04177
       4     C     3.09530  3.09530  0.00000 -0.19060
       5     H     0.47127  0.47127  0.00000  0.05746
       6     H     0.46130  0.46130  0.00000  0.07740
       7     C     3.09209  3.09209  0.00000 -0.18418
       8     H     0.44794  0.44794  0.00000  0.10412
       9     H     0.45034  0.45034  0.00000  0.09931
      10     C     3.13973  3.13973  0.00000 -0.27946
      11     H     0.45753  0.45753  0.00000  0.08494
      12     H     0.45069  0.45069  0.00000  0.09862
      13     H     0.45224  0.45224  0.00000  0.09552
      14     H     0.45316  0.45316  0.00000  0.09367
      15     H     0.45467  0.45467  0.00000  0.09066

   Total alpha = 21.00000, Total beta = 21.00000, Total charge = -0.00000
