                              Psi4 1.0.54 Driver

  ==> Input File <==

--------------------------------------------------------------------------
set {
	reference rhf
	basis cc-pvtz
}

set_num_threads( 4 )
memory 2 gb

molecule MOL {
0 1

H	 -2.125018	 1.931363	 -2.653634
O	 -1.325835	 1.427328	 -2.684834
C	 -0.890668	 1.250562	 -1.440520
C	 0.385894	 0.454895	 -1.403970
O	 -1.466943	 1.686640	 -0.504724
C	 0.926581	 0.227233	 0.000178
H	 1.106181	 0.978471	 -2.024277
H	 0.190285	 -0.485538	 -1.908985
C	 2.220156	 -0.582071	 -0.000088
H	 1.092467	 1.185501	 0.479385
H	 0.175445	 -0.280310	 0.594835
C	 3.466689	 0.296012	 -0.000457
H	 2.239073	 -1.234095	 -0.869382
H	 2.239505	 -1.233985	 0.869270
H	 3.493549	 0.935857	 -0.875887
H	 4.368821	 -0.304526	 -0.001199
H	 3.494559	 0.935166	 0.875458

	symmetry c1
}
set optking {
	frozen_dihedral = ("
		10 6 9 13
	")
}

ee,wfn = optimize('scf', return_wfn=True)
oeprop( wfn, 'DIPOLE', 'QUADRUPOLE', 'MULLIKEN_CHARGES')
f=open( 'psi4out.xyz', 'w' )
f.write( "17  " )
f.write( str(ee) + "\n" )
f.write( MOL.save_string_xyz() )
f.close()
--------------------------------------------------------------------------

    Molecular point group: c1
  Charge       = 0
  Multiplicity = 1
  Basis Set: CC-PVTZ
  Basis Set:
  @DF-RHF Final Energy:  -345.04487052802961
    Total Energy =                       -345.0448705280294917
    Molecular point group: c1
  Basis Set: CC-PVTZ
  Basis Set:
  Basis Set: CC-PVTZ
  Basis Set:
  @DF-RHF Final Energy:  -345.04506146599891
    Total Energy =                       -345.0450614659989697
  Basis Set: CC-PVTZ
  Basis Set:
  Basis Set: CC-PVTZ
  Basis Set:
  @DF-RHF Final Energy:  -345.04500462951762
    Total Energy =                       -345.0450046295178481
  Basis Set: CC-PVTZ
  Basis Set:
  Basis Set: CC-PVTZ
  Basis Set:
  @DF-RHF Final Energy:  -345.04520292550620
    Total Energy =                       -345.0452029255063167
  Basis Set: CC-PVTZ
  Basis Set:
  Basis Set: CC-PVTZ
  Basis Set:
  @DF-RHF Final Energy:  -345.04520575318935
    Total Energy =                       -345.0452057531892365
  Basis Set: CC-PVTZ
  Basis Set:
  Charge       = 0
  Multiplicity = 1
  Basis Set: CC-PVTZ
  Basis Set:

    Orbital Energies (a.u.)
    -----------------------

    Doubly Occupied:

       1A    -20.604096     2A    -20.540749     3A    -11.373542
       4A    -11.239450     5A    -11.221402     6A    -11.220777
       7A    -11.212356     8A     -1.477659     9A     -1.369188
      10A     -1.092181    11A     -1.017777    12A     -0.916635
      13A     -0.829057    14A     -0.786291    15A     -0.703818
      16A     -0.692418    17A     -0.667666    18A     -0.619381
      19A     -0.613609    20A     -0.588446    21A     -0.563284
      22A     -0.535151    23A     -0.523192    24A     -0.484778
      25A     -0.478813    26A     -0.476995    27A     -0.469761
      28A     -0.446244

  @DF-RHF Final Energy:  -345.04520588686546

   => Energetics <=

    Nuclear Repulsion Energy =            307.1158034236665344
    One-Electron Energy =               -1078.7925864693741005
    Two-Electron Energy =                 426.6315771588421057
    DFT Exchange-Correlation Energy =       0.0000000000000000
    Empirical Dispersion Energy =           0.0000000000000000
    PCM Polarization Energy =               0.0000000000000000
    EFP Energy =                            0.0000000000000000
    Total Energy =                       -345.0452058868654603
    Molecular point group: c1
  Basis Set: CC-PVTZ
  Basis Set:

  -Total Gradient:
     Atom            X                  Y                   Z
    ------   -----------------  -----------------  -----------------
       1       -0.000000599924    -0.000001279471     0.000001203673
       2        0.000008476102     0.000004370715    -0.000005575398
       3       -0.000004750764    -0.000015465565    -0.000006453551
       4        0.000011741074     0.000011002986    -0.000004552984
       5       -0.000002861688     0.000001625302     0.000012771627
       6       -0.000721464881    -0.001144239475     0.003328067224
       7       -0.000002426470    -0.000007760169    -0.000003759010
       8       -0.000009142866    -0.000003201001    -0.000008183862
       9       -0.001681227805    -0.002783619939     0.001501299279
      10        0.000887585020     0.001404288267    -0.003022757286
      11        0.000012080935    -0.000004810536    -0.000003392034
      12       -0.000013708486     0.000008870685     0.000004796209
      13        0.001513847736     0.002517821971    -0.001790068212
      14       -0.000006507477     0.000010068099    -0.000001383063
      15        0.000002021643     0.000004417301    -0.000001114639
      16       -0.000000287188    -0.000004902960    -0.000005802339
      17        0.000007225035     0.000002813790     0.000004904366

  **** Optimization is complete! (in 6 steps) ****
    Final optimized geometry and variables:
    Molecular point group: c1

    Geometry (in Angstrom), charge = 0, multiplicity = 1:

    H           -2.506783354408     1.290450144408    -1.793594647449
    O           -1.723147369661     0.762063433530    -1.815399516079
    C           -1.311185020512     0.568985091146    -0.565495263051
    C           -0.062044788968    -0.268338703217    -0.513024647660
    O           -1.888036288458     1.019148292180     0.363329828022
    C            0.443681801310    -0.528122139227     0.901812775136
    H            0.684426312380     0.237644907232    -1.116438131235
    H           -0.279329712597    -1.197283048508    -1.029678826087
    C            1.760467934805    -1.319102087782     0.913967819371
    H            0.585294626043     0.429381107018     1.388276491263
    H           -0.323208983771    -1.052226412683     1.456887258917
    C            2.998898839529    -0.424257896512     0.907977723520
    H            1.806237715962    -1.966349090311     0.042945320696
    H            1.793554305130    -1.961330102119     1.786092314079
    H            3.006911258902     0.238452706079     0.048719542494
    H            3.907478673334    -1.014356837803     0.873798444522
    H            3.036528446474     0.192897413569     1.798820063532

  Mulliken Charges: (a.u.)
   Center  Symbol    Alpha    Beta     Spin     Total
       1     H     0.38238  0.38238  0.00000  0.23524
       2     O     4.16023  4.16023  0.00000 -0.32046
       3     C     2.80494  2.80494  0.00000  0.39012
       4     C     3.11035  3.11035  0.00000 -0.22070
       5     O     4.19109  4.19109  0.00000 -0.38218
       6     C     3.08884  3.08884  0.00000 -0.17769
       7     H     0.43831  0.43831  0.00000  0.12339
       8     H     0.43760  0.43760  0.00000  0.12480
       9     C     3.09282  3.09282  0.00000 -0.18563
      10     H     0.44694  0.44694  0.00000  0.10611
      11     H     0.44052  0.44052  0.00000  0.11896
      12     C     3.14760  3.14760  0.00000 -0.29521
      13     H     0.45692  0.45692  0.00000  0.08616
      14     H     0.44452  0.44452  0.00000  0.11096
      15     H     0.45651  0.45651  0.00000  0.08698
      16     H     0.44771  0.44771  0.00000  0.10459
      17     H     0.45271  0.45271  0.00000  0.09457

   Total alpha = 28.00000, Total beta = 28.00000, Total charge = -0.00000

*** Psi4 exiting successfully. Buy a developer a beer!
