                              Psi4 1.0.54 Driver

  ==> Input File <==

--------------------------------------------------------------------------
set {
	reference rhf
	basis cc-pvtz
}

set_num_threads( 4 )
memory 2 gb

molecule MOL {
0 1

O	 1.314921	 3.783163	 1.534975
C	 0.457872	 3.893942	 2.349410
C	 -0.806225	 3.059280	 2.314358
C	 0.573854	 4.884926	 3.485511
C	 -0.881665	 2.077479	 1.153667
H	 -0.880535	 2.537641	 3.265904
H	 -1.650605	 3.744593	 2.295002
C	 -2.170446	 1.260093	 1.159525
H	 -0.024775	 1.414646	 1.192480
H	 -0.795387	 2.622707	 0.220707
C	 -2.258482	 0.271340	 0.000669
H	 -2.251449	 0.717905	 2.099070
H	 -3.025541	 1.931434	 1.122449
C	 -3.544441	 -0.550271	 -0.000253
H	 -1.404276	 -0.400318	 0.037018
H	 -2.178398	 0.812448	 -0.938967
C	 -4.804551	 0.308747	 0.000556
H	 -3.553737	 -1.201524	 -0.870151
H	 -3.553831	 -1.203282	 0.868313
H	 -4.842050	 0.949078	 -0.874436
H	 -5.698404	 -0.304480	 -0.000254
H	 -4.842277	 0.947103	 0.876982
H	 0.522708	 4.369438	 4.438246
H	 1.508314	 5.419393	 3.411219
H	 -0.251850	 5.587281	 3.454657

	symmetry c1
}
set optking {
	frozen_dihedral = ("
		15 11 14 18
	")
}

ee,wfn = optimize('scf', return_wfn=True)
oeprop( wfn, 'DIPOLE', 'QUADRUPOLE', 'MULLIKEN_CHARGES')
f=open( 'psi4out.xyz', 'w' )
f.write( "25  " )
f.write( str(ee) + "\n" )
f.write( MOL.save_string_xyz() )
f.close()
--------------------------------------------------------------------------

    Molecular point group: c1
  Charge       = 0
  Multiplicity = 1
  Basis Set: CC-PVTZ
  Basis Set:
  @DF-RHF Final Energy:  -387.27153710942531
    Total Energy =                       -387.2715371094252532
    Molecular point group: c1
  Basis Set: CC-PVTZ
  Basis Set:
  Basis Set: CC-PVTZ
  Basis Set:
  @DF-RHF Final Energy:  -387.27074689842971
    Total Energy =                       -387.2707468984299339
  Basis Set: CC-PVTZ
  Basis Set:
  Basis Set: CC-PVTZ
  Basis Set:
  @DF-RHF Final Energy:  -387.27253603782583
    Total Energy =                       -387.2725360378258301
  Basis Set: CC-PVTZ
  Basis Set:
  Basis Set: CC-PVTZ
  Basis Set:
  @DF-RHF Final Energy:  -387.27264966250874
    Total Energy =                       -387.2726496625086838
  Basis Set: CC-PVTZ
  Basis Set:
  @DF-RHF Final Energy:  -387.27261777628871
    Total Energy =                       -387.2726177762889392
  @DF-RHF Final Energy:  -387.27261925420737
    Total Energy =                       -387.2726192542078252
  Basis Set: CC-PVTZ
  Basis Set:
  @DF-RHF Final Energy:  -387.27264875546388
    Total Energy =                       -387.2726487554631376
  Basis Set: CC-PVTZ
  Basis Set:
  Basis Set: CC-PVTZ
  Basis Set:
  @DF-RHF Final Energy:  -387.27265417914924
    Total Energy =                       -387.2726541791491854
  Basis Set: CC-PVTZ
  Basis Set:
  Basis Set: CC-PVTZ
  Basis Set:
  @DF-RHF Final Energy:  -387.27265668155428
    Total Energy =                       -387.2726566815546221
  Basis Set: CC-PVTZ
  Basis Set:
  Charge       = 0
  Multiplicity = 1
  Basis Set: CC-PVTZ
  Basis Set:

    Orbital Energies (a.u.)
    -----------------------

    Doubly Occupied:

       1A    -20.538835     2A    -11.320466     3A    -11.230093
       4A    -11.226553     5A    -11.214957     6A    -11.214225
       7A    -11.214078     8A    -11.211939     9A    -11.206999
      10A     -1.398881    11A     -1.095140    12A     -1.056933
      13A     -1.014501    14A     -0.967885    15A     -0.897002
      16A     -0.824811    17A     -0.777897    18A     -0.730532
      19A     -0.660243    20A     -0.654730    21A     -0.628636
      22A     -0.623903    23A     -0.608132    24A     -0.592167
      25A     -0.566139    26A     -0.557751    27A     -0.544150
      28A     -0.521832    29A     -0.513500    30A     -0.495421
      31A     -0.492088    32A     -0.477338    33A     -0.461325
      34A     -0.456880    35A     -0.452335    36A     -0.401388

  @DF-RHF Final Energy:  -387.27265675976258

   => Energetics <=

    Nuclear Repulsion Energy =            443.5899531132936886
    One-Electron Energy =               -1404.0258445490931081
    Two-Electron Energy =                 573.1632346760370638
    DFT Exchange-Correlation Energy =       0.0000000000000000
    Empirical Dispersion Energy =           0.0000000000000000
    PCM Polarization Energy =               0.0000000000000000
    EFP Energy =                            0.0000000000000000
    Total Energy =                       -387.2726567597624125
    Molecular point group: c1
  Basis Set: CC-PVTZ
  Basis Set:

  -Total Gradient:
     Atom            X                  Y                   Z
    ------   -----------------  -----------------  -----------------
       1       -0.000003558098     0.000002616937     0.000005743561
       2        0.000004840934    -0.000003093404    -0.000001771162
       3       -0.000004899563     0.000009246348    -0.000005791507
       4       -0.000000902406     0.000000251143     0.000000729550
       5        0.000000246102    -0.000005334546     0.000006706371
       6        0.000001110805    -0.000001329110    -0.000007802664
       7       -0.000001706877     0.000001499981     0.000002810828
       8        0.000010903132    -0.000017249983     0.000009951965
       9       -0.000000546641    -0.000001095819    -0.000002121352
      10        0.000000398901     0.000002095182     0.000005603915
      11       -0.000204631716     0.000425289064    -0.002491528731
      12        0.000000003426     0.000004404582     0.000007877887
      13        0.000003218261    -0.000007221588    -0.000004955434
      14        0.001188483905    -0.001648909906     0.001491876324
      15       -0.000022216350    -0.000090002805     0.001875319514
      16        0.000003411351    -0.000001109805    -0.000009296982
      17       -0.000002005131    -0.000006728208    -0.000001208030
      18       -0.000977794743     0.001337795157    -0.000872868504
      19       -0.000001434564    -0.000003818789     0.000001227441
      20       -0.000004165313     0.000000859076     0.000000962552
      21        0.000004657362     0.000006493976     0.000002632123
      22        0.000004560187    -0.000003597253    -0.000009955830
      23        0.000000090030     0.000001010610    -0.000004242394
      24        0.000000079707    -0.000000155078     0.000000432087
      25        0.000001857298    -0.000001915760    -0.000000331526

  **** Optimization is complete! (in 10 steps) ****
    Final optimized geometry and variables:
    Molecular point group: c1

    Geometry (in Angstrom), charge = 0, multiplicity = 1:

    O            2.670438496342     1.665709998771     0.356841271493
    C            1.800743742666     1.729300269437     1.162788507419
    C            0.529598915823     0.912220900218     1.049991006492
    C            1.906336613373     2.639020745431     2.365994863487
    C            0.465188031416     0.012101832889    -0.175738821406
    H            0.434167922241     0.328024982235     1.962516708335
    H           -0.307746966567     1.606245063427     1.063416702093
    C           -0.830143216502    -0.792699938871    -0.245631751038
    H            1.316714078994    -0.658565524691    -0.169380663117
    H            0.569907122153     0.618904837341    -1.068086654500
    C           -0.900557558006    -1.687150810274    -1.482585570317
    H           -0.922309760598    -1.408683170002     0.646939826444
    H           -1.674027428762    -0.109799180002    -0.232971106289
    C           -2.115896446537    -2.614827685308    -1.540289331489
    H           -0.003520541329    -2.299492498390    -1.505962909897
    H           -0.876995655540    -1.066549620834    -2.374698028374
    C           -3.467872475951    -1.905142022475    -1.497040591171
    H           -2.063600884885    -3.183914314458    -2.463353086909
    H           -2.060765958843    -3.334056015133    -0.727865016253
    H           -3.541232812934    -1.156974225322    -2.280194025603
    H           -4.275941558570    -2.612976144933    -1.642096752225
    H           -3.637284721511    -1.409154391543    -0.549090610978
    H            1.833685980745     2.060049158459     3.280063742478
    H            2.846986275128     3.167397196701     2.344352821890
    H            1.087977204479     3.350577996989     2.369443686115

  Mulliken Charges: (a.u.)
   Center  Symbol    Alpha    Beta     Spin     Total
       1     O     4.17089  4.17089  0.00000 -0.34177
       2     C     2.86223  2.86223  0.00000  0.27554
       3     C     3.11323  3.11323  0.00000 -0.22646
       4     C     3.15126  3.15126  0.00000 -0.30252
       5     C     3.08226  3.08226  0.00000 -0.16451
       6     H     0.44567  0.44567  0.00000  0.10867
       7     H     0.44577  0.44577  0.00000  0.10847
       8     C     3.09410  3.09410  0.00000 -0.18821
       9     H     0.44544  0.44544  0.00000  0.10913
      10     H     0.44613  0.44613  0.00000  0.10774
      11     C     3.09566  3.09566  0.00000 -0.19131
      12     H     0.45584  0.45584  0.00000  0.08833
      13     H     0.45344  0.45344  0.00000  0.09312
      14     C     3.09029  3.09029  0.00000 -0.18058
      15     H     0.44892  0.44892  0.00000  0.10216
      16     H     0.45168  0.45168  0.00000  0.09663
      17     C     3.15484  3.15484  0.00000 -0.30968
      18     H     0.44845  0.44845  0.00000  0.10310
      19     H     0.45396  0.45396  0.00000  0.09209
      20     H     0.45417  0.45417  0.00000  0.09166
      21     H     0.44572  0.44572  0.00000  0.10855
      22     H     0.45391  0.45391  0.00000  0.09218
      23     H     0.45042  0.45042  0.00000  0.09917
      24     H     0.43537  0.43537  0.00000  0.12926
      25     H     0.45037  0.45037  0.00000  0.09926

   Total alpha = 36.00000, Total beta = 36.00000, Total charge = -0.00000

*** Psi4 exiting successfully. Buy a developer a beer!
