  ==> Input File <==

--------------------------------------------------------------------------
set {
	reference rhf
	basis cc-pvtz
}

set_num_threads( 4 )
memory 2 gb

molecule MOL {
0 1

O	 -1.278239	 1.034789	 -0.784693
C	 -1.204115	 0.062668	 -0.112312
C	 -2.386398	 -0.667698	 0.460323
O	 -0.068058	 -0.518372	 0.226882
H	 -2.382952	 -1.693172	 0.114333
H	 -3.296656	 -0.175702	 0.158400
H	 -2.312537	 -0.685191	 1.540100
C	 1.169086	 0.037484	 -0.230612
C	 2.031729	 -1.135883	 -0.650339
C	 1.797530	 0.872641	 0.870378
H	 0.955675	 0.664389	 -1.082982
H	 1.546584	 -1.707421	 -1.431190
H	 2.983479	 -0.780720	 -1.026826
H	 2.219343	 -1.794447	 0.189322
H	 2.740405	 1.284340	 0.529805
H	 1.150633	 1.693620	 1.146360
H	 1.987420	 0.264199	 1.747319

	symmetry c1
}
set optking {
	frozen_dihedral = ("
		11 8 4 2
	")
}

ee = optimize('scf')
oeprop('DIPOLE', 'QUADRUPOLE', 'MULLIKEN_CHARGES')
f=open( 'psi4out.xyz', 'w' )
f.write( "17  " )
f.write( str(ee) + "\n" )
f.write( MOL.save_string_xyz() )
f.close()
--------------------------------------------------------------------------

    Molecular point group: c1
  Charge       = 0
  Multiplicity = 1
  Basis Set: CC-PVTZ
  Basis Set:
  @DF-RHF Final Energy:  -345.04281052602875
    Total Energy =                       -345.0428105260283473
    Molecular point group: c1
  Basis Set: CC-PVTZ
  Basis Set:
  Basis Set: CC-PVTZ
  Basis Set:
  @DF-RHF Final Energy:  -345.04287748268047
    Total Energy =                       -345.0428774826807512
  Basis Set: CC-PVTZ
  Basis Set:
  Basis Set: CC-PVTZ
  Basis Set:
  @DF-RHF Final Energy:  -345.04261638073507
    Total Energy =                       -345.0426163807352395
  Basis Set: CC-PVTZ
  Basis Set:
  Basis Set: CC-PVTZ
  Basis Set:
  @DF-RHF Final Energy:  -345.04294810971282
    Total Energy =                       -345.0429481097129951
  Basis Set: CC-PVTZ
  Basis Set:
  Basis Set: CC-PVTZ
  Basis Set:
  @DF-RHF Final Energy:  -345.04295689857133
    Total Energy =                       -345.0429568985716742
  Basis Set: CC-PVTZ
  Basis Set:
  Charge       = 0
  Multiplicity = 1
  Basis Set: CC-PVTZ
  Basis Set:

    Orbital Energies (a.u.)
    -----------------------

    Doubly Occupied:

       1A    -20.590787     2A    -20.531233     3A    -11.367055
       4A    -11.287138     5A    -11.230402     6A    -11.217926
       7A    -11.215875     8A     -1.467772     9A     -1.364557
      10A     -1.079882    11A     -1.005590    12A     -0.949350
      13A     -0.849648    14A     -0.769417    15A     -0.694896
      16A     -0.669597    17A     -0.663019    18A     -0.613828
      19A     -0.587365    20A     -0.579174    21A     -0.566923
      22A     -0.551627    23A     -0.536624    24A     -0.523363
      25A     -0.504344    26A     -0.482958    27A     -0.448500
      28A     -0.439840

  @DF-RHF Final Energy:  -345.04295709913538

   => Energetics <=

    Nuclear Repulsion Energy =            322.8021237385081577
    One-Electron Energy =               -1110.1127836691248376
    Two-Electron Energy =                 442.2677028314816425
    DFT Exchange-Correlation Energy =       0.0000000000000000
    Empirical Dispersion Energy =           0.0000000000000000
    PCM Polarization Energy =               0.0000000000000000
    EFP Energy =                            0.0000000000000000
    Total Energy =                       -345.0429570991350374
    Molecular point group: c1
  Basis Set: CC-PVTZ
  Basis Set:

  -Total Gradient:
     Atom            X                  Y                   Z
    ------   -----------------  -----------------  -----------------
       1       -0.000004152787    -0.000012129836     0.000008461261
       2       -0.000062094437    -0.000624718580    -0.000912398439
       3       -0.000004508705    -0.000020556312    -0.000024522251
       4        0.000067223071     0.001151416240     0.001496594921
       5        0.000002292812     0.000002585300     0.000012050508
       6       -0.000003924672     0.000001034098     0.000002099982
       7        0.000000994238     0.000012864863     0.000003256448
       8        0.000094470858    -0.001502740198    -0.001329032244
       9        0.000011028608    -0.000004603632    -0.000002161477
      10        0.000038898505    -0.000008999192    -0.000016910866
      11       -0.000126600284     0.000985500817     0.000755860064
      12       -0.000001426903     0.000003886790    -0.000000058887
      13       -0.000005465224     0.000004012448     0.000001839022
      14       -0.000003342614     0.000002051569     0.000001872190
      15        0.000006303887     0.000010506873     0.000008748135
      16       -0.000002167703     0.000001729828    -0.000000148357
      17       -0.000007528649    -0.000001841076    -0.000005550010

  **** Optimization is complete! (in 6 steps) ****
    Final optimized geometry and variables:
    Molecular point group: c1

    Geometry (in Angstrom), charge = 0, multiplicity = 1:

    O           -1.294714313820     1.104116862122    -0.725135015841
    C           -1.214197853817     0.117271437451    -0.075649225191
    C           -2.392394532840    -0.627255976757     0.487330075340
    O           -0.076475489482    -0.469026105841     0.250488624534
    H           -2.390450412916    -1.644335627811     0.117395642860
    H           -3.304922715377    -0.129041131289     0.203056738137
    H           -2.311283144754    -0.670075303815     1.565849765310
    C            1.164083207591     0.070305990529    -0.217628136254
    C            2.030415287088    -1.104923205617    -0.624222874184
    C            1.778011996347     0.913223515675     0.885560499047
    H            0.954997861406     0.697402412883    -1.069007075275
    H            1.554335534784    -1.677796068031    -1.409846734113
    H            2.987052847005    -0.752186392564    -0.990721824217
    H            2.207330704160    -1.761703172593     0.219218915051
    H            2.723838082063     1.327660277969     0.556808535639
    H            1.122279988729     1.733907616267     1.146416852158
    H            1.954845616565     0.314528735837     1.771557109092

  Mulliken Charges: (a.u.)
   Center  Symbol    Alpha    Beta     Spin     Total
       1     O     4.19972  4.19972  0.00000 -0.39944
       2     C     2.80387  2.80387  0.00000  0.39226
       3     C     3.14016  3.14016  0.00000 -0.28033
       4     O     4.16605  4.16605  0.00000 -0.33211
       5     H     0.44618  0.44618  0.00000  0.10763
       6     H     0.43846  0.43846  0.00000  0.12309
       7     H     0.44603  0.44603  0.00000  0.10793
       8     C     2.93429  2.93429  0.00000  0.13142
       9     C     3.13788  3.13788  0.00000 -0.27575
      10     C     3.14823  3.14823  0.00000 -0.29645
      11     H     0.43777  0.43777  0.00000  0.12446
      12     H     0.44731  0.44731  0.00000  0.10538
      13     H     0.45383  0.45383  0.00000  0.09234
      14     H     0.45262  0.45262  0.00000  0.09477
      15     H     0.45121  0.45121  0.00000  0.09759
      16     H     0.44310  0.44310  0.00000  0.11380
      17     H     0.45330  0.45330  0.00000  0.09340

   Total alpha = 28.00000, Total beta = 28.00000, Total charge = -0.00000
