  ==> Input File <==

--------------------------------------------------------------------------
set {
	reference rhf
	basis 6-31G*
}

set_num_threads( 1 )
memory 2 gb

molecule MOL {
0 1

H	 -3.261111	 -0.295142	 1.469456
C	 -3.306842	 -0.277400	 0.373456
C	 -2.660244	 0.921717	 -0.272021
O	 -3.838538	 -1.161155	 -0.216482
C	 -2.587050	 2.130191	 0.671635
H	 -1.677466	 0.631721	 -0.625232
H	 -3.263943	 1.181743	 -1.140693
C	 -1.648640	 1.918788	 1.862431
H	 -2.256663	 2.992826	 0.100680
H	 -3.586979	 2.369646	 1.030187
C	 -1.576771	 3.135038	 2.787843
H	 -0.652464	 1.683952	 1.493198
H	 -1.969272	 1.050816	 2.435456
C	 -0.625136	 2.926131	 3.968817
H	 -1.266219	 4.000631	 2.208156
H	 -2.573382	 3.360309	 3.165207
C	 -0.582696	 4.087081	 4.969049
H	 0.379661	 2.739440	 3.593022
H	 -0.922309	 2.024149	 4.499693
C	 -0.002389	 5.387098	 4.409747
H	 0.012805	 3.780397	 5.825362
H	 -1.585485	 4.272484	 5.348471
H	 0.994922	 5.228166	 4.008026
H	 -0.617150	 5.798370	 3.616086
H	 0.071706	 6.141438	 5.187228

	symmetry c1
}
set optking {
	frozen_dihedral = ("
		6 3 5 8,
		3 5 8 12,
		12 8 11 14,
		8 11 14 18,
		20 17 14 18
	")
}

ee = energy('scf')
oeprop('DIPOLE', 'QUADRUPOLE', 'MULLIKEN_CHARGES')
f=open( 'psi4out.xyz', 'w' )
f.write( "25  " )
f.write( str(ee) + "\n" )
f.write( MOL.save_string_xyz() )
f.close()
--------------------------------------------------------------------------

    Molecular point group: c1

    Geometry (in Angstrom), charge = 0, multiplicity = 1:

       Center              X                  Y                   Z               Mass
    ------------   -----------------  -----------------  -----------------  -----------------
           H         -1.390825764205    -2.414243825207    -0.593713424211     1.007825032070
           C         -1.436556764205    -2.396501825207    -1.689713424211    12.000000000000
           C         -0.789958764205    -1.197384825207    -2.335190424211    12.000000000000
           O         -1.968252764205    -3.280256825207    -2.279651424211    15.994914619560
           C         -0.716764764205     0.011089174793    -1.391534424211    12.000000000000
           H          0.192819235795    -1.487380825207    -2.688401424211     1.007825032070
           H         -1.393657764205    -0.937358825207    -3.203862424211     1.007825032070
           C          0.221645235795    -0.200313825207    -0.200738424211    12.000000000000
           H         -0.386377764205     0.873724174793    -1.962489424211     1.007825032070
           H         -1.716693764205     0.250544174793    -1.032982424211     1.007825032070
           C          0.293514235795     1.015936174793     0.724673575789    12.000000000000
           H          1.217821235795    -0.435149825207    -0.569971424211     1.007825032070
           H         -0.098986764205    -1.068285825207     0.372286575789     1.007825032070
           C          1.245149235795     0.807029174793     1.905647575789    12.000000000000
           H          0.604066235795     1.881529174793     0.144986575789     1.007825032070
           H         -0.703096764205     1.241207174793     1.102037575789     1.007825032070
           C          1.287589235795     1.967979174793     2.905879575789    12.000000000000
           H          2.249946235795     0.620338174793     1.529852575789     1.007825032070
           H          0.947976235795    -0.094952825207     2.436523575789     1.007825032070
           C          1.867896235795     3.267996174793     2.346577575789    12.000000000000
           H          1.883090235795     1.661295174793     3.762192575789     1.007825032070
           H          0.284800235795     2.153382174793     3.285301575789     1.007825032070
           H          2.865207235795     3.109064174793     1.944856575789     1.007825032070
           H          1.253135235795     3.679268174793     1.552916575789     1.007825032070
           H          1.941991235795     4.022336174793     3.124058575789     1.007825032070

  Charge       = 0
  Multiplicity = 1
  Basis Set: 6-31G*
  Basis Set:

    Orbital Energies (a.u.)
    -----------------------

    Doubly Occupied:

       1A    -20.560795     2A    -11.325498     3A    -11.235017
       4A    -11.234020     5A    -11.227790     6A    -11.222525
       7A    -11.220339     8A    -11.219739     9A    -11.212478
      10A     -1.401095    11A     -1.106661    12A     -1.071648
      13A     -1.014681    14A     -0.943115    15A     -0.876083
      16A     -0.828092    17A     -0.784950    18A     -0.784603
      19A     -0.666080    20A     -0.662438    21A     -0.634343
      22A     -0.620816    23A     -0.612856    24A     -0.597268
      25A     -0.563432    26A     -0.559292    27A     -0.543935
      28A     -0.521877    29A     -0.506247    30A     -0.504412
      31A     -0.489953    32A     -0.481063    33A     -0.467490
      34A     -0.461931    35A     -0.443704    36A     -0.406376

  @DF-RHF Final Energy:  -387.11878855018938

   => Energetics <=

    Nuclear Repulsion Energy =            436.8857498968886830
    One-Electron Energy =               -1389.9836537685782787
    Two-Electron Energy =                 565.9791153215013537
    DFT Exchange-Correlation Energy =       0.0000000000000000
    Empirical Dispersion Energy =           0.0000000000000000
    PCM Polarization Energy =               0.0000000000000000
    EFP Energy =                            0.0000000000000000
    Total Energy =                       -387.1187885501882420

  Mulliken Charges: (a.u.)
   Center  Symbol    Alpha    Beta     Spin     Total
       1     H     0.43034  0.43034  0.00000  0.13932
       2     C     2.83193  2.83193  0.00000  0.33614
       3     C     3.20860  3.20860  0.00000 -0.41719
       4     O     4.24132  4.24132  0.00000 -0.48263
       5     C     3.16844  3.16844  0.00000 -0.33688
       6     H     0.40040  0.40040  0.00000  0.19919
       7     H     0.39785  0.39785  0.00000  0.20431
       8     C     3.15841  3.15841  0.00000 -0.31682
       9     H     0.41249  0.41249  0.00000  0.17501
      10     H     0.41688  0.41688  0.00000  0.16624
      11     C     3.15341  3.15341  0.00000 -0.30683
      12     H     0.42025  0.42025  0.00000  0.15950
      13     H     0.42122  0.42122  0.00000  0.15756
      14     C     3.15311  3.15311  0.00000 -0.30622
      15     H     0.42001  0.42001  0.00000  0.15997
      16     H     0.42264  0.42264  0.00000  0.15471
      17     C     3.15282  3.15282  0.00000 -0.30564
      18     H     0.42345  0.42345  0.00000  0.15311
      19     H     0.42170  0.42170  0.00000  0.15659
      20     C     3.24148  3.24148  0.00000 -0.48295
      21     H     0.41993  0.41993  0.00000  0.16013
      22     H     0.42277  0.42277  0.00000  0.15447
      23     H     0.42197  0.42197  0.00000  0.15605
      24     H     0.42032  0.42032  0.00000  0.15936
      25     H     0.41825  0.41825  0.00000  0.16351

   Total alpha = 36.00000, Total beta = 36.00000, Total charge =  0.00000
