  ==> Input File <==

--------------------------------------------------------------------------
set {
	reference rhf
	basis cc-pvtz
}

set_num_threads( 4 )
memory 2 gb

molecule MOL {
0 1

H	 2.134874	 -1.383112	 0.448530
O	 1.544505	 -0.819082	 -0.015570
C	 0.983707	 0.121790	 0.863225
C	 0.027642	 1.012027	 0.090274
H	 1.762801	 0.737646	 1.305381
H	 0.466411	 -0.380021	 1.676276
C	 -1.138737	 0.285728	 -0.581921
H	 0.598809	 1.538300	 -0.667560
H	 -0.354980	 1.764999	 0.774999
C	 -1.933983	 -0.631436	 0.343653
H	 -0.763151	 -0.285569	 -1.422081
H	 -1.808359	 1.035291	 -0.992333
H	 -2.789188	 -1.049673	 -0.174718
H	 -1.335629	 -1.461368	 0.700418
H	 -2.305435	 -0.092167	 1.209725

	symmetry c1
}
set optking {
	frozen_dihedral = ("
		8 4 7 11
	")
}

ee = optimize('scf')
oeprop('DIPOLE', 'QUADRUPOLE', 'MULLIKEN_CHARGES')
f=open( 'psi4out.xyz', 'w' )
f.write( "15  " )
f.write( str(ee) + "\n" )
f.write( MOL.save_string_xyz() )
f.close()
--------------------------------------------------------------------------

    Molecular point group: c1
  Charge       = 0
  Multiplicity = 1
  Basis Set: CC-PVTZ
  Basis Set:
  @DF-RHF Final Energy:  -232.23707414685839
    Total Energy =                       -232.2370741468586175
    Molecular point group: c1
  Basis Set: CC-PVTZ
  Basis Set:
  Basis Set: CC-PVTZ
  Basis Set:
  @DF-RHF Final Energy:  -232.23708530351723
    Total Energy =                       -232.2370853035172331
  Basis Set: CC-PVTZ
  Basis Set:
  Basis Set: CC-PVTZ
  Basis Set:
  @DF-RHF Final Energy:  -232.23718559683360
    Total Energy =                       -232.2371855968337400
  Basis Set: CC-PVTZ
  Basis Set:
  Basis Set: CC-PVTZ
  Basis Set:
  @DF-RHF Final Energy:  -232.23718771119221
    Total Energy =                       -232.2371877111922345
  Basis Set: CC-PVTZ
  Basis Set:
  Charge       = 0
  Multiplicity = 1
  Basis Set: CC-PVTZ
  Basis Set:

    Orbital Energies (a.u.)
    -----------------------

    Doubly Occupied:

       1A    -20.546709     2A    -11.265022     3A    -11.211040
       4A    -11.207612     5A    -11.202357     6A     -1.364397
       7A     -1.064991     8A     -0.971133     9A     -0.870667
      10A     -0.773203    11A     -0.707519    12A     -0.650464
      13A     -0.609620    14A     -0.574248    15A     -0.565134
      16A     -0.532414    17A     -0.513057    18A     -0.475663
      19A     -0.465445    20A     -0.452433    21A     -0.434254

  @DF-RHF Final Energy:  -232.23718807136345

   => Energetics <=

    Nuclear Repulsion Energy =            192.7055854450626384
    One-Electron Energy =                -696.9707790440497774
    Two-Electron Energy =                 272.0280055276238045
    DFT Exchange-Correlation Energy =       0.0000000000000000
    Empirical Dispersion Energy =           0.0000000000000000
    PCM Polarization Energy =               0.0000000000000000
    EFP Energy =                            0.0000000000000000
    Total Energy =                       -232.2371880713633345
    Molecular point group: c1
  Basis Set: CC-PVTZ
  Basis Set:

  -Total Gradient:
     Atom            X                  Y                   Z
    ------   -----------------  -----------------  -----------------
       1        0.000001164478     0.000001179502    -0.000000295262
       2       -0.000014073080     0.000009961687     0.000004223875
       3       -0.000008739310    -0.000028581587     0.000022876150
       4       -0.001652218242     0.002594197439     0.000005290791
       5        0.000001104471    -0.000007853559     0.000001441322
       6        0.000004325446     0.000005256929     0.000004507998
       7        0.000685111872    -0.002550571660     0.001591265389
       8        0.001271899880    -0.001770176077    -0.000268197620
       9        0.000011154403     0.000006096091    -0.000007942940
      10        0.000046549407    -0.000005747711    -0.000009171112
      11       -0.000327911001     0.001730334056    -0.001329462214
      12       -0.000018561107     0.000003608878     0.000001705466
      13        0.000004560055     0.000003046930     0.000001439270
      14       -0.000011314784     0.000003174013    -0.000013751631
      15        0.000006947510     0.000006075068    -0.000003929482

  **** Optimization is complete! (in 5 steps) ****
    Final optimized geometry and variables:
    Molecular point group: c1

    Geometry (in Angstrom), charge = 0, multiplicity = 1:

    H            2.203981582095    -1.331645686737     0.284974649869
    O            1.599268544144    -0.775728243038    -0.170257044457
    C            1.057003402406     0.173524956714     0.711176125109
    C            0.086000517223     1.056588206197    -0.051866083846
    H            1.844859122489     0.793190775867     1.132079098506
    H            0.555734410588    -0.320117844961     1.538928133237
    C           -1.071518885936     0.318445842024    -0.729610023860
    H            0.654156870577     1.583950012757    -0.811163192116
    H           -0.301559268955     1.800148625405     0.639390098788
    C           -1.886854916784    -0.588202483129     0.186888668845
    H           -0.687664035405    -0.252262263979    -1.566427824805
    H           -1.731406341786     1.067257214401    -1.158482796519
    H           -2.747290909985    -0.985924376959    -0.338742716090
    H           -1.303736561457    -1.430275398475     0.538754746594
    H           -2.253329028806    -0.047751488615     1.054591136942

  Mulliken Charges: (a.u.)
   Center  Symbol    Alpha    Beta     Spin     Total
       1     H     0.39547  0.39547  0.00000  0.20906
       2     O     4.20038  4.20038  0.00000 -0.40077
       3     C     2.97931  2.97931  0.00000  0.04139
       4     C     3.09633  3.09633  0.00000 -0.19265
       5     H     0.46103  0.46103  0.00000  0.07795
       6     H     0.47034  0.47034  0.00000  0.05931
       7     C     3.08290  3.08290  0.00000 -0.16580
       8     H     0.44930  0.44930  0.00000  0.10139
       9     H     0.45305  0.45305  0.00000  0.09391
      10     C     3.15778  3.15778  0.00000 -0.31556
      11     H     0.44771  0.44771  0.00000  0.10458
      12     H     0.45181  0.45181  0.00000  0.09637
      13     H     0.44636  0.44636  0.00000  0.10728
      14     H     0.45154  0.45154  0.00000  0.09692
      15     H     0.45670  0.45670  0.00000  0.08661

   Total alpha = 21.00000, Total beta = 21.00000, Total charge = -0.00000
