  ==> Input File <==

--------------------------------------------------------------------------
set {
	reference rhf
	basis 6-31G*
}

set_num_threads( 4 )
memory 2 gb

molecule MOL {
0 1

O	 3.225979	 0.970355	 -0.599647
C	 2.701189	 0.057885	 -0.047330
C	 1.245376	 -0.013843	 0.345420
O	 3.347903	 -1.046386	 0.304773
C	 0.455112	 1.231400	 -0.050772
H	 0.838542	 -0.913825	 -0.103701
H	 1.208210	 -0.175333	 1.419774
C	 -0.998893	 1.219485	 0.433193
H	 0.482531	 1.345121	 -1.130325
H	 0.957290	 2.103070	 0.354729
C	 -1.883438	 0.145884	 -0.207175
H	 -1.431207	 2.195402	 0.224832
H	 -1.019646	 1.105716	 1.516076
C	 -3.347647	 0.245583	 0.225435
H	 -1.822183	 0.231698	 -1.291012
H	 -1.510341	 -0.844814	 0.042401
C	 -4.239992	 -0.825570	 -0.404234
H	 -3.732888	 1.230466	 -0.033079
H	 -3.408585	 0.170602	 1.310038
C	 -3.483344	 -2.109057	 -0.744595
H	 -5.057123	 -1.058193	 0.275344
H	 -4.698492	 -0.427389	 -1.307014
H	 -4.142293	 -2.848532	 -1.189082
H	 -3.041850	 -2.551233	 0.144089
H	 -2.680106	 -1.915357	 -1.449977
C	 4.728119	 -1.109107	 -0.004993
H	 4.882018	 -1.033965	 -1.071845
H	 5.068212	 -2.067527	 0.355250
H	 5.265056	 -0.311663	 0.488280

	symmetry c1
}
set optking {
	frozen_dihedral = ("
		21 17 14 11
	")
}

ee = optimize('scf')
oeprop('DIPOLE', 'QUADRUPOLE', 'MULLIKEN_CHARGES')
f=open( 'psi4out.xyz', 'w' )
f.write( "29  " )
f.write( str(ee) + "\n" )
f.write( MOL.save_string_xyz() )
f.close()
--------------------------------------------------------------------------

    Molecular point group: c1
  Charge       = 0
  Multiplicity = 1
  Basis Set: 6-31G*
  Basis Set:
  @DF-RHF Final Energy:  -501.03516730006390
    Total Energy =                       -501.0351673000640176
    Molecular point group: c1
  Basis Set: 6-31G*
  Basis Set:
  Basis Set: 6-31G*
  Basis Set:
  @DF-RHF Final Energy:  -501.03577093621766
    Total Energy =                       -501.0357709362172045
  Basis Set: 6-31G*
  Basis Set:
  Basis Set: 6-31G*
  Basis Set:
  @DF-RHF Final Energy:  -501.03766224466631
    Total Energy =                       -501.0376622446663077
  Basis Set: 6-31G*
  Basis Set:
  Basis Set: 6-31G*
  Basis Set:
  @DF-RHF Final Energy:  -501.03783480999266
    Total Energy =                       -501.0378348099923187
  Basis Set: 6-31G*
  Basis Set:
  Basis Set: 6-31G*
  Basis Set:
  @DF-RHF Final Energy:  -501.03783512000302
    Total Energy =                       -501.0378351200025691
  Basis Set: 6-31G*
  Basis Set:
  Basis Set: 6-31G*
  Basis Set:
  @DF-RHF Final Energy:  -501.03771863219038
    Total Energy =                       -501.0377186321900354
  Basis Set: 6-31G*
  Basis Set:
  Basis Set: 6-31G*
  Basis Set:
  @DF-RHF Final Energy:  -501.03785246573489
    Total Energy =                       -501.0378524657344315
  Basis Set: 6-31G*
  Basis Set:
  Charge       = 0
  Multiplicity = 1
  Basis Set: 6-31G*
  Basis Set:

    Orbital Energies (a.u.)
    -----------------------

    Doubly Occupied:

       1A    -20.603353     2A    -20.545176     3A    -11.371992
       4A    -11.280641     5A    -11.234738     6A    -11.218946
       7A    -11.217436     8A    -11.216563     9A    -11.215509
      10A    -11.214829    11A    -11.209100    12A     -1.469048
      13A     -1.362493    14A     -1.097520    15A     -1.064797
      16A     -1.017507    17A     -0.975431    18A     -0.927861
      19A     -0.873188    20A     -0.804273    21A     -0.774105
      22A     -0.763447    23A     -0.700778    24A     -0.682224
      25A     -0.672111    26A     -0.646767    27A     -0.630629
      28A     -0.603428    29A     -0.595541    30A     -0.592774
      31A     -0.557048    32A     -0.551299    33A     -0.539315
      34A     -0.523840    35A     -0.520700    36A     -0.508902
      37A     -0.499495    38A     -0.477316    39A     -0.473229
      40A     -0.456730    41A     -0.453934    42A     -0.451075
      43A     -0.442520    44A     -0.435760

  @DF-RHF Final Energy:  -501.03785225325623

   => Energetics <=

    Nuclear Repulsion Energy =            618.4819520599899079
    One-Electron Energy =               -1908.0928747291313812
    Two-Electron Energy =                 788.5730704158854678
    DFT Exchange-Correlation Energy =       0.0000000000000000
    Empirical Dispersion Energy =           0.0000000000000000
    PCM Polarization Energy =               0.0000000000000000
    EFP Energy =                            0.0000000000000000
    Total Energy =                       -501.0378522532560055
    Molecular point group: c1
  Basis Set: 6-31G*
  Basis Set:

  -Total Gradient:
     Atom            X                  Y                   Z
    ------   -----------------  -----------------  -----------------
       1       -0.000010672657    -0.000003277630    -0.000022182416
       2        0.000019542975     0.000033132281     0.000061796246
       3       -0.000018107171    -0.000004561975    -0.000020978722
       4       -0.000005515855    -0.000008827203    -0.000012307333
       5       -0.000006873197    -0.000048782827     0.000061111955
       6       -0.000053585769    -0.000016011384    -0.000016875538
       7       -0.000003878157    -0.000002908927    -0.000000785749
       8        0.000005223608     0.000036632288     0.000006015067
       9       -0.000030440588    -0.000018887775     0.000020943415
      10       -0.000016863623     0.000023198759     0.000010332164
      11        0.000990221583    -0.002998624824     0.003248678060
      12        0.000086362764     0.000050683823    -0.000021462062
      13       -0.000026683665     0.000020752779    -0.000003608378
      14       -0.000582017612     0.003167869518    -0.004266157013
      15       -0.000064811065     0.000016335893    -0.000061051282
      16        0.000071188622     0.000023313627    -0.000000679307
      17       -0.003661941138     0.004305191038    -0.001186653523
      18       -0.000013635177    -0.000069067929    -0.000047064450
      19       -0.000062827798     0.000031896970     0.000051514765
      20        0.000066389419    -0.000021932462    -0.000028526366
      21        0.003360826997    -0.004524730157     0.002203959921
      22       -0.000032087126     0.000036758203     0.000030410237
      23       -0.000005192809     0.000026374027     0.000000692834
      24       -0.000010594034    -0.000026145523     0.000011291260
      25        0.000007508307    -0.000027937243    -0.000016714389
      26       -0.000001441320    -0.000000561842    -0.000001962075
      27        0.000001151736    -0.000000142720     0.000000127025
      28       -0.000000330015    -0.000000079686    -0.000000063106
      29       -0.000000917244     0.000000340901     0.000000198761

  **** Optimization is complete! (in 8 steps) ****
    Final optimized geometry and variables:
    Molecular point group: c1

    Geometry (in Angstrom), charge = 0, multiplicity = 1:

    O            3.040783786751     1.121915362088    -0.521157811912
    C            2.521279398943     0.211645222652     0.039714808387
    C            1.062938503542     0.129260975636     0.420859587654
    O            3.176932225327    -0.880336472377     0.412982544473
    C            0.262449581082     1.359751482452    -0.000178054943
    H            0.670246349509    -0.781762535934    -0.018497281588
    H            1.018207535750    -0.016979683674     1.497114148416
    C           -1.194820675145     1.340463082197     0.473568744490
    H            0.296691047965     1.457321766848    -1.081088371171
    H            0.752490415790     2.242758091852     0.395571324494
    C           -2.064998318142     0.252043441991    -0.162607464917
    H           -1.633142863405     2.311005916450     0.253517422962
    H           -1.221801758631     1.236619102254     1.557468301970
    C           -3.519829298647     0.329046137275     0.311447884826
    H           -2.020202556798     0.352119347556    -1.246484914515
    H           -1.661694436416    -0.727272514024     0.072585216440
    C           -4.502785342480    -0.681688459618    -0.319043396683
    H           -3.899038365475     1.334538885094     0.148699733452
    H           -3.519625414886     0.184538706690     1.390481176501
    C           -3.898438173627    -2.030822747952    -0.723626540668
    H           -5.277730807700    -0.898019002558     0.410942359792
    H           -4.986131300936    -0.239667742977    -1.185476025497
    H           -4.676866338600    -2.693520578398    -1.089310345439
    H           -3.421929236754    -2.522185365697     0.120229969335
    H           -3.159100671108    -1.931241638385    -1.510944939385
    C            4.560380434526    -0.932219506961     0.115881743345
    H            4.722685675268    -0.870495986198    -0.950589270413
    H            4.907744618652    -1.881637405395     0.492626576840
    H            5.084293501917    -0.122005437527     0.602303513302

  Mulliken Charges: (a.u.)
   Center  Symbol    Alpha    Beta     Spin     Total
       1     O     4.28595  4.28595  0.00000 -0.57191
       2     C     2.60477  2.60477  0.00000  0.79046
       3     C     3.20981  3.20981  0.00000 -0.41962
       4     O     4.30746  4.30746  0.00000 -0.61493
       5     C     3.15350  3.15350  0.00000 -0.30700
       6     H     0.39896  0.39896  0.00000  0.20207
       7     H     0.40127  0.40127  0.00000  0.19746
       8     C     3.15661  3.15661  0.00000 -0.31322
       9     H     0.41318  0.41318  0.00000  0.17364
      10     H     0.40874  0.40874  0.00000  0.18251
      11     C     3.15794  3.15794  0.00000 -0.31587
      12     H     0.41825  0.41825  0.00000  0.16349
      13     H     0.42413  0.42413  0.00000  0.15174
      14     C     3.15372  3.15372  0.00000 -0.30743
      15     H     0.42299  0.42299  0.00000  0.15401
      16     H     0.42028  0.42028  0.00000  0.15944
      17     C     3.15232  3.15232  0.00000 -0.30463
      18     H     0.42059  0.42059  0.00000  0.15883
      19     H     0.42387  0.42387  0.00000  0.15227
      20     C     3.24331  3.24331  0.00000 -0.48662
      21     H     0.42060  0.42060  0.00000  0.15879
      22     H     0.42108  0.42108  0.00000  0.15784
      23     H     0.41903  0.41903  0.00000  0.16193
      24     H     0.42258  0.42258  0.00000  0.15484
      25     H     0.41993  0.41993  0.00000  0.16015
      26     C     3.09241  3.09241  0.00000 -0.18482
      27     H     0.40908  0.40908  0.00000  0.18184
      28     H     0.40851  0.40851  0.00000  0.18298
      29     H     0.40913  0.40913  0.00000  0.18174

   Total alpha = 44.00000, Total beta = 44.00000, Total charge = -0.00000
