                              Psi4 1.0.54 Driver

  ==> Input File <==

--------------------------------------------------------------------------
set {
	reference rhf
	basis cc-pvtz
}

set_num_threads( 4 )
memory 2 gb

molecule MOL {
0 1

H	 -0.939703	 0.000281	 1.681465
O	 -0.046272	 -0.000157	 1.387798
C	 -0.000847	 0.000006	 -0.025371
C	 -0.685875	 -1.256559	 -0.559159
C	 -0.684563	 1.257428	 -0.558820
C	 1.479409	 -0.000732	 -0.381784
H	 -0.635100	 -1.302456	 -1.640875
H	 -1.733990	 -1.273355	 -0.275886
H	 -0.213155	 -2.142438	 -0.153922
H	 -0.633683	 1.303584	 -1.640517
H	 -1.732680	 1.275219	 -0.275611
H	 -0.210960	 2.142712	 -0.153311
H	 1.618184	 -0.000623	 -1.456507
H	 1.963175	 -0.877950	 0.028911
H	 1.964122	 0.875823	 0.029214

	symmetry c1
}
ee,wfn = energy('scf', return_wfn=True)
oeprop( wfn, 'DIPOLE', 'QUADRUPOLE', 'MULLIKEN_CHARGES')
oeprop( wfn, 'GRID_ESP')
f=open( 'psi4out.xyz', 'w' )
f.write( "15  " )
f.write( str(ee) + "\n" )
f.write( MOL.save_string_xyz() )
f.close()
--------------------------------------------------------------------------

    Molecular point group: c1

    Geometry (in Angstrom), charge = 0, multiplicity = 1:

       Center              X                  Y                   Z               Mass
    ------------   -----------------  -----------------  -----------------  -----------------
           H         -0.939692846339     0.000280891527     1.681345090646     1.007825032070
           O         -0.046261846339    -0.000157108473     1.387678090646    15.994914619560
           C         -0.000836846339     0.000005891527    -0.025490909354    12.000000000000
           C         -0.685864846339    -1.256559108473    -0.559278909354    12.000000000000
           C         -0.684552846339     1.257427891527    -0.558939909354    12.000000000000
           C          1.479419153661    -0.000732108473    -0.381903909354    12.000000000000
           H         -0.635089846339    -1.302456108473    -1.640994909354     1.007825032070
           H         -1.733979846339    -1.273355108473    -0.276005909354     1.007825032070
           H         -0.213144846339    -2.142438108473    -0.154041909354     1.007825032070
           H         -0.633672846339     1.303583891527    -1.640636909354     1.007825032070
           H         -1.732669846339     1.275218891527    -0.275730909354     1.007825032070
           H         -0.210949846339     2.142711891527    -0.153430909354     1.007825032070
           H          1.618194153661    -0.000623108473    -1.456626909354     1.007825032070
           H          1.963185153661    -0.877950108473     0.028791090646     1.007825032070
           H          1.964132153661     0.875822891527     0.029094090646     1.007825032070

  Charge       = 0
  Multiplicity = 1
  Basis Set: CC-PVTZ
  Basis Set:

    Orbital Energies (a.u.)
    -----------------------

    Doubly Occupied:

       1A    -20.542271     2A    -11.280801     3A    -11.209336
       4A    -11.209321     5A    -11.203919     6A     -1.364971
       7A     -1.065200     8A     -0.942081     9A     -0.940448
      10A     -0.778496    11A     -0.672666    12A     -0.624312
      13A     -0.622796    14A     -0.575947    15A     -0.557604
      16A     -0.532718    17A     -0.517040    18A     -0.511293
      19A     -0.504687    20A     -0.458821    21A     -0.428799

  @DF-RHF Final Energy:  -232.24680392161147

   => Energetics <=

    Nuclear Repulsion Energy =            200.6737262825664345
    One-Electron Energy =                -712.7537845030642529
    Two-Electron Energy =                 279.8332542988864020
    DFT Exchange-Correlation Energy =       0.0000000000000000
    Empirical Dispersion Energy =           0.0000000000000000
    PCM Polarization Energy =               0.0000000000000000
    EFP Energy =                            0.0000000000000000
    Total Energy =                       -232.2468039216113880

  Mulliken Charges: (a.u.)
   Center  Symbol    Alpha    Beta     Spin     Total
       1     H     0.39576  0.39576  0.00000  0.20849
       2     O     4.21099  4.21099  0.00000 -0.42198
       3     C     2.87837  2.87837  0.00000  0.24326
       4     C     3.15023  3.15023  0.00000 -0.30046
       5     C     3.15023  3.15023  0.00000 -0.30046
       6     C     3.14317  3.14317  0.00000 -0.28634
       7     H     0.45552  0.45552  0.00000  0.08897
       8     H     0.45594  0.45594  0.00000  0.08811
       9     H     0.44646  0.44646  0.00000  0.10708
      10     H     0.45552  0.45552  0.00000  0.08897
      11     H     0.45594  0.45594  0.00000  0.08812
      12     H     0.44646  0.44646  0.00000  0.10708
      13     H     0.45871  0.45871  0.00000  0.08257
      14     H     0.44835  0.44835  0.00000  0.10329
      15     H     0.44835  0.44835  0.00000  0.10330

   Total alpha = 21.00000, Total beta = 21.00000, Total charge = -0.00000

*** Psi4 exiting successfully. Buy a developer a beer!
