                              Psi4 1.0.54 Driver

  ==> Input File <==

--------------------------------------------------------------------------
set {
	reference rhf
	basis cc-pvtz
}

set_num_threads( 4 )
memory 2 gb

molecule MOL {
0 1

H	 -3.368845	 -0.272362	 -0.451154
O	 -2.658848	 -0.704215	 -0.000460
C	 -1.605397	 0.107680	 0.001145
C	 -0.310616	 -0.658853	 0.000791
O	 -1.718351	 1.284629	 -0.000627
C	 0.926581	 0.227233	 0.000178
H	 -0.327628	 -1.313681	 -0.864448
H	 -0.327041	 -1.313334	 0.866298
C	 2.220156	 -0.582071	 -0.000088
H	 0.899945	 0.878221	 -0.866390
H	 0.900542	 0.878581	 0.866486
C	 3.466689	 0.296012	 -0.000457
H	 2.239073	 -1.234095	 -0.869382
H	 2.239505	 -1.233985	 0.869270
H	 3.493549	 0.935857	 -0.875887
H	 4.368821	 -0.304526	 -0.001199
H	 3.494559	 0.935166	 0.875458

	symmetry c1
}
set optking {
	frozen_dihedral = ("
		1 2 3 5
	")
}

ee,wfn = optimize('scf', return_wfn=True)
oeprop( wfn, 'DIPOLE', 'QUADRUPOLE', 'MULLIKEN_CHARGES')
f=open( 'psi4out.xyz', 'w' )
f.write( "17  " )
f.write( str(ee) + "\n" )
f.write( MOL.save_string_xyz() )
f.close()
--------------------------------------------------------------------------

    Molecular point group: c1
  Charge       = 0
  Multiplicity = 1
  Basis Set: CC-PVTZ
  Basis Set:
  @DF-RHF Final Energy:  -345.04388527190821
    Total Energy =                       -345.0438852719080387
    Molecular point group: c1
  Basis Set: CC-PVTZ
  Basis Set:
  Basis Set: CC-PVTZ
  Basis Set:
  @DF-RHF Final Energy:  -345.04035721843485
    Total Energy =                       -345.0403572184342238
  Basis Set: CC-PVTZ
  Basis Set:
  Basis Set: CC-PVTZ
  Basis Set:
  @DF-RHF Final Energy:  -345.04430534273541
    Total Energy =                       -345.0443053427356972
  Basis Set: CC-PVTZ
  Basis Set:
  Basis Set: CC-PVTZ
  Basis Set:
  @DF-RHF Final Energy:  -345.04438050702032
    Total Energy =                       -345.0443805070207191
  Basis Set: CC-PVTZ
  Basis Set:
  Basis Set: CC-PVTZ
  Basis Set:
  @DF-RHF Final Energy:  -345.04439194332400
    Total Energy =                       -345.0443919433236601
  Basis Set: CC-PVTZ
  Basis Set:
  Basis Set: CC-PVTZ
  Basis Set:
  @DF-RHF Final Energy:  -345.04439620025676
    Total Energy =                       -345.0443962002564717
  Basis Set: CC-PVTZ
  Basis Set:
  Charge       = 0
  Multiplicity = 1
  Basis Set: CC-PVTZ
  Basis Set:

    Orbital Energies (a.u.)
    -----------------------

    Doubly Occupied:

       1A    -20.600337     2A    -20.542783     3A    -11.373875
       4A    -11.239138     5A    -11.221250     6A    -11.220630
       7A    -11.210711     8A     -1.473798     9A     -1.369976
      10A     -1.092671    11A     -1.019374    12A     -0.914009
      13A     -0.824792    14A     -0.791589    15A     -0.705111
      16A     -0.686200    17A     -0.669817    18A     -0.634217
      19A     -0.592729    20A     -0.586185    21A     -0.566428
      22A     -0.538707    23A     -0.509977    24A     -0.488817
      25A     -0.481142    26A     -0.477471    27A     -0.472752
      28A     -0.445972

  @DF-RHF Final Energy:  -345.04439631021665

   => Energetics <=

    Nuclear Repulsion Energy =            304.6121484008036191
    One-Electron Energy =               -1073.8121717624396751
    Two-Electron Energy =                 424.1556270514193443
    DFT Exchange-Correlation Energy =       0.0000000000000000
    Empirical Dispersion Energy =           0.0000000000000000
    PCM Polarization Energy =               0.0000000000000000
    EFP Energy =                            0.0000000000000000
    Total Energy =                       -345.0443963102167686
    Molecular point group: c1
  Basis Set: CC-PVTZ
  Basis Set:

  -Total Gradient:
     Atom            X                  Y                   Z
    ------   -----------------  -----------------  -----------------
       1        0.002090412363    -0.004161806939    -0.008139918777
       2       -0.002263278622     0.005287741203     0.014079956731
       3       -0.000685546955    -0.001592489961    -0.014568278927
       4        0.000026045362     0.000027657040     0.000080774441
       5        0.000844670400     0.000436647690     0.008516745069
       6       -0.000007676069    -0.000005292708    -0.000002108249
       7       -0.000009974227    -0.000014280017     0.000018736806
       8        0.000006372831     0.000018457468     0.000020874145
       9        0.000000857479    -0.000002158694    -0.000006397323
      10        0.000000250245     0.000002238593    -0.000004535523
      11       -0.000000175900     0.000004351457     0.000000355423
      12       -0.000002597750     0.000000706201     0.000005258980
      13        0.000000927749    -0.000000153041    -0.000001311041
      14       -0.000000138562    -0.000001985780    -0.000001552181
      15       -0.000000227169    -0.000001138869    -0.000000098205
      16       -0.000000741542    -0.000000933139     0.000001734000
      17        0.000000820370     0.000002439496    -0.000000235371

  **** Optimization is complete! (in 7 steps) ****
    Final optimized geometry and variables:
    Molecular point group: c1

    Geometry (in Angstrom), charge = 0, multiplicity = 1:

    H           -3.418091287141    -0.300925098254    -0.294607783607
    O           -2.661167676883    -0.699060162056     0.106355163898
    C           -1.606456146467     0.110789984698    -0.034070032991
    C           -0.311697174761    -0.655022429222    -0.018728811538
    O           -1.715688890523     1.284940437568    -0.088598646465
    C            0.927031950908     0.228303642080     0.001391461357
    H           -0.318154294856    -1.304556474776    -0.888851464381
    H           -0.342441026305    -1.316368959593     0.840915119285
    C            2.219224867065    -0.583151396584     0.011388139617
    H            0.911919334739     0.885562376884    -0.860544863911
    H            0.891794339935     0.873501142619     0.872268903083
    C            3.467111746167     0.292690270072     0.033227718135
    H            2.247917933201    -1.228577728528    -0.862591152054
    H            2.226625311718    -1.241634504519     0.875913330864
    H            3.506246234852     0.938692068724    -0.837217257820
    H            4.368183566230    -0.309412879519     0.039824453265
    H            3.484766288498     0.925555921335     0.913947427709

  Mulliken Charges: (a.u.)
   Center  Symbol    Alpha    Beta     Spin     Total
       1     H     0.38096  0.38096  0.00000  0.23808
       2     O     4.16563  4.16563  0.00000 -0.33126
       3     C     2.80516  2.80516  0.00000  0.38968
       4     C     3.11057  3.11057  0.00000 -0.22114
       5     O     4.18434  4.18434  0.00000 -0.36867
       6     C     3.08275  3.08275  0.00000 -0.16550
       7     H     0.44087  0.44087  0.00000  0.11825
       8     H     0.43735  0.43735  0.00000  0.12530
       9     C     3.08578  3.08578  0.00000 -0.17156
      10     H     0.44590  0.44590  0.00000  0.10820
      11     H     0.44647  0.44647  0.00000  0.10707
      12     C     3.14921  3.14921  0.00000 -0.29842
      13     H     0.45506  0.45506  0.00000  0.08988
      14     H     0.45461  0.45461  0.00000  0.09078
      15     H     0.45375  0.45375  0.00000  0.09251
      16     H     0.44802  0.44802  0.00000  0.10397
      17     H     0.45358  0.45358  0.00000  0.09284

   Total alpha = 28.00000, Total beta = 28.00000, Total charge = -0.00000

*** Psi4 exiting successfully. Buy a developer a beer!
