  ==> Input File <==

--------------------------------------------------------------------------
set {
	reference rhf
	basis 6-31G*
}

set_num_threads( 4 )
memory 2 gb

molecule MOL {
0 1

H	 2.383636	 -3.220391	 -1.621315
C	 2.436923	 -2.410381	 -0.901041
C	 1.182425	 -1.539800	 -0.958365
H	 2.563208	 -2.852517	 0.083232
H	 3.330120	 -1.832169	 -1.120398
C	 1.217350	 -0.386724	 0.039429
H	 0.299935	 -2.140563	 -0.761682
H	 1.067355	 -1.140162	 -1.964565
N	 0.000003	 0.397874	 -0.023260
H	 1.305953	 -0.786385	 1.046099
H	 2.113115	 0.219426	 -0.132516
C	 -1.217365	 -0.386708	 0.039277
H	 -0.000031	 1.072115	 0.718656
C	 -2.452633	 0.504241	 -0.042481
H	 -1.215291	 -1.074557	 -0.802042
H	 -1.269739	 -1.003477	 0.942735
C	 -3.758029	 -0.289423	 -0.010781
H	 -2.394220	 1.093569	 -0.952170
H	 -2.440793	 1.210787	 0.785871
H	 -3.816659	 -0.981993	 -0.845726
H	 -4.617837	 0.370165	 -0.069296
H	 -3.847478	 -0.867502	 0.904682

	symmetry c1
}
set optking {
	frozen_dihedral = ("
		10 6 9 12
	")
}

ee = optimize('scf')
oeprop('DIPOLE', 'QUADRUPOLE', 'MULLIKEN_CHARGES')
f=open( 'psi4out.xyz', 'w' )
f.write( "22  " )
f.write( str(ee) + "\n" )
f.write( MOL.save_string_xyz() )
f.close()
--------------------------------------------------------------------------

    Molecular point group: c1
  Charge       = 0
  Multiplicity = 1
  Basis Set: 6-31G*
  Basis Set:
  @DF-RHF Final Energy:  -290.37368578738250
    Total Energy =                       -290.3736857873826125
    Molecular point group: c1
  Basis Set: 6-31G*
  Basis Set:
  Basis Set: 6-31G*
  Basis Set:
  @DF-RHF Final Energy:  -290.37600654790396
    Total Energy =                       -290.3760065479042396
  Basis Set: 6-31G*
  Basis Set:
  Basis Set: 6-31G*
  Basis Set:
  @DF-RHF Final Energy:  -290.37900719771591
    Total Energy =                       -290.3790071977160778
  Basis Set: 6-31G*
  Basis Set:
  Basis Set: 6-31G*
  Basis Set:
  @DF-RHF Final Energy:  -290.37944421160296
    Total Energy =                       -290.3794442116028449
  Basis Set: 6-31G*
  Basis Set:
  Basis Set: 6-31G*
  Basis Set:
  @DF-RHF Final Energy:  -290.37948793746426
    Total Energy =                       -290.3794879374642051
  Basis Set: 6-31G*
  Basis Set:
  Basis Set: 6-31G*
  Basis Set:
  @DF-RHF Final Energy:  -290.37949247683542
    Total Energy =                       -290.3794924768355941
  Basis Set: 6-31G*
  Basis Set:
  Charge       = 0
  Multiplicity = 1
  Basis Set: 6-31G*
  Basis Set:

    Orbital Energies (a.u.)
    -----------------------

    Doubly Occupied:

       1A    -15.531973     2A    -11.238310     3A    -11.236862
       4A    -11.214243     5A    -11.213007     6A    -11.209993
       7A    -11.209490     8A     -1.202034     9A     -1.057225
      10A     -1.027471    11A     -0.929069    12A     -0.874318
      13A     -0.812590    14A     -0.782194    15A     -0.658939
      16A     -0.638710    17A     -0.621054    18A     -0.609323
      19A     -0.572227    20A     -0.553184    21A     -0.552092
      22A     -0.526483    23A     -0.503417    24A     -0.487068
      25A     -0.479192    26A     -0.471833    27A     -0.460809
      28A     -0.459461    29A     -0.354028

  @DF-RHF Final Energy:  -290.37949552206135

   => Energetics <=

    Nuclear Repulsion Energy =            317.8184869661284893
    One-Electron Energy =               -1021.4227638539791769
    Two-Electron Energy =                 413.2247813657889992
    DFT Exchange-Correlation Energy =       0.0000000000000000
    Empirical Dispersion Energy =           0.0000000000000000
    PCM Polarization Energy =               0.0000000000000000
    EFP Energy =                            0.0000000000000000
    Total Energy =                       -290.3794955220616885
    Molecular point group: c1
  Basis Set: 6-31G*
  Basis Set:

  -Total Gradient:
     Atom            X                  Y                   Z
    ------   -----------------  -----------------  -----------------
       1        0.000003629698    -0.000006444389     0.000003515097
       2        0.000012728334    -0.000016984579    -0.000009531686
       3        0.000021509322     0.000021684794    -0.000033615939
       4        0.000006783534     0.000000478552     0.000004197437
       5       -0.000009184229    -0.000005823911     0.000002227396
       6       -0.002786034082    -0.004744492906    -0.002752371155
       7       -0.000021023751    -0.000004755230     0.000013734552
       8       -0.000000318290     0.000001674719    -0.000004595047
       9        0.000578231565     0.001739038090     0.005009523628
      10        0.002204100169     0.003493139097     0.001010088664
      11       -0.000035607541    -0.000001227526    -0.000001065765
      12        0.000058856497    -0.000478243766    -0.003236330406
      13       -0.000029292347     0.000006624097     0.000009363807
      14       -0.000004911761     0.000003108811    -0.000012013825
      15        0.000031768972     0.000005668434    -0.000001529628
      16       -0.000007466507    -0.000024098413    -0.000000332728
      17       -0.000008286245     0.000010406970    -0.000001985049
      18       -0.000004826047     0.000006086212     0.000001576798
      19        0.000000487566    -0.000001139531    -0.000003170975
      20       -0.000000607186    -0.000000589865     0.000002828717
      21       -0.000009278699    -0.000005022144    -0.000000138295
      22       -0.000001258974     0.000000912487    -0.000000375596

  **** Optimization is complete! (in 7 steps) ****
    Final optimized geometry and variables:
    Molecular point group: c1

    Geometry (in Angstrom), charge = 0, multiplicity = 1:

    H            3.054049044657    -2.546672975909    -1.352056332507
    C            3.007176669830    -1.720049177309    -0.650427704801
    C            1.632783162113    -1.051360122185    -0.681044862244
    H            3.232215174615    -2.113425850270     0.337071270803
    H            3.793013363646    -1.018008848355    -0.913704732111
    C            1.536892556561     0.100672576798     0.314837564546
    H            0.873050685949    -1.797949229472    -0.470089377259
    H            1.429084470451    -0.666356302998    -1.676379303235
    N            0.328481353442     0.896938866746     0.179264859840
    H            1.675830890989    -0.274610568247     1.334437365875
    H            2.372320971568     0.772668986121     0.135601556716
    C           -0.934119434252     0.188342163038     0.263696868173
    H            0.346647353229     1.636549821211     0.853374344172
    C           -2.103184102222     1.168657161053     0.246878665707
    H           -1.020476978248    -0.472655722452    -0.591141727880
    H           -1.003282799317    -0.443538067083     1.156485717847
    C           -3.461813114372     0.470533545360     0.284356203418
    H           -2.024040276435     1.785097519928    -0.643424865462
    H           -2.021157330545     1.841518051931     1.099082950973
    H           -3.590469062670    -0.184071572890    -0.572955651095
    H           -4.272205648258     1.192280952277     0.271987246879
    H           -3.571469478389    -0.133325151624     1.180725580234

  Mulliken Charges: (a.u.)
   Center  Symbol    Alpha    Beta     Spin     Total
       1     H     0.41783  0.41783  0.00000  0.16435
       2     C     3.24293  3.24293  0.00000 -0.48586
       3     C     3.16110  3.16110  0.00000 -0.32220
       4     H     0.42156  0.42156  0.00000  0.15687
       5     H     0.42055  0.42055  0.00000  0.15891
       6     C     3.04590  3.04590  0.00000 -0.09179
       7     H     0.42038  0.42038  0.00000  0.15924
       8     H     0.41427  0.41427  0.00000  0.17146
       9     N     3.85997  3.85997  0.00000 -0.71993
      10     H     0.43638  0.43638  0.00000  0.12724
      11     H     0.42094  0.42094  0.00000  0.15813
      12     C     3.04819  3.04819  0.00000 -0.09638
      13     H     0.33292  0.33292  0.00000  0.33416
      14     C     3.15783  3.15783  0.00000 -0.31566
      15     H     0.41906  0.41906  0.00000  0.16188
      16     H     0.43767  0.43767  0.00000  0.12466
      17     C     3.24280  3.24280  0.00000 -0.48560
      18     H     0.41301  0.41301  0.00000  0.17398
      19     H     0.42694  0.42694  0.00000  0.14613
      20     H     0.42054  0.42054  0.00000  0.15892
      21     H     0.41778  0.41778  0.00000  0.16443
      22     H     0.42147  0.42147  0.00000  0.15707

   Total alpha = 29.00000, Total beta = 29.00000, Total charge = -0.00000
