                              Psi4 1.0.54 Driver

  ==> Input File <==

--------------------------------------------------------------------------
set {
	reference rhf
	basis cc-pvtz
}

set_num_threads( 4 )
memory 2 gb

molecule MOL {
0 1

O	 2.911261	 1.282454	 -0.399221
C	 2.841259	 0.166180	 -0.000295
C	 1.542794	 -0.614730	 -0.000853
C	 4.055541	 -0.555330	 0.539304
C	 0.288398	 0.247429	 0.000314
H	 1.557171	 -1.273139	 -0.866508
H	 1.557484	 -1.274998	 0.863344
C	 -0.993089	 -0.581367	 -0.000217
H	 0.305153	 0.900562	 -0.864701
H	 0.305567	 0.898805	 0.866656
C	 -2.258482	 0.271340	 0.000669
H	 -1.002280	 -1.233920	 -0.870484
H	 -1.002061	 -1.235367	 0.868958
C	 -3.544441	 -0.550271	 -0.000253
H	 -2.250545	 0.925250	 -0.867923
H	 -2.250598	 0.923423	 0.870642
C	 -4.804551	 0.308747	 0.000556
H	 -3.553737	 -1.201524	 -0.870151
H	 -3.553831	 -1.203282	 0.868313
H	 -4.842050	 0.949078	 -0.874436
H	 -5.698404	 -0.304480	 -0.000254
H	 -4.842277	 0.947103	 0.876982
H	 4.241865	 -1.455728	 -0.035687
H	 4.917634	 0.091832	 0.490627
H	 3.884363	 -0.858727	 1.566285

	symmetry c1
}
set optking {
	frozen_dihedral = ("
		1 2 3 6
	")
}

ee,wfn = optimize('scf', return_wfn=True)
oeprop( wfn, 'DIPOLE', 'QUADRUPOLE', 'MULLIKEN_CHARGES')
f=open( 'psi4out.xyz', 'w' )
f.write( "25  " )
f.write( str(ee) + "\n" )
f.write( MOL.save_string_xyz() )
f.close()
--------------------------------------------------------------------------

    Molecular point group: c1
  Charge       = 0
  Multiplicity = 1
  Basis Set: CC-PVTZ
  Basis Set:
  @DF-RHF Final Energy:  -387.27391566196297
    Total Energy =                       -387.2739156619626328
    Molecular point group: c1
  Basis Set: CC-PVTZ
  Basis Set:
  Basis Set: CC-PVTZ
  Basis Set:
  @DF-RHF Final Energy:  -387.27294619249977
    Total Energy =                       -387.2729461925000578
  Basis Set: CC-PVTZ
  Basis Set:
  Basis Set: CC-PVTZ
  Basis Set:
  @DF-RHF Final Energy:  -387.27408867193139
    Total Energy =                       -387.2740886719315085
  Basis Set: CC-PVTZ
  Basis Set:
  Basis Set: CC-PVTZ
  Basis Set:
  @DF-RHF Final Energy:  -387.27427054581818
    Total Energy =                       -387.2742705458183536
  Basis Set: CC-PVTZ
  Basis Set:
  Basis Set: CC-PVTZ
  Basis Set:
  @DF-RHF Final Energy:  -387.27428174460385
    Total Energy =                       -387.2742817446036270
  Basis Set: CC-PVTZ
  Basis Set:
  Basis Set: CC-PVTZ
  Basis Set:
  @DF-RHF Final Energy:  -387.27428839005483
    Total Energy =                       -387.2742883900548350
  Basis Set: CC-PVTZ
  Basis Set:
  Basis Set: CC-PVTZ
  Basis Set:
  @DF-RHF Final Energy:  -387.27429879718261
    Total Energy =                       -387.2742987971823823
  Basis Set: CC-PVTZ
  Basis Set:
  Charge       = 0
  Multiplicity = 1
  Basis Set: CC-PVTZ
  Basis Set:

    Orbital Energies (a.u.)
    -----------------------

    Doubly Occupied:

       1A    -20.538084     2A    -11.320603     3A    -11.230033
       4A    -11.226946     5A    -11.216021     6A    -11.215173
       7A    -11.213753     8A    -11.211839     9A    -11.206633
      10A     -1.398490    11A     -1.095489    12A     -1.057770
      13A     -1.015702    14A     -0.970399    15A     -0.891721
      16A     -0.814918    17A     -0.791719    18A     -0.731100
      19A     -0.663805    20A     -0.653124    21A     -0.634553
      22A     -0.624308    23A     -0.597747    24A     -0.585416
      25A     -0.568398    26A     -0.560735    27A     -0.541518
      28A     -0.528559    29A     -0.513354    30A     -0.491647
      31A     -0.489901    32A     -0.474060    33A     -0.464190
      34A     -0.463407    35A     -0.452844    36A     -0.400374

  @DF-RHF Final Energy:  -387.27430114835926

   => Energetics <=

    Nuclear Repulsion Energy =            439.1028089624133486
    One-Electron Energy =               -1395.0455516472213731
    Two-Electron Energy =                 568.6684415364488814
    DFT Exchange-Correlation Energy =       0.0000000000000000
    Empirical Dispersion Energy =           0.0000000000000000
    PCM Polarization Energy =               0.0000000000000000
    EFP Energy =                            0.0000000000000000
    Total Energy =                       -387.2743011483591999
    Molecular point group: c1
  Basis Set: CC-PVTZ
  Basis Set:

  -Total Gradient:
     Atom            X                  Y                   Z
    ------   -----------------  -----------------  -----------------
       1        0.000237764618    -0.000310002978    -0.001048357382
       2       -0.000363212904     0.000623716120     0.001372480832
       3        0.000622291017    -0.001079117453     0.000303618423
       4       -0.000075332583     0.000116205569    -0.000170736874
       5        0.000016011550    -0.000011525613    -0.000008491565
       6       -0.000466051636     0.000774315958    -0.000592458058
       7       -0.000001127148    -0.000018107909     0.000007611495
       8        0.000006307383    -0.000001716072    -0.000000414394
       9       -0.000004877782     0.000004475476    -0.000002214509
      10        0.000008384923    -0.000008664207    -0.000000357242
      11       -0.000003826092    -0.000003499285    -0.000000991065
      12        0.000000101498     0.000000295251     0.000000853019
      13        0.000002944628     0.000001420166     0.000001404598
      14        0.000003074092     0.000005183255    -0.000001359604
      15       -0.000001499149     0.000000959577    -0.000001001825
      16       -0.000000226009    -0.000000182459     0.000001231877
      17       -0.000008922967    -0.000001855270    -0.000000879570
      18       -0.000000249488    -0.000000637582    -0.000001026025
      19        0.000000477968     0.000000031358     0.000001360361
      20        0.000001171168     0.000000431238    -0.000000569835
      21       -0.000000443617     0.000000825409    -0.000000001006
      22        0.000001175657     0.000000428135     0.000000874923
      23       -0.000005362490    -0.000097677455    -0.000015403492
      24        0.000065830294     0.000036012804     0.000008754087
      25       -0.000034402933    -0.000031314038     0.000146072831

  **** Optimization is complete! (in 8 steps) ****
    Final optimized geometry and variables:
    Molecular point group: c1

    Geometry (in Angstrom), charge = 0, multiplicity = 1:

    O            2.904159295456     1.288140017362    -0.286158504869
    C            2.839658153665     0.167665240378     0.101789431726
    C            1.544145652976    -0.619668529846     0.081915339392
    C            4.059181337653    -0.561517809107     0.615060657392
    C            0.289223506165     0.242558813271     0.024924405651
    H            1.594798891392    -1.259732895345    -0.797611481121
    H            1.520770359662    -1.288272899888     0.937037263054
    C           -0.990358777780    -0.586024381292    -0.044725010573
    H            0.351734983536     0.900964138193    -0.832279779549
    H            0.260055202335     0.886829594191     0.898224188874
    C           -2.254653365446     0.266691032383    -0.097149844069
    H           -0.955810910771    -1.228975843686    -0.921390277842
    H           -1.041661980656    -1.249314457226     0.815891396371
    C           -3.538478332837    -0.554908943996    -0.171030647051
    H           -2.203728734246     0.930209758055    -0.956879302982
    H           -2.290667465966     0.909025031278     0.779474168188
    C           -4.797604542811     0.303978294154    -0.222821590782
    H           -3.504246780616    -1.196063717307    -1.047743444608
    H           -3.590473094161    -1.217895058519     0.688467482924
    H           -4.792061855308     0.954277901235    -1.091215485653
    H           -5.689919643575    -0.309278935433    -0.274951950518
    H           -4.879162274458     0.932259667066     0.657930572496
    H            4.143701576432    -1.539302699498     0.153900408422
    H            4.947687436762     0.019093967209     0.419445928225
    H            3.959070702315    -0.717788815721     1.684520413569

  Mulliken Charges: (a.u.)
   Center  Symbol    Alpha    Beta     Spin     Total
       1     O     4.17250  4.17250  0.00000 -0.34501
       2     C     2.86102  2.86102  0.00000  0.27797
       3     C     3.11322  3.11322  0.00000 -0.22644
       4     C     3.15243  3.15243  0.00000 -0.30487
       5     C     3.08588  3.08588  0.00000 -0.17176
       6     H     0.44452  0.44452  0.00000  0.11095
       7     H     0.44515  0.44515  0.00000  0.10970
       8     C     3.08992  3.08992  0.00000 -0.17984
       9     H     0.44079  0.44079  0.00000  0.11841
      10     H     0.45066  0.45066  0.00000  0.09867
      11     C     3.08623  3.08623  0.00000 -0.17245
      12     H     0.45524  0.45524  0.00000  0.08952
      13     H     0.45623  0.45623  0.00000  0.08755
      14     C     3.08433  3.08433  0.00000 -0.16867
      15     H     0.45329  0.45329  0.00000  0.09343
      16     H     0.45435  0.45435  0.00000  0.09130
      17     C     3.15037  3.15037  0.00000 -0.30073
      18     H     0.45495  0.45495  0.00000  0.09010
      19     H     0.45529  0.45529  0.00000  0.08941
      20     H     0.45461  0.45461  0.00000  0.09078
      21     H     0.44863  0.44863  0.00000  0.10273
      22     H     0.45497  0.45497  0.00000  0.09006
      23     H     0.45058  0.45058  0.00000  0.09883
      24     H     0.43584  0.43584  0.00000  0.12831
      25     H     0.44898  0.44898  0.00000  0.10204

   Total alpha = 36.00000, Total beta = 36.00000, Total charge =  0.00000

*** Psi4 exiting successfully. Buy a developer a beer!
