  ==> Input File <==

--------------------------------------------------------------------------
set {
	reference rhf
	basis 6-31G*
}

set_num_threads( 4 )
memory 2 gb

molecule MOL {
0 1

O	 0.625848	 1.349995	 -0.000749
C	 0.486307	 0.169203	 0.000779
C	 1.608116	 -0.841643	 0.000302
O	 -0.698257	 -0.426125	 0.001050
C	 2.990107	 -0.200498	 -0.000684
H	 1.468623	 -1.481519	 -0.865924
H	 1.469683	 -1.481289	 0.866878
H	 3.129736	 0.423364	 -0.875135
H	 3.757882	 -0.966877	 -0.001197
H	 3.130964	 0.423383	 0.873533
C	 -1.776943	 0.255526	 0.632863
C	 -3.006350	 -0.617947	 0.499015
H	 -1.915060	 1.215958	 0.155287
H	 -1.523359	 0.432886	 1.669121
H	 -3.243849	 -0.790654	 -0.544500
H	 -3.856300	 -0.134037	 0.969191
H	 -2.850130	 -1.578032	 0.977647

	symmetry c1
}
set optking {
	frozen_dihedral = ("
		11 4 2 3
	")
}

ee = optimize('scf')
oeprop('DIPOLE', 'QUADRUPOLE', 'MULLIKEN_CHARGES')
f=open( 'psi4out.xyz', 'w' )
f.write( "17  " )
f.write( str(ee) + "\n" )
f.write( MOL.save_string_xyz() )
f.close()
--------------------------------------------------------------------------

    Molecular point group: c1
  Charge       = 0
  Multiplicity = 1
  Basis Set: 6-31G*
  Basis Set:
  @DF-RHF Final Energy:  -344.90690158792955
    Total Energy =                       -344.9069015879292692
    Molecular point group: c1
  Basis Set: 6-31G*
  Basis Set:
  Basis Set: 6-31G*
  Basis Set:
  @DF-RHF Final Energy:  -344.90417791592893
    Total Energy =                       -344.9041779159289263
  Basis Set: 6-31G*
  Basis Set:
  Basis Set: 6-31G*
  Basis Set:
  @DF-RHF Final Energy:  -344.90739689121563
    Total Energy =                       -344.9073968912154555
  Basis Set: 6-31G*
  Basis Set:
  Basis Set: 6-31G*
  Basis Set:
  @DF-RHF Final Energy:  -344.90752805874439
    Total Energy =                       -344.9075280587443899
  Basis Set: 6-31G*
  Basis Set:
  Basis Set: 6-31G*
  Basis Set:
  @DF-RHF Final Energy:  -344.90757088211456
    Total Energy =                       -344.9075708821144985
  Basis Set: 6-31G*
  Basis Set:
  Basis Set: 6-31G*
  Basis Set:
  @DF-RHF Final Energy:  -344.90757357782002
    Total Energy =                       -344.9075735778204148
  Basis Set: 6-31G*
  Basis Set:
  Charge       = 0
  Multiplicity = 1
  Basis Set: 6-31G*
  Basis Set:

    Orbital Energies (a.u.)
    -----------------------

    Doubly Occupied:

       1A    -20.596862     2A    -20.546153     3A    -11.371955
       4A    -11.286670     5A    -11.238392     6A    -11.222843
       7A    -11.216295     8A     -1.465055     9A     -1.362307
      10A     -1.069206    11A     -1.032608    12A     -0.909927
      13A     -0.850111    14A     -0.771993    15A     -0.696750
      16A     -0.686089    17A     -0.664552    18A     -0.629636
      19A     -0.585799    20A     -0.572179    21A     -0.557568
      22A     -0.525118    23A     -0.521615    24A     -0.514092
      25A     -0.503634    26A     -0.492988    27A     -0.451829
      28A     -0.434985

  @DF-RHF Final Energy:  -344.90757413160003

   => Energetics <=

    Nuclear Repulsion Energy =            314.5574839358185386
    One-Electron Energy =               -1093.3756906653998158
    Two-Electron Energy =                 433.9106325979814187
    DFT Exchange-Correlation Energy =       0.0000000000000000
    Empirical Dispersion Energy =           0.0000000000000000
    PCM Polarization Energy =               0.0000000000000000
    EFP Energy =                            0.0000000000000000
    Total Energy =                       -344.9075741315999153
    Molecular point group: c1
  Basis Set: 6-31G*
  Basis Set:

  -Total Gradient:
     Atom            X                  Y                   Z
    ------   -----------------  -----------------  -----------------
       1       -0.000025152621    -0.000033777173    -0.000046635110
       2        0.001141460904    -0.000865868454    -0.005601786908
       3       -0.000309680114    -0.000596337705     0.005904056814
       4       -0.001901415932     0.005069085384    -0.005758101072
       5       -0.000001803572    -0.000029125899    -0.000004355513
       6        0.000005469178     0.000013430469     0.000005720523
       7        0.000000512345     0.000001077295     0.000010992272
       8        0.000011706969     0.000006212171    -0.000013586404
       9       -0.000000061115     0.000009212519    -0.000001005783
      10       -0.000009232270    -0.000002809676     0.000007622816
      11        0.001092528813    -0.003588010753     0.005485768523
      12       -0.000000342151     0.000023267803    -0.000001786853
      13       -0.000011131870    -0.000011936590    -0.000003839885
      14        0.000000368259     0.000001555532     0.000020557962
      15        0.000000354531    -0.000001024435    -0.000005198884
      16       -0.000000314443    -0.000002378709     0.000000321270
      17        0.000006733087     0.000007428221     0.000001256234

  **** Optimization is complete! (in 7 steps) ****
    Final optimized geometry and variables:
    Molecular point group: c1

    Geometry (in Angstrom), charge = 0, multiplicity = 1:

    O            0.631475010088     1.384038703516     0.085995303371
    C            0.475389956699     0.224297590689    -0.118067400502
    C            1.579586619208    -0.804129194027    -0.157400530665
    O           -0.723342808477    -0.339702476388    -0.242647687999
    C            2.971258445282    -0.192618494834    -0.259324060826
    H            1.382964162067    -1.491471597058    -0.973536915879
    H            1.474369202593    -1.386870986643     0.754394595792
    H            3.081577502132     0.374679823938    -1.176421888681
    H            3.725259988964    -0.972444042839    -0.250453186766
    H            3.161775701732     0.479005064203     0.568112078998
    C           -1.821894129589     0.304818067768     0.394853311154
    C           -3.021963931279    -0.608856556947     0.266070354380
    H           -1.998992532997     1.262387214233    -0.074137339218
    H           -1.566272474829     0.482753786356     1.431929885080
    H           -3.259217389900    -0.783539595879    -0.777100050981
    H           -3.884821553612    -0.155672488213     0.743387156502
    H           -2.830165201321    -1.565635769221     0.738184460584

  Mulliken Charges: (a.u.)
   Center  Symbol    Alpha    Beta     Spin     Total
       1     O     4.28111  4.28111  0.00000 -0.56221
       2     C     2.60532  2.60532  0.00000  0.78936
       3     C     3.20536  3.20536  0.00000 -0.41071
       4     O     4.31577  4.31577  0.00000 -0.63154
       5     C     3.24031  3.24031  0.00000 -0.48061
       6     H     0.40081  0.40081  0.00000  0.19838
       7     H     0.40174  0.40174  0.00000  0.19651
       8     H     0.41230  0.41230  0.00000  0.17541
       9     H     0.41787  0.41787  0.00000  0.16427
      10     H     0.40703  0.40703  0.00000  0.18595
      11     C     3.00217  3.00217  0.00000 -0.00434
      12     C     3.24820  3.24820  0.00000 -0.49641
      13     H     0.40710  0.40710  0.00000  0.18580
      14     H     0.41544  0.41544  0.00000  0.16913
      15     H     0.41031  0.41031  0.00000  0.17938
      16     H     0.41644  0.41644  0.00000  0.16713
      17     H     0.41274  0.41274  0.00000  0.17452

   Total alpha = 28.00000, Total beta = 28.00000, Total charge = -0.00000
