  ==> Input File <==

--------------------------------------------------------------------------
set {
	reference rhf
	basis 6-31G*
}

set_num_threads( 1 )
memory 2 gb

molecule MOL {
0 1

O	 -1.525407	 -0.153733	 -1.753196
C	 -1.436487	 0.478966	 -0.751169
C	 -2.202981	 1.739747	 -0.455767
O	 -0.632575	 0.154573	 0.251549
H	 -1.511665	 2.555405	 -0.277636
H	 -2.847139	 1.976173	 -1.289433
H	 -2.793021	 1.607234	 0.443705
C	 0.160891	 -1.019931	 0.106212
C	 1.589627	 -0.672828	 0.480843
H	 0.089836	 -1.367806	 -0.916050
H	 -0.238459	 -1.792301	 0.749618
C	 2.246377	 0.346236	 -0.452210
H	 2.163194	 -1.597435	 0.473358
H	 1.604769	 -0.303424	 1.502885
C	 3.691736	 0.652107	 -0.061850
H	 2.219579	 -0.032311	 -1.472055
H	 1.666466	 1.263317	 -0.447249
H	 4.134505	 1.377213	 -0.737283
H	 4.305508	 -0.243868	 -0.089969
H	 3.748266	 1.059562	 0.943567

	symmetry c1
}
set optking {
	frozen_dihedral = ("
		16 12 9 8,
		12 9 8 10,
		1 2 4 8
	")
}

ee = energy('scf')
oeprop('DIPOLE', 'QUADRUPOLE', 'MULLIKEN_CHARGES')
f=open( 'psi4out.xyz', 'w' )
f.write( "20  " )
f.write( str(ee) + "\n" )
f.write( MOL.save_string_xyz() )
f.close()
--------------------------------------------------------------------------

    Molecular point group: c1

    Geometry (in Angstrom), charge = 0, multiplicity = 1:

       Center              X                  Y                   Z               Mass
    ------------   -----------------  -----------------  -----------------  -----------------
           O         -1.755527082619    -0.350504633810    -1.419374140070    15.994914619560
           C         -1.666607082619     0.282194366190    -0.417347140070    12.000000000000
           C         -2.433101082619     1.542975366190    -0.121945140070    12.000000000000
           O         -0.862695082619    -0.042198633810     0.585370859930    15.994914619560
           H         -1.741785082619     2.358633366190     0.056185859930     1.007825032070
           H         -3.077259082619     1.779401366190    -0.955611140070     1.007825032070
           H         -3.023141082619     1.410462366190     0.777526859930     1.007825032070
           C         -0.069229082619    -1.216702633810     0.440033859930    12.000000000000
           C          1.359506917381    -0.869599633810     0.814664859930    12.000000000000
           H         -0.140284082619    -1.564577633810    -0.582228140070     1.007825032070
           H         -0.468579082619    -1.989072633810     1.083439859930     1.007825032070
           C          2.016256917381     0.149464366190    -0.118388140070    12.000000000000
           H          1.933073917381    -1.794206633810     0.807179859930     1.007825032070
           H          1.374648917381    -0.500195633810     1.836706859930     1.007825032070
           C          3.461615917381     0.455335366190     0.271971859930    12.000000000000
           H          1.989458917381    -0.229082633810    -1.138233140070     1.007825032070
           H          1.436345917381     1.066545366190    -0.113427140070     1.007825032070
           H          3.904384917381     1.180441366190    -0.403461140070     1.007825032070
           H          4.075387917381    -0.440639633810     0.243852859930     1.007825032070
           H          3.518145917381     0.862790366190     1.277388859930     1.007825032070

  Charge       = 0
  Multiplicity = 1
  Basis Set: 6-31G*
  Basis Set:

    Orbital Energies (a.u.)
    -----------------------

    Doubly Occupied:

       1A    -20.601979     2A    -20.543548     3A    -11.375863
       4A    -11.278145     5A    -11.234082     6A    -11.223120
       7A    -11.219918     8A    -11.212691     9A     -1.468715
      10A     -1.362686    11A     -1.084206    12A     -1.028799
      13A     -0.980534    14A     -0.882059    15A     -0.808139
      16A     -0.774560    17A     -0.694821    18A     -0.681194
      19A     -0.664626    20A     -0.631491    21A     -0.601909
      22A     -0.592707    23A     -0.573089    24A     -0.548590
      25A     -0.541152    26A     -0.535242    27A     -0.505876
      28A     -0.486959    29A     -0.477719    30A     -0.471833
      31A     -0.443939    32A     -0.437319

  @DF-RHF Final Energy:  -383.94305681500782

   => Energetics <=

    Nuclear Repulsion Energy =            390.6731387470015306
    One-Electron Energy =               -1297.2975475382529567
    Two-Electron Energy =                 522.6813519762444002
    DFT Exchange-Correlation Energy =       0.0000000000000000
    Empirical Dispersion Energy =           0.0000000000000000
    PCM Polarization Energy =               0.0000000000000000
    EFP Energy =                            0.0000000000000000
    Total Energy =                       -383.9430568150070258

  Mulliken Charges: (a.u.)
   Center  Symbol    Alpha    Beta     Spin     Total
       1     O     4.28355  4.28355  0.00000 -0.56711
       2     C     2.61890  2.61890  0.00000  0.76221
       3     C     3.28312  3.28312  0.00000 -0.56624
       4     O     4.30746  4.30746  0.00000 -0.61493
       5     H     0.40066  0.40066  0.00000  0.19868
       6     H     0.39669  0.39669  0.00000  0.20663
       7     H     0.40000  0.40000  0.00000  0.20001
       8     C     3.01662  3.01662  0.00000 -0.03323
       9     C     3.16090  3.16090  0.00000 -0.32180
      10     H     0.39188  0.39188  0.00000  0.21624
      11     H     0.41272  0.41272  0.00000  0.17457
      12     C     3.15621  3.15621  0.00000 -0.31242
      13     H     0.42024  0.42024  0.00000  0.15952
      14     H     0.41553  0.41553  0.00000  0.16894
      15     C     3.23996  3.23996  0.00000 -0.47991
      16     H     0.41888  0.41888  0.00000  0.16223
      17     H     0.41703  0.41703  0.00000  0.16595
      18     H     0.41746  0.41746  0.00000  0.16508
      19     H     0.42134  0.42134  0.00000  0.15731
      20     H     0.42086  0.42086  0.00000  0.15829

   Total alpha = 32.00000, Total beta = 32.00000, Total charge =  0.00000
