                              Psi4 1.0.54 Driver

  ==> Input File <==

--------------------------------------------------------------------------
set {
	reference rhf
	basis cc-pvtz
}

set_num_threads( 4 )
memory 2 gb

molecule MOL {
0 1

H	 -2.644180	 -0.653737	 1.272255
C	 -2.092774	 -0.380414	 0.391915
O	 -0.808934	 -0.154049	 0.752536
F	 -2.163230	 -1.351640	 -0.507133
F	 -2.627232	 0.691260	 -0.169301
C	 0.085006	 0.250800	 -0.215074
C	 0.866974	 -0.982814	 -0.660047
Cl	 1.196180	 1.482183	 0.413039
H	 -0.401748	 0.668117	 -1.079112
F	 1.727985	 -0.667248	 -1.593910
F	 0.030651	 -1.860653	 -1.161322
F	 1.507632	 -1.545462	 0.327493

	symmetry c1
}
set optking {
	frozen_dihedral = ("
		9 6 3 2
	")
}

ee,wfn = optimize('scf', return_wfn=True)
oeprop( wfn, 'DIPOLE', 'QUADRUPOLE', 'MULLIKEN_CHARGES')
f=open( 'psi4out.xyz', 'w' )
f.write( "12  " )
f.write( str(ee) + "\n" )
f.write( MOL.save_string_xyz() )
f.close()
--------------------------------------------------------------------------

    Molecular point group: c1
  Charge       = 0
  Multiplicity = 1
  Basis Set: CC-PVTZ
  Basis Set:
  @DF-RHF Final Energy: -1146.61176751754238
    Total Energy =                      -1146.6117675175430577
    Molecular point group: c1
  Basis Set: CC-PVTZ
  Basis Set:
  Basis Set: CC-PVTZ
  Basis Set:
  @DF-RHF Final Energy: -1146.61511087393910
    Total Energy =                      -1146.6151108739400115
  Basis Set: CC-PVTZ
  Basis Set:
  Basis Set: CC-PVTZ
  Basis Set:
  @DF-RHF Final Energy: -1146.61647562827284
    Total Energy =                      -1146.6164756282737471
  Basis Set: CC-PVTZ
  Basis Set:
  Basis Set: CC-PVTZ
  Basis Set:
  @DF-RHF Final Energy: -1146.61677144105670
    Total Energy =                      -1146.6167714410562439
  Basis Set: CC-PVTZ
  Basis Set:
  Basis Set: CC-PVTZ
  Basis Set:
  @DF-RHF Final Energy: -1146.61684689529011
    Total Energy =                      -1146.6168468952901094
  Basis Set: CC-PVTZ
  Basis Set:
  Basis Set: CC-PVTZ
  Basis Set:
  @DF-RHF Final Energy: -1146.61686102573231
    Total Energy =                      -1146.6168610257313958
  Basis Set: CC-PVTZ
  Basis Set:
  Basis Set: CC-PVTZ
  Basis Set:
  @DF-RHF Final Energy: -1146.61686515143674
    Total Energy =                      -1146.6168651514369685
  Basis Set: CC-PVTZ
  Basis Set:
  Charge       = 0
  Multiplicity = 1
  Basis Set: CC-PVTZ
  Basis Set:

    Orbital Energies (a.u.)
    -----------------------

    Doubly Occupied:

       1A   -104.856836     2A    -26.354267     3A    -26.353629
       4A    -26.352550     5A    -26.342866     6A    -26.342396
       7A    -20.640356     8A    -11.520120     9A    -11.483946
      10A    -11.402461    11A    -10.582325    12A     -8.049122
      13A     -8.047124    14A     -8.047048    15A     -1.768007
      16A     -1.724498    17A     -1.662335    18A     -1.661292
      19A     -1.644376    20A     -1.485035    21A     -1.179138
      22A     -1.046679    23A     -0.994310    24A     -0.923348
      25A     -0.861258    26A     -0.859639    27A     -0.850681
      28A     -0.836384    29A     -0.819907    30A     -0.795130
      31A     -0.734281    32A     -0.730699    33A     -0.713182
      34A     -0.705118    35A     -0.681718    36A     -0.681097
      37A     -0.664911    38A     -0.662006    39A     -0.649445
      40A     -0.643586    41A     -0.596085    42A     -0.574454
      43A     -0.527818    44A     -0.478993    45A     -0.469528

  @DF-RHF Final Energy: -1146.61686614181508

   => Energetics <=

    Nuclear Repulsion Energy =            741.0045834098854129
    One-Electron Energy =               -3065.2429368290531784
    Two-Electron Energy =                1177.6214872773534807
    DFT Exchange-Correlation Energy =       0.0000000000000000
    Empirical Dispersion Energy =           0.0000000000000000
    PCM Polarization Energy =               0.0000000000000000
    EFP Energy =                            0.0000000000000000
    Total Energy =                      -1146.6168661418141710
    Molecular point group: c1
  Basis Set: CC-PVTZ
  Basis Set:

  -Total Gradient:
     Atom            X                  Y                   Z
    ------   -----------------  -----------------  -----------------
       1        0.000015976219    -0.000078583323    -0.000058193549
       2        0.000825998474    -0.005027747273    -0.001012394067
       3       -0.001054776815     0.009387941313     0.002312345236
       4       -0.000024098503    -0.000026783533     0.000035351204
       5        0.000018285410    -0.000004465239    -0.000008564305
       6       -0.000441305739    -0.010075496886    -0.003839372847
       7        0.000040372882    -0.000064978893    -0.000157750945
       8        0.000030932886     0.000029556933    -0.000004520151
       9        0.000650453821     0.005722230490     0.002609566649
      10        0.000023685235     0.000106544700    -0.000015603307
      11        0.000000862857     0.000013520776     0.000093425161
      12       -0.000086386660     0.000018261039     0.000045710971

  **** Optimization is complete! (in 8 steps) ****
    Final optimized geometry and variables:
    Molecular point group: c1

    Geometry (in Angstrom), charge = 0, multiplicity = 1:

    H           -2.566506735508    -0.327768406120     1.518656015164
    C           -2.045790359490    -0.053493484830     0.620037951473
    O           -0.738759475869     0.109785821935     0.933977523992
    F           -2.223139928550    -0.976555715991    -0.306809761948
    F           -2.547994330865     1.072382662964     0.129410872395
    C            0.161797992515     0.470563884133    -0.050148736547
    C            1.028273315541    -0.718643535677    -0.471308706806
    CL           1.212554695379     1.740095879179     0.612128843927
    H           -0.316445846520     0.915728408652    -0.904709264631
    F            1.895581421927    -0.342319899362    -1.377636227130
    F            0.285154035497    -1.660902316363    -0.995151488576
    F            1.673947499756    -1.228597465443     0.542330962354

  Mulliken Charges: (a.u.)
   Center  Symbol    Alpha    Beta     Spin     Total
       1     H     0.45260  0.45260  0.00000  0.09480
       2     C     2.74081  2.74081  0.00000  0.51838
       3     O     4.15770  4.15770  0.00000 -0.31539
       4     F     4.61279  4.61279  0.00000 -0.22558
       5     F     4.61891  4.61891  0.00000 -0.23782
       6     C     2.93459  2.93459  0.00000  0.13083
       7     C     2.67449  2.67449  0.00000  0.65103
       8    CL     8.57432  8.57432  0.00000 -0.14863
       9     H     0.42867  0.42867  0.00000  0.14267
      10     F     4.60332  4.60332  0.00000 -0.20665
      11     F     4.60098  4.60098  0.00000 -0.20197
      12     F     4.60083  4.60083  0.00000 -0.20165

   Total alpha = 45.00000, Total beta = 45.00000, Total charge = -0.00000

*** Psi4 exiting successfully. Buy a developer a beer!
