                              Psi4 1.0.54 Driver

  ==> Input File <==

--------------------------------------------------------------------------
set {
	reference rhf
	basis cc-pvtz
}

set_num_threads( 4 )
memory 2 gb

molecule MOL {
0 1

O	 0.623971	 1.347241	 -0.000777
C	 0.485107	 0.171416	 -0.000134
C	 1.606966	 -0.836201	 0.000174
O	 -0.695554	 -0.422406	 0.000602
C	 2.988788	 -0.202529	 -0.000115
H	 1.465110	 -1.474645	 -0.864821
H	 1.465209	 -1.474077	 0.865596
H	 3.131767	 0.419673	 -0.873407
H	 3.750876	 -0.972315	 0.000098
H	 3.131883	 0.420264	 0.872742
C	 -0.723203	 -1.842801	 0.001521
C	 -2.170429	 -2.276408	 0.004271
H	 -0.198571	 -2.205511	 0.874189
H	 -0.201493	 -2.206684	 -0.872397
H	 -2.682675	 -1.905507	 0.883139
H	 -2.227836	 -3.358506	 0.005137
H	 -2.685611	 -1.906757	 -0.873407

	symmetry c1
}
set optking {
	frozen_dihedral = ("
		11 4 2 3
	")
}

ee,wfn = optimize('scf', return_wfn=True)
oeprop( wfn, 'DIPOLE', 'QUADRUPOLE', 'MULLIKEN_CHARGES')
f=open( 'psi4out.xyz', 'w' )
f.write( "17  " )
f.write( str(ee) + "\n" )
f.write( MOL.save_string_xyz() )
f.close()
--------------------------------------------------------------------------

    Molecular point group: c1
  Charge       = 0
  Multiplicity = 1
  Basis Set: CC-PVTZ
  Basis Set:
  @DF-RHF Final Energy:  -345.01476696723154
    Total Energy =                       -345.0147669672315942
    Molecular point group: c1
  Basis Set: CC-PVTZ
  Basis Set:
  Basis Set: CC-PVTZ
  Basis Set:
  @DF-RHF Final Energy:  -344.99305762460091
    Total Energy =                       -344.9930576246007945
  Basis Set: CC-PVTZ
  Basis Set:
  Basis Set: CC-PVTZ
  Basis Set:
  @DF-RHF Final Energy:  -345.02186885393121
    Total Energy =                       -345.0218688539314371
  Basis Set: CC-PVTZ
  Basis Set:
  Basis Set: CC-PVTZ
  Basis Set:
  @DF-RHF Final Energy:  -345.02576399341211
    Total Energy =                       -345.0257639934121698
  Basis Set: CC-PVTZ
  Basis Set:
  @DF-RHF Final Energy:  -345.02653182101426
    Total Energy =                       -345.0265318210141459
  @DF-RHF Final Energy:  -345.02681731230911
    Total Energy =                       -345.0268173123091060
  Basis Set: CC-PVTZ
  Basis Set:
  @DF-RHF Final Energy:  -345.02663600400899
    Total Energy =                       -345.0266360040086511
  Basis Set: CC-PVTZ
  Basis Set:
  Basis Set: CC-PVTZ
  Basis Set:
  @DF-RHF Final Energy:  -345.02687793245713
    Total Energy =                       -345.0268779324568413
  Basis Set: CC-PVTZ
  Basis Set:
  Basis Set: CC-PVTZ
  Basis Set:
  @DF-RHF Final Energy:  -345.02688184158649
    Total Energy =                       -345.0268818415866008
  Basis Set: CC-PVTZ
  Basis Set:
  Charge       = 0
  Multiplicity = 1
  Basis Set: CC-PVTZ
  Basis Set:

    Orbital Energies (a.u.)
    -----------------------

    Doubly Occupied:

       1A    -20.592240     2A    -20.526021     3A    -11.364905
       4A    -11.297111     5A    -11.245253     6A    -11.225551
       7A    -11.217611     8A     -1.464443     9A     -1.365923
      10A     -1.064258    11A     -1.048111    12A     -0.901892
      13A     -0.882476    14A     -0.771809    15A     -0.706908
      16A     -0.699270    17A     -0.657832    18A     -0.634517
      19A     -0.589427    20A     -0.578658    21A     -0.561183
      22A     -0.538643    23A     -0.524458    24A     -0.522946
      25A     -0.507293    26A     -0.501125    27A     -0.446554
      28A     -0.432871

  @DF-RHF Final Energy:  -345.02688171074288

   => Energetics <=

    Nuclear Repulsion Energy =            315.9463019896322180
    One-Electron Energy =               -1096.2077907212774335
    Two-Electron Energy =                 435.2346070209026720
    DFT Exchange-Correlation Energy =       0.0000000000000000
    Empirical Dispersion Energy =           0.0000000000000000
    PCM Polarization Energy =               0.0000000000000000
    EFP Energy =                            0.0000000000000000
    Total Energy =                       -345.0268817107424866
    Molecular point group: c1
  Basis Set: CC-PVTZ
  Basis Set:

  -Total Gradient:
     Atom            X                  Y                   Z
    ------   -----------------  -----------------  -----------------
       1        0.000003346087     0.000042780184     0.000037354566
       2       -0.000018884196    -0.000056703133    -0.000120933688
       3        0.000023114919     0.000000816192     0.000083255538
       4       -0.000004658023     0.000006573639    -0.000018910028
       5       -0.000006425794    -0.000006387684    -0.000014777298
       6       -0.000037417375    -0.000009159432    -0.000015175755
       7        0.000027273600     0.000010160146    -0.000016110015
       8       -0.000002258926    -0.000007730364     0.000002107614
       9       -0.000006564936     0.000006630996     0.000000666906
      10       -0.000001928622    -0.000003743774     0.000005626065
      11       -0.000004360729     0.000028209382     0.000142903794
      12       -0.000001703360     0.000001509196    -0.000018927705
      13       -0.000034559757    -0.000039395638    -0.000029650942
      14        0.000042407147     0.000028693315    -0.000035639436
      15        0.000012763544    -0.000004546286    -0.000004148660
      16        0.000004678547     0.000010041655    -0.000006111715
      17        0.000005177871    -0.000007748394     0.000008470758

  **** Optimization is complete! (in 10 steps) ****
    Final optimized geometry and variables:
    Molecular point group: c1

    Geometry (in Angstrom), charge = 0, multiplicity = 1:

    O            0.287595178910     1.842401522504    -0.012546412305
    C            0.239780156448     0.663773402661    -0.005597758457
    C            1.474458283706    -0.212416230038    -0.015070709217
    O           -0.949021122054     0.067902334896     0.011898616136
    C            2.764015543231     0.593618000299    -0.036158601505
    H            1.421874747724    -0.868615259121    -0.876957486830
    H            1.443311842649    -0.857524800810     0.856147013286
    H            2.813086712160     1.223435763973    -0.913446089535
    H            3.617046927456    -0.074180744474    -0.042408071500
    H            2.834619966261     1.234621258758     0.831514971807
    C           -1.130549077998    -1.332618404620     0.022190511096
    C           -2.619049650112    -1.597135401026     0.034582498298
    H           -0.664441616354    -1.763700932627     0.899383052459
    H           -0.677177700864    -1.774474050945    -0.856356529853
    H           -3.075383064690    -1.160007005783     0.912960228846
    H           -2.803462900338    -2.665034263369     0.042408747122
    H           -3.088138505372    -1.170692169361    -0.842321159905

  Mulliken Charges: (a.u.)
   Center  Symbol    Alpha    Beta     Spin     Total
       1     O     4.18337  4.18337  0.00000 -0.36675
       2     C     2.81629  2.81629  0.00000  0.36741
       3     C     3.12199  3.12199  0.00000 -0.24398
       4     O     4.12689  4.12689  0.00000 -0.25378
       5     C     3.13882  3.13882  0.00000 -0.27764
       6     H     0.44114  0.44114  0.00000  0.11771
       7     H     0.44112  0.44112  0.00000  0.11777
       8     H     0.44540  0.44540  0.00000  0.10919
       9     H     0.45164  0.45164  0.00000  0.09672
      10     H     0.44538  0.44538  0.00000  0.10925
      11     C     2.98562  2.98562  0.00000  0.02876
      12     C     3.13159  3.13159  0.00000 -0.26318
      13     H     0.46019  0.46019  0.00000  0.07962
      14     H     0.46029  0.46029  0.00000  0.07942
      15     H     0.44695  0.44695  0.00000  0.10609
      16     H     0.45632  0.45632  0.00000  0.08736
      17     H     0.44699  0.44699  0.00000  0.10603

   Total alpha = 28.00000, Total beta = 28.00000, Total charge = -0.00000

*** Psi4 exiting successfully. Buy a developer a beer!
