  ==> Input File <==

--------------------------------------------------------------------------
set {
	reference rhf
	basis 6-31G*
}

set_num_threads( 4 )
memory 2 gb

molecule MOL {
0 1

O	 1.534931	 1.840533	 -0.463217
C	 0.788116	 1.716284	 -1.379704
C	 -0.516134	 0.957269	 -1.353318
O	 1.010816	 2.247773	 -2.575137
C	 -0.823008	 0.326187	 0.001381
H	 -1.299814	 1.647936	 -1.652547
H	 -0.470175	 0.205508	 -2.136556
C	 -2.149452	 -0.435131	 -0.000098
H	 -0.843475	 1.101601	 0.760659
H	 -0.013637	 -0.343128	 0.275686
C	 -3.368779	 0.488503	 -0.000883
H	 -2.193746	 -1.087250	 -0.871175
H	 -2.195311	 -1.087803	 0.870418
C	 -4.693822	 -0.272754	 -0.001129
H	 -3.325798	 1.139422	 -0.871284
H	 -3.326423	 1.139959	 0.869145
H	 -4.781274	 -0.907928	 -0.878124
H	 -5.538651	 0.408946	 -0.001420
H	 -4.781694	 -0.907783	 0.875984
C	 2.205196	 2.991203	 -2.735521
H	 2.223294	 3.832232	 -2.057383
H	 2.203628	 3.335217	 -3.758032
H	 3.068440	 2.367971	 -2.551410

	symmetry c1
}
set optking {
	frozen_dihedral = ("
		9 5 8 12
	")
}

ee = optimize('scf')
oeprop('DIPOLE', 'QUADRUPOLE', 'MULLIKEN_CHARGES')
f=open( 'psi4out.xyz', 'w' )
f.write( "23  " )
f.write( str(ee) + "\n" )
f.write( MOL.save_string_xyz() )
f.close()
--------------------------------------------------------------------------

    Molecular point group: c1
  Charge       = 0
  Multiplicity = 1
  Basis Set: 6-31G*
  Basis Set:
  @DF-RHF Final Energy:  -422.97416576669013
    Total Energy =                       -422.9741657666900210
    Molecular point group: c1
  Basis Set: 6-31G*
  Basis Set:
  Basis Set: 6-31G*
  Basis Set:
  @DF-RHF Final Energy:  -422.97429584587945
    Total Energy =                       -422.9742958458791691
  Basis Set: 6-31G*
  Basis Set:
  Basis Set: 6-31G*
  Basis Set:
  @DF-RHF Final Energy:  -422.97423921141552
    Total Energy =                       -422.9742392114155791
  Basis Set: 6-31G*
  Basis Set:
  Basis Set: 6-31G*
  Basis Set:
  @DF-RHF Final Energy:  -422.97446188277598
    Total Energy =                       -422.9744618827751310
  Basis Set: 6-31G*
  Basis Set:
  Basis Set: 6-31G*
  Basis Set:
  @DF-RHF Final Energy:  -422.97446115672386
    Total Energy =                       -422.9744611567244874
  Basis Set: 6-31G*
  Basis Set:
  Basis Set: 6-31G*
  Basis Set:
  @DF-RHF Final Energy:  -422.97446663904873
    Total Energy =                       -422.9744666390486145
  Basis Set: 6-31G*
  Basis Set:
  Charge       = 0
  Multiplicity = 1
  Basis Set: 6-31G*
  Basis Set:

    Orbital Energies (a.u.)
    -----------------------

    Doubly Occupied:

       1A    -20.603560     2A    -20.545389     3A    -11.372191
       4A    -11.280806     5A    -11.235110     6A    -11.219474
       7A    -11.218493     8A    -11.217832     9A    -11.210859
      10A     -1.469253    11A     -1.362703    12A     -1.093407
      13A     -1.042306    14A     -0.987021    15A     -0.932728
      16A     -0.849126    17A     -0.792842    18A     -0.764963
      19A     -0.701238    20A     -0.682363    21A     -0.672323
      22A     -0.634357    23A     -0.624620    24A     -0.599209
      25A     -0.575737    26A     -0.557254    27A     -0.556072
      28A     -0.528079    29A     -0.520531    30A     -0.506030
      31A     -0.491942    32A     -0.468660    33A     -0.465384
      34A     -0.458139    35A     -0.452494    36A     -0.437171

  @DF-RHF Final Energy:  -422.97446673645254

   => Energetics <=

    Nuclear Repulsion Energy =            456.8982344403757452
    One-Electron Energy =               -1481.4860723906008388
    Two-Electron Energy =                 601.6133712137725524
    DFT Exchange-Correlation Energy =       0.0000000000000000
    Empirical Dispersion Energy =           0.0000000000000000
    PCM Polarization Energy =               0.0000000000000000
    EFP Energy =                            0.0000000000000000
    Total Energy =                       -422.9744667364525412
    Molecular point group: c1
  Basis Set: 6-31G*
  Basis Set:

  -Total Gradient:
     Atom            X                  Y                   Z
    ------   -----------------  -----------------  -----------------
       1       -0.000003456491     0.000010434402     0.000002532056
       2        0.000002071412    -0.000003252453    -0.000009057359
       3        0.000010894526    -0.000015591369     0.000000693602
       4        0.000004611628    -0.000000165397     0.000002772925
       5        0.000533573201    -0.000909295062     0.001020948593
       6       -0.000004505539     0.000008186297     0.000004501148
       7       -0.000005715335     0.000007590057     0.000000257733
       8        0.000632123927    -0.001089764822     0.000730715433
       9       -0.000544282774     0.000931124744    -0.000976491598
      10        0.000001548111     0.000000135275    -0.000001760376
      11        0.000003039553    -0.000008736060    -0.000014930077
      12       -0.000620802079     0.001066269859    -0.000761327939
      13       -0.000003054372    -0.000002160352     0.000001356388
      14       -0.000004206795     0.000003874833     0.000008991103
      15        0.000003213726     0.000002934724    -0.000003824833
      16       -0.000003966891    -0.000001570232    -0.000002230625
      17        0.000001002840     0.000004089082    -0.000001631244
      18       -0.000004225283    -0.000001411728     0.000003249494
      19        0.000000450021    -0.000003537849    -0.000002969934
      20        0.000002690148    -0.000000833768    -0.000002411404
      21       -0.000001187293    -0.000000077074     0.000000500751
      22       -0.000000054531     0.000000762307     0.000000271939
      23        0.000000238282     0.000000994580    -0.000000155775

  **** Optimization is complete! (in 7 steps) ****
    Final optimized geometry and variables:
    Molecular point group: c1

    Geometry (in Angstrom), charge = 0, multiplicity = 1:

    O            2.189662552871     0.699946742342     0.498276033727
    C            1.442352160171     0.604463844622    -0.421241491066
    C            0.120169212763    -0.123645478163    -0.407969686381
    O            1.682878866322     1.141309594350    -1.610947811281
    C           -0.202034932122    -0.760919062208     0.942657103689
    H           -0.639818019755     0.589173454134    -0.711790631646
    H            0.155652598771    -0.872359587816    -1.194889788157
    C           -1.528783609406    -1.530115999411     0.948140130224
    H           -0.223486457094     0.015376899151     1.701189765808
    H            0.608221624795    -1.429325198231     1.212167511334
    C           -2.776054328379    -0.640923393850     0.967219545778
    H           -1.574839135265    -2.184035440988     0.078504156426
    H           -1.552078921816    -2.177819295253     1.821056316590
    C           -4.074020470725    -1.447021296378     1.008348167480
    H           -2.788823470896     0.005585103978     0.093227502035
    H           -2.732069406369     0.016454814664     1.832864989796
    H           -4.163871992201    -2.090581454796     0.137697346559
    H           -4.941686869492    -0.794951898656     1.028200699305
    H           -4.114726386938    -2.079092085541     1.890885455640
    C            2.896624098155     1.855110302093    -1.760327507857
    H            2.933943001631     2.689149344758    -1.074399215259
    H            2.907639960931     2.208489384175    -2.779631049395
    H            3.742846677082     1.208120971154    -1.579126062157

  Mulliken Charges: (a.u.)
   Center  Symbol    Alpha    Beta     Spin     Total
       1     O     4.28596  4.28596  0.00000 -0.57192
       2     C     2.60506  2.60506  0.00000  0.78987
       3     C     3.20919  3.20919  0.00000 -0.41838
       4     O     4.30740  4.30740  0.00000 -0.61479
       5     C     3.15424  3.15424  0.00000 -0.30848
       6     H     0.39943  0.39943  0.00000  0.20114
       7     H     0.40099  0.40099  0.00000  0.19801
       8     C     3.15596  3.15596  0.00000 -0.31193
       9     H     0.41207  0.41207  0.00000  0.17586
      10     H     0.40921  0.40921  0.00000  0.18158
      11     C     3.15385  3.15385  0.00000 -0.30771
      12     H     0.42441  0.42441  0.00000  0.15117
      13     H     0.41805  0.41805  0.00000  0.16391
      14     C     3.23922  3.23922  0.00000 -0.47845
      15     H     0.42346  0.42346  0.00000  0.15309
      16     H     0.42119  0.42119  0.00000  0.15761
      17     H     0.42165  0.42165  0.00000  0.15669
      18     H     0.41866  0.41866  0.00000  0.16268
      19     H     0.42092  0.42092  0.00000  0.15815
      20     C     3.09243  3.09243  0.00000 -0.18486
      21     H     0.40907  0.40907  0.00000  0.18185
      22     H     0.40848  0.40848  0.00000  0.18305
      23     H     0.40909  0.40909  0.00000  0.18183

   Total alpha = 36.00000, Total beta = 36.00000, Total charge =  0.00000
