  ==> Input File <==

--------------------------------------------------------------------------
set {
	reference rhf
	basis cc-pvtz
}

set_num_threads( 4 )
memory 2 gb

molecule MOL {
0 1

H	 -2.498963	 -0.741158	 -0.729149
O	 -2.346257	 -0.289210	 0.080372
C	 -1.183935	 0.486039	 -0.009831
C	 0.062853	 -0.375310	 0.027457
H	 -1.178881	 1.094526	 -0.908634
H	 -1.184406	 1.155156	 0.838676
O	 1.115957	 0.400570	 0.496959
H	 0.283059	 -0.754771	 -0.971750
H	 -0.108156	 -1.234600	 0.672400
C	 2.325516	 -0.273737	 0.613140
H	 2.660793	 -0.656998	 -0.348097
H	 3.060193	 0.425729	 0.984197
H	 2.250969	 -1.106375	 1.308609

	symmetry c1
}
set optking {
	frozen_dihedral = ("
		8 4 3 5
	")
}

ee = optimize('scf')
oeprop('DIPOLE', 'QUADRUPOLE', 'MULLIKEN_CHARGES')
f=open( 'psi4out.xyz', 'w' )
f.write( "13  " )
f.write( str(ee) + "\n" )
f.write( MOL.save_string_xyz() )
f.close()
--------------------------------------------------------------------------

    Molecular point group: c1
  Charge       = 0
  Multiplicity = 1
  Basis Set: CC-PVTZ
  Basis Set:
  @DF-RHF Final Energy:  -268.05991690299550
    Total Energy =                       -268.0599169029953259
    Molecular point group: c1
  Basis Set: CC-PVTZ
  Basis Set:
  Basis Set: CC-PVTZ
  Basis Set:
  @DF-RHF Final Energy:  -268.06025361737352
    Total Energy =                       -268.0602536173734052
  Basis Set: CC-PVTZ
  Basis Set:
  Basis Set: CC-PVTZ
  Basis Set:
  @DF-RHF Final Energy:  -268.06032782320653
    Total Energy =                       -268.0603278232065350
  Basis Set: CC-PVTZ
  Basis Set:
  Basis Set: CC-PVTZ
  Basis Set:
  @DF-RHF Final Energy:  -268.06033026640517
    Total Energy =                       -268.0603302664047760
  Basis Set: CC-PVTZ
  Basis Set:
  Charge       = 0
  Multiplicity = 1
  Basis Set: CC-PVTZ
  Basis Set:

    Orbital Energies (a.u.)
    -----------------------

    Doubly Occupied:

       1A    -20.554544     2A    -20.551686     3A    -11.268739
       4A    -11.267781     5A    -11.266727     6A     -1.390065
       7A     -1.367452     8A     -1.018550     9A     -0.912834
      10A     -0.842348    11A     -0.711599    12A     -0.672530
      13A     -0.663639    14A     -0.643062    15A     -0.587178
      16A     -0.573258    17A     -0.548995    18A     -0.490414
      19A     -0.483175    20A     -0.441272    21A     -0.423792

  @DF-RHF Final Energy:  -268.06033068505701

   => Energetics <=

    Nuclear Repulsion Energy =            190.3492099567641560
    One-Electron Energy =                -743.4597996651112908
    Two-Electron Energy =                 285.0502590232903231
    DFT Exchange-Correlation Energy =       0.0000000000000000
    Empirical Dispersion Energy =           0.0000000000000000
    PCM Polarization Energy =               0.0000000000000000
    EFP Energy =                            0.0000000000000000
    Total Energy =                       -268.0603306850567833
    Molecular point group: c1
  Basis Set: CC-PVTZ
  Basis Set:

  -Total Gradient:
     Atom            X                  Y                   Z
    ------   -----------------  -----------------  -----------------
       1        0.000011869371    -0.000015478644    -0.000009773075
       2       -0.000035373080     0.000012929575     0.000022161806
       3        0.003277284706     0.004901537874     0.002470811121
       4       -0.003673630043    -0.005220777392     0.000396261790
       5       -0.002113625545    -0.003190379591    -0.002133689612
       6       -0.000010411602    -0.000009214497    -0.000004952796
       7        0.000022387882     0.000037792233     0.000018822687
       8        0.002515765951     0.003496547181    -0.000734898416
       9        0.000009358344     0.000001012805    -0.000015173044
      10       -0.000001948165    -0.000016913956    -0.000019528649
      11        0.000004626992    -0.000000881800     0.000001988410
      12       -0.000012748596     0.000004554490     0.000003674104
      13        0.000006443778    -0.000000728279     0.000004295674

  **** Optimization is complete! (in 5 steps) ****
    Final optimized geometry and variables:
    Molecular point group: c1

    Geometry (in Angstrom), charge = 0, multiplicity = 1:

    H           -2.478913364255    -0.665915928749    -1.031753682816
    O           -2.332441247237    -0.253430084676    -0.200523692262
    C           -1.155852048025     0.511077574700    -0.235657379708
    C            0.083543451044    -0.365830489871    -0.158666747805
    H           -1.134835217987     1.113073251014    -1.138042331747
    H           -1.175970267012     1.166669715345     0.621424626690
    O            1.141976026076     0.421683322579     0.289778122618
    H            0.331765978976    -0.765975054278    -1.141954706661
    H           -0.103294669262    -1.193068928638     0.520699154664
    C            2.362459182208    -0.238076509353     0.360799433461
    H            2.678455800283    -0.597883586743    -0.616046491280
    H            3.097420804830     0.463613472098     0.727219077656
    H            2.317315899114    -1.085509869321     1.041094562155

  Mulliken Charges: (a.u.)
   Center  Symbol    Alpha    Beta     Spin     Total
       1     H     0.39468  0.39468  0.00000  0.21063
       2     O     4.20151  4.20151  0.00000 -0.40303
       3     C     2.97310  2.97310  0.00000  0.05380
       4     C     2.96862  2.96862  0.00000  0.06277
       5     H     0.46689  0.46689  0.00000  0.06622
       6     H     0.45127  0.45127  0.00000  0.09746
       7     O     4.17521  4.17521  0.00000 -0.35042
       8     H     0.48108  0.48108  0.00000  0.03785
       9     H     0.46855  0.46855  0.00000  0.06290
      10     C     3.03097  3.03097  0.00000 -0.06193
      11     H     0.47169  0.47169  0.00000  0.05662
      12     H     0.44600  0.44600  0.00000  0.10801
      13     H     0.47044  0.47044  0.00000  0.05913

   Total alpha = 21.00000, Total beta = 21.00000, Total charge =  0.00000
