  ==> Input File <==

--------------------------------------------------------------------------
set {
	reference rhf
	basis 6-31G*
}

set_num_threads( 4 )
memory 2 gb

molecule MOL {
0 1

H	 -1.748661	 -2.220942	 -0.005015
C	 -1.343207	 -1.225221	 -0.013879
N	 -0.055091	 -1.100174	 -0.261126
C	 -2.150779	 -0.125890	 0.222726
C	 0.449969	 0.122615	 -0.277109
H	 -3.200618	 -0.238980	 0.422496
N	 -1.660212	 1.097703	 0.209594
C	 -0.371804	 1.219904	 -0.038265
C	 1.928147	 0.267347	 -0.541394
H	 0.029131	 2.217482	 -0.051283
C	 2.522819	 1.511781	 0.126259
H	 2.429535	 -0.618178	 -0.165472
H	 2.102620	 0.304633	 -1.612069
H	 3.590344	 1.570826	 -0.060563
H	 2.366187	 1.480106	 1.198146
H	 2.064007	 2.418035	 -0.256502

	symmetry c1
}
set optking {
	frozen_dihedral = ("
		12 9 5 3
	")
}

ee = optimize('scf')
oeprop('DIPOLE', 'QUADRUPOLE', 'MULLIKEN_CHARGES')
f=open( 'psi4out.xyz', 'w' )
f.write( "16  " )
f.write( str(ee) + "\n" )
f.write( MOL.save_string_xyz() )
f.close()
--------------------------------------------------------------------------

    Molecular point group: c1
  Charge       = 0
  Multiplicity = 1
  Basis Set: 6-31G*
  Basis Set:
  @DF-RHF Final Energy:  -340.75473419115872
    Total Energy =                       -340.7547341911585477
    Molecular point group: c1
  Basis Set: 6-31G*
  Basis Set:
  Basis Set: 6-31G*
  Basis Set:
  @DF-RHF Final Energy:  -340.75551883821049
    Total Energy =                       -340.7555188382102642
  Basis Set: 6-31G*
  Basis Set:
  Basis Set: 6-31G*
  Basis Set:
  @DF-RHF Final Energy:  -340.75605592161094
    Total Energy =                       -340.7560559216110505
  Basis Set: 6-31G*
  Basis Set:
  Basis Set: 6-31G*
  Basis Set:
  @DF-RHF Final Energy:  -340.75605623733810
    Total Energy =                       -340.7560562373381003
  Basis Set: 6-31G*
  Basis Set:
  Basis Set: 6-31G*
  Basis Set:
  @DF-RHF Final Energy:  -340.75611447930658
    Total Energy =                       -340.7561144793065750
  Basis Set: 6-31G*
  Basis Set:
  Basis Set: 6-31G*
  Basis Set:
  @DF-RHF Final Energy:  -340.75611750964697
    Total Energy =                       -340.7561175096467991
  Basis Set: 6-31G*
  Basis Set:
  Basis Set: 6-31G*
  Basis Set:
  @DF-RHF Final Energy:  -340.75611864338401
    Total Energy =                       -340.7561186433838429
  Basis Set: 6-31G*
  Basis Set:
  Charge       = 0
  Multiplicity = 1
  Basis Set: 6-31G*
  Basis Set:

    Orbital Energies (a.u.)
    -----------------------

    Doubly Occupied:

       1A    -15.586045     2A    -15.581071     3A    -11.282064
       4A    -11.275392     5A    -11.271158     6A    -11.271140
       7A    -11.233219     8A    -11.223482     9A     -1.312493
      10A     -1.220796    11A     -1.085126    12A     -1.015102
      13A     -0.907415    14A     -0.892245    15A     -0.830052
      16A     -0.714389    17A     -0.708200    18A     -0.653578
      19A     -0.625953    20A     -0.609610    21A     -0.570411
      22A     -0.564128    23A     -0.519838    24A     -0.511805
      25A     -0.505802    26A     -0.481937    27A     -0.427572
      28A     -0.394296    29A     -0.344677

  @DF-RHF Final Energy:  -340.75611874406604

   => Energetics <=

    Nuclear Repulsion Energy =            349.1441495258169425
    One-Electron Energy =               -1152.5625409330943967
    Two-Electron Energy =                 462.6622726632114109
    DFT Exchange-Correlation Energy =       0.0000000000000000
    Empirical Dispersion Energy =           0.0000000000000000
    PCM Polarization Energy =               0.0000000000000000
    EFP Energy =                            0.0000000000000000
    Total Energy =                       -340.7561187440660433
    Molecular point group: c1
  Basis Set: 6-31G*
  Basis Set:

  -Total Gradient:
     Atom            X                  Y                   Z
    ------   -----------------  -----------------  -----------------
       1       -0.000001528725     0.000000376951    -0.000004724300
       2        0.000004598114    -0.000000651485    -0.000004818091
       3        0.000004104196    -0.000004364304     0.000032279219
       4        0.000002808253     0.000001342149     0.000026319507
       5       -0.000008510907     0.000009503434    -0.000035883433
       6       -0.000002739296    -0.000000637516    -0.000012131028
       7       -0.000004648094    -0.000005175341     0.000000230996
       8        0.000005644695    -0.000000404144    -0.000016704965
       9        0.000012140175     0.000018596251     0.000056574618
      10        0.000000281393     0.000001382426    -0.000000401756
      11       -0.000004470793     0.000001828227    -0.000003342198
      12       -0.000006067805    -0.000019656588    -0.000038306445
      13       -0.000000007781     0.000001302992     0.000003040165
      14       -0.000001908497    -0.000004575781    -0.000002097358
      15       -0.000000763059    -0.000002069090     0.000000958453
      16        0.000001068129     0.000003201819    -0.000000993384

  **** Optimization is complete! (in 8 steps) ****
    Final optimized geometry and variables:
    Molecular point group: c1

    Geometry (in Angstrom), charge = 0, multiplicity = 1:

    H           -1.682369262988    -2.485118036263     0.023060533425
    C           -1.298832886932    -1.480669064445     0.031809726735
    N           -0.007421065405    -1.326752609017    -0.180347700635
    C           -2.133128045924    -0.401227455577     0.260280156728
    C            0.478412411826    -0.095995781539    -0.170428381252
    H           -3.185214880214    -0.535298759568     0.433701712352
    N           -1.663862077816     0.830631666423     0.274493331284
    C           -0.372253612366     0.982523721009     0.061619332767
    C            1.958872378386     0.049997302916    -0.447696496045
    H           -0.000888805383     1.989557927315     0.076765914435
    C            2.634807358036     1.277595286626     0.164870829015
    H            2.436915822876    -0.853286761757    -0.088321871792
    H            2.103198571098     0.058354132029    -1.525867997970
    H            3.703882280191     1.236874552161    -0.013363566972
    H            2.477509529953     1.322218857090     1.237935471969
    H            2.271958722835     2.204241881198    -0.266739302336

  Mulliken Charges: (a.u.)
   Center  Symbol    Alpha    Beta     Spin     Total
       1     H     0.39389  0.39389  0.00000  0.21222
       2     C     2.98994  2.98994  0.00000  0.02012
       3     N     3.75578  3.75578  0.00000 -0.51155
       4     C     2.99815  2.99815  0.00000  0.00369
       5     C     2.87861  2.87861  0.00000  0.24279
       6     H     0.39441  0.39441  0.00000  0.21117
       7     N     3.73071  3.73071  0.00000 -0.46143
       8     C     2.99633  2.99633  0.00000  0.00734
       9     C     3.16563  3.16563  0.00000 -0.33126
      10     H     0.39348  0.39348  0.00000  0.21304
      11     C     3.25072  3.25072  0.00000 -0.50144
      12     H     0.40095  0.40095  0.00000  0.19810
      13     H     0.40625  0.40625  0.00000  0.18749
      14     H     0.41248  0.41248  0.00000  0.17504
      15     H     0.41411  0.41411  0.00000  0.17178
      16     H     0.41854  0.41854  0.00000  0.16292

   Total alpha = 29.00000, Total beta = 29.00000, Total charge = -0.00000
