  ==> Input File <==

--------------------------------------------------------------------------
set {
	reference rhf
	basis 6-31G*
}

set_num_threads( 4 )
memory 2 gb

molecule MOL {
0 1

H	 2.581689	 0.613737	 0.260126
O	 2.064459	 -0.086912	 -0.111827
C	 0.745630	 0.005118	 0.354752
H	 0.739005	 0.037656	 1.444976
C	 -0.064159	 -1.194875	 -0.122754
C	 -0.046302	 1.193543	 -0.190431
H	 0.197384	 -1.376065	 -1.160690
H	 0.162855	 -2.097978	 0.431858
C	 -1.535782	 -0.752177	 0.006642
H	 0.154512	 1.271315	 -1.255561
H	 0.226209	 2.140461	 0.267302
C	 -1.509193	 0.801505	 0.065617
H	 -2.127797	 -1.112194	 -0.826847
H	 -1.986849	 -1.158408	 0.905561
H	 -2.183670	 1.254107	 -0.651985
H	 -1.821727	 1.144320	 1.047089

	symmetry c1
}
set optking {
	frozen_dihedral = ("
		1 2 3 6
	")
}

ee = optimize('scf')
oeprop('DIPOLE', 'QUADRUPOLE', 'MULLIKEN_CHARGES')
f=open( 'psi4out.xyz', 'w' )
f.write( "16  " )
f.write( str(ee) + "\n" )
f.write( MOL.save_string_xyz() )
f.close()
--------------------------------------------------------------------------

    Molecular point group: c1
  Charge       = 0
  Multiplicity = 1
  Basis Set: 6-31G*
  Basis Set:
  @DF-RHF Final Energy:  -270.01449642317266
    Total Energy =                       -270.0144964231726590
    Molecular point group: c1
  Basis Set: 6-31G*
  Basis Set:
  Charge       = 0
  Multiplicity = 1
  Basis Set: 6-31G*
  Basis Set:

    Orbital Energies (a.u.)
    -----------------------

    Doubly Occupied:

       1A    -20.552316     2A    -11.268597     3A    -11.216601
       4A    -11.214840     5A    -11.211067     6A    -11.208090
       7A     -1.361190     8A     -1.112896     9A     -0.965253
      10A     -0.947874    11A     -0.787457    12A     -0.775978
      13A     -0.704452    14A     -0.655616    15A     -0.617747
      16A     -0.585865    17A     -0.565549    18A     -0.523177
      19A     -0.506597    20A     -0.481334    21A     -0.470074
      22A     -0.456454    23A     -0.448972    24A     -0.417626

  @DF-RHF Final Energy:  -270.01449701200704

   => Energetics <=

    Nuclear Repulsion Energy =            255.1425368620505481
    One-Electron Energy =                -872.2028227630074753
    Two-Electron Energy =                 347.0457888889498008
    DFT Exchange-Correlation Energy =       0.0000000000000000
    Empirical Dispersion Energy =           0.0000000000000000
    PCM Polarization Energy =               0.0000000000000000
    EFP Energy =                            0.0000000000000000
    Total Energy =                       -270.0144970120071548
    Molecular point group: c1
  Basis Set: 6-31G*
  Basis Set:

  -Total Gradient:
     Atom            X                  Y                   Z
    ------   -----------------  -----------------  -----------------
       1        0.000100949040    -0.000203532066     0.000247880637
       2       -0.000131913333     0.000210753555    -0.000400450833
       3        0.000175348947     0.000087772009     0.000245497256
       4       -0.000059860983    -0.000006850691     0.000025109068
       5        0.000025930989     0.000032726749     0.000073023164
       6       -0.000032357043    -0.000114512139    -0.000168951499
       7       -0.000006617113     0.000006131929     0.000002585583
       8        0.000002937090     0.000001230127    -0.000001623542
       9       -0.000039540824     0.000007461802    -0.000028995396
      10       -0.000003390744     0.000017566741     0.000005989451
      11        0.000004070093    -0.000008568001    -0.000004161262
      12       -0.000025282526    -0.000023156882     0.000001810789
      13       -0.000015652000     0.000003904858     0.000000431576
      14        0.000013317524     0.000000329983     0.000000437994
      15       -0.000003913976    -0.000004180185     0.000001683741
      16       -0.000004025149    -0.000007077786    -0.000000266728

  **** Optimization is complete! (in 2 steps) ****
    Final optimized geometry and variables:
    Molecular point group: c1

    Geometry (in Angstrom), charge = 0, multiplicity = 1:

    H            2.582309924783     0.614348390407     0.256499018458
    O            2.064101557906    -0.086261739078    -0.113921687138
    C            0.745862204884     0.005413403524     0.355002087582
    H            0.740223170498     0.037135255000     1.445173256961
    C           -0.064391346590    -1.194573484365    -0.122217029468
    C           -0.046359990065     1.193840552524    -0.189907954299
    H            0.198020795620    -1.376171479952    -1.159891488325
    H            0.162440834475    -2.097535713867     0.432765726097
    C           -1.536101310049    -0.751863061618     0.005668309151
    H            0.155564460080     1.271763250110    -1.254714895586
    H            0.225913763001     2.140839684025     0.267755012493
    C           -1.509498597433     0.801764770544     0.064949106381
    H           -2.127604678147    -1.111696546339    -0.828321353622
    H           -1.987937466330    -1.158282206586     0.904166796910
    H           -2.183513679988     1.254468881539    -0.653043772026
    H           -1.822926695257     1.144266209736     1.046271746061

  Mulliken Charges: (a.u.)
   Center  Symbol    Alpha    Beta     Spin     Total
       1     H     0.28192  0.28192  0.00000  0.43617
       2     O     4.37601  4.37601  0.00000 -0.75202
       3     C     2.90796  2.90796  0.00000  0.18407
       4     H     0.43109  0.43109  0.00000  0.13782
       5     C     3.16702  3.16702  0.00000 -0.33405
       6     C     3.17488  3.17488  0.00000 -0.34977
       7     H     0.41095  0.41095  0.00000  0.17811
       8     H     0.41294  0.41294  0.00000  0.17412
       9     C     3.16894  3.16894  0.00000 -0.33788
      10     H     0.41386  0.41386  0.00000  0.17228
      11     H     0.42131  0.42131  0.00000  0.15738
      12     C     3.16908  3.16908  0.00000 -0.33816
      13     H     0.41460  0.41460  0.00000  0.17080
      14     H     0.41711  0.41711  0.00000  0.16579
      15     H     0.41400  0.41400  0.00000  0.17201
      16     H     0.41832  0.41832  0.00000  0.16335

   Total alpha = 24.00000, Total beta = 24.00000, Total charge =  0.00000
