  ==> Input File <==

--------------------------------------------------------------------------
set {
	reference rhf
	basis 6-31G*
}

set_num_threads( 4 )
memory 2 gb

molecule MOL {
0 1

H	 -2.499100	 -0.730091	 -0.745082
O	 -2.347518	 -0.290803	 0.079804
C	 -1.184022	 0.487508	 -0.006784
C	 0.062599	 -0.378592	 0.031606
H	 -1.176523	 1.099369	 -0.904519
H	 -1.187323	 1.153111	 0.844927
O	 -0.282615	 -1.649796	 -0.420772
H	 0.453901	 -0.426991	 1.049703
H	 0.835116	 0.065147	 -0.593612
C	 0.777031	 -2.551825	 -0.472108
H	 1.214000	 -2.708757	 0.512301
H	 0.388047	 -3.492392	 -0.836700
H	 1.558973	 -2.208011	 -1.146015

	symmetry c1
}
set optking {
	frozen_dihedral = ("
		8 4 3 5
	")
}

ee = optimize('scf')
oeprop('DIPOLE', 'QUADRUPOLE', 'MULLIKEN_CHARGES')
f=open( 'psi4out.xyz', 'w' )
f.write( "13  " )
f.write( str(ee) + "\n" )
f.write( MOL.save_string_xyz() )
f.close()
--------------------------------------------------------------------------

    Molecular point group: c1
  Charge       = 0
  Multiplicity = 1
  Basis Set: 6-31G*
  Basis Set:
  @DF-RHF Final Energy:  -267.94311613543289
    Total Energy =                       -267.9431161354327173
    Molecular point group: c1
  Basis Set: 6-31G*
  Basis Set:
  Basis Set: 6-31G*
  Basis Set:
  @DF-RHF Final Energy:  -267.94571306799821
    Total Energy =                       -267.9457130679980992
  Basis Set: 6-31G*
  Basis Set:
  Basis Set: 6-31G*
  Basis Set:
  @DF-RHF Final Energy:  -267.94694355793337
    Total Energy =                       -267.9469435579331389
  Basis Set: 6-31G*
  Basis Set:
  Basis Set: 6-31G*
  Basis Set:
  @DF-RHF Final Energy:  -267.94735154501467
    Total Energy =                       -267.9473515450148966
  Basis Set: 6-31G*
  Basis Set:
  @DF-RHF Final Energy:  -267.94764362478475
    Total Energy =                       -267.9476436247847460
  Basis Set: 6-31G*
  Basis Set:
  @DF-RHF Final Energy:  -267.94786010567645
    Total Energy =                       -267.9478601056766252
  Basis Set: 6-31G*
  Basis Set:
  Basis Set: 6-31G*
  Basis Set:
  @DF-RHF Final Energy:  -267.94799981142330
    Total Energy =                       -267.9479998114234149
  Basis Set: 6-31G*
  Basis Set:
  Basis Set: 6-31G*
  Basis Set:
  @DF-RHF Final Energy:  -267.94806511367540
    Total Energy =                       -267.9480651136756819
  Basis Set: 6-31G*
  Basis Set:
  Charge       = 0
  Multiplicity = 1
  Basis Set: 6-31G*
  Basis Set:

    Orbital Energies (a.u.)
    -----------------------

    Doubly Occupied:

       1A    -20.573874     2A    -20.543919     3A    -11.277950
       4A    -11.277692     5A    -11.268254     6A     -1.400990
       7A     -1.351030     8A     -1.018301     9A     -0.927073
      10A     -0.835883    11A     -0.701003    12A     -0.684227
      13A     -0.670959    14A     -0.633360    15A     -0.593266
      16A     -0.572625    17A     -0.546991    18A     -0.496666
      19A     -0.476626    20A     -0.441442    21A     -0.417448

  @DF-RHF Final Energy:  -267.94806546618247

   => Energetics <=

    Nuclear Repulsion Energy =            195.0486046939707876
    One-Electron Energy =                -752.5741775605349630
    Two-Electron Energy =                 289.5775074003817053
    DFT Exchange-Correlation Energy =       0.0000000000000000
    Empirical Dispersion Energy =           0.0000000000000000
    PCM Polarization Energy =               0.0000000000000000
    EFP Energy =                            0.0000000000000000
    Total Energy =                       -267.9480654661824701
    Molecular point group: c1
  Basis Set: 6-31G*
  Basis Set:

  -Total Gradient:
     Atom            X                  Y                   Z
    ------   -----------------  -----------------  -----------------
       1       -0.000020317553    -0.000003692466    -0.000005258567
       2       -0.000004774598    -0.000003070535    -0.000038717370
       3       -0.003496815445    -0.005247376736    -0.005360931242
       4       -0.005004887552    -0.006537396353     0.002437976309
       5        0.003770157901     0.005544254606     0.004120912467
       6        0.000016023260     0.000017083169    -0.000004973531
       7        0.000002847427    -0.000021207963     0.000010031545
       8        0.004723043191     0.006286894045    -0.001168111982
       9        0.000001566163    -0.000006827773     0.000008862412
      10        0.000011924910    -0.000023927363     0.000000412012
      11        0.000002831610    -0.000003203537    -0.000003843898
      12        0.000005038012    -0.000004516530     0.000000653744
      13       -0.000006637328     0.000002987436     0.000002988103

  **** Optimization is complete! (in 9 steps) ****
    Final optimized geometry and variables:
    Molecular point group: c1

    Geometry (in Angstrom), charge = 0, multiplicity = 1:

    H           -1.665341221131    -0.133979572654    -0.242397831210
    O           -1.767249092187     0.680402980060     0.232837627294
    C           -0.569154928600     1.382712052946     0.150536192922
    C            0.665065370160     0.475230315098     0.237222583297
    H           -0.510202415241     2.004877373308    -0.740332066729
    H           -0.549250761335     2.072918468470     0.986378427531
    O            0.348809553738    -0.768917552057    -0.306054698961
    H            1.025758033990     0.393703531984     1.260976287720
    H            1.479663877682     0.930066682610    -0.326753562296
    C            1.393798334880    -1.692008695965    -0.294257372469
    H            1.730583337714    -1.891439846428     0.720144766421
    H            1.023504352544    -2.609365341870    -0.729862351147
    H            2.239242417511    -1.337734610703    -0.879450806760

  Mulliken Charges: (a.u.)
   Center  Symbol    Alpha    Beta     Spin     Total
       1     H     0.26715  0.26715  0.00000  0.46570
       2     O     4.37392  4.37392  0.00000 -0.74784
       3     C     2.99592  2.99592  0.00000  0.00816
       4     C     3.00532  3.00532  0.00000 -0.01063
       5     H     0.42797  0.42797  0.00000  0.14407
       6     H     0.41909  0.41909  0.00000  0.16182
       7     O     4.31561  4.31561  0.00000 -0.63123
       8     H     0.42498  0.42498  0.00000  0.15004
       9     H     0.42910  0.42910  0.00000  0.14180
      10     C     3.08029  3.08029  0.00000 -0.16057
      11     H     0.42484  0.42484  0.00000  0.15031
      12     H     0.40955  0.40955  0.00000  0.18090
      13     H     0.42627  0.42627  0.00000  0.14746

   Total alpha = 21.00000, Total beta = 21.00000, Total charge = -0.00000
