  ==> Input File <==

--------------------------------------------------------------------------
set {
	reference rhf
	basis cc-pvtz
}

set_num_threads( 4 )
memory 2 gb

molecule MOL {
0 1

O	 1.294735	 1.149866	 1.784769
C	 0.570239	 1.133633	 0.831061
C	 -0.462513	 2.226349	 0.646049
N	 0.622280	 0.144970	 -0.099307
H	 -1.465275	 1.819498	 0.610205
H	 -0.378882	 2.894444	 1.486970
H	 -0.291106	 2.780484	 -0.268570
C	 1.664396	 -0.854993	 0.000772
C	 -0.067251	 0.192930	 -1.366588
H	 2.462727	 -0.615153	 -0.690869
H	 1.261798	 -1.821849	 -0.240651
H	 2.081615	 -0.891605	 1.003877
H	 -0.347006	 -0.811396	 -1.657625
H	 -0.969222	 0.777621	 -1.307592
H	 0.559199	 0.605386	 -2.154297

	symmetry c1
}
set optking {
	frozen_dihedral = ("
		2 4 8 10
	")
}

ee = optimize('scf')
oeprop('DIPOLE', 'QUADRUPOLE', 'MULLIKEN_CHARGES')
f=open( 'psi4out.xyz', 'w' )
f.write( "15  " )
f.write( str(ee) + "\n" )
f.write( MOL.save_string_xyz() )
f.close()
--------------------------------------------------------------------------

    Molecular point group: c1
  Charge       = 0
  Multiplicity = 1
  Basis Set: CC-PVTZ
  Basis Set:
  @DF-RHF Final Energy:  -286.13524502753557
    Total Energy =                       -286.1352450275352908
    Molecular point group: c1
  Basis Set: CC-PVTZ
  Basis Set:
  Basis Set: CC-PVTZ
  Basis Set:
  @DF-RHF Final Energy:  -286.13559848783439
    Total Energy =                       -286.1355984878346135
  Basis Set: CC-PVTZ
  Basis Set:
  Basis Set: CC-PVTZ
  Basis Set:
  @DF-RHF Final Energy:  -286.13558755372759
    Total Energy =                       -286.1355875537274187
  Basis Set: CC-PVTZ
  Basis Set:
  Basis Set: CC-PVTZ
  Basis Set:
  @DF-RHF Final Energy:  -286.13563311798100
    Total Energy =                       -286.1356331179808876
  Basis Set: CC-PVTZ
  Basis Set:
  Basis Set: CC-PVTZ
  Basis Set:
  @DF-RHF Final Energy:  -286.13563938130500
    Total Energy =                       -286.1356393813048271
  Basis Set: CC-PVTZ
  Basis Set:
  Charge       = 0
  Multiplicity = 1
  Basis Set: CC-PVTZ
  Basis Set:

    Orbital Energies (a.u.)
    -----------------------

    Doubly Occupied:

       1A    -20.503668     2A    -15.578462     3A    -11.335151
       4A    -11.263961     5A    -11.246446     6A    -11.226480
       7A     -1.387379     8A     -1.246334     9A     -1.015117
      10A     -0.973184    11A     -0.920841    12A     -0.739036
      13A     -0.683303    14A     -0.661956    15A     -0.653836
      16A     -0.590278    17A     -0.578210    18A     -0.567521
      19A     -0.561753    20A     -0.548399    21A     -0.530363
      22A     -0.507306    23A     -0.413744    24A     -0.370524

  @DF-RHF Final Energy:  -286.13563982367378

   => Energetics <=

    Nuclear Repulsion Energy =            252.8998651351361673
    One-Electron Energy =                -889.8645047966531365
    Two-Electron Energy =                 350.8289998378431847
    DFT Exchange-Correlation Energy =       0.0000000000000000
    Empirical Dispersion Energy =           0.0000000000000000
    PCM Polarization Energy =               0.0000000000000000
    EFP Energy =                            0.0000000000000000
    Total Energy =                       -286.1356398236737277
    Molecular point group: c1
  Basis Set: CC-PVTZ
  Basis Set:

  -Total Gradient:
     Atom            X                  Y                   Z
    ------   -----------------  -----------------  -----------------
       1        0.000004434558     0.000024068081    -0.000000049331
       2        0.000014295951     0.000038577779     0.000023151643
       3       -0.000017860086    -0.000038080757     0.000004514091
       4       -0.000071142373    -0.000054677482     0.000011674603
       5       -0.000001636037     0.000007513957    -0.000003774313
       6        0.000004063136     0.000001917420    -0.000002895024
       7        0.000008885043    -0.000010654027    -0.000016065938
       8       -0.000002363901    -0.000038711191    -0.000054178875
       9        0.000051200522     0.000034197939    -0.000028370082
      10        0.000010366264    -0.000015358745    -0.000005162935
      11        0.000014234751     0.000028755862     0.000022602683
      12       -0.000000964597    -0.000004189497     0.000016653706
      13        0.000018465729     0.000009685006     0.000013144201
      14       -0.000021917583     0.000006522800     0.000026609908
      15       -0.000010061378     0.000010432857    -0.000007854339

  **** Optimization is complete! (in 6 steps) ****
    Final optimized geometry and variables:
    Molecular point group: c1

    Geometry (in Angstrom), charge = 0, multiplicity = 1:

    O            0.686994946444     0.488502567558     1.496098571212
    C           -0.036660230006     0.472376160297     0.541745523091
    C           -1.071519099142     1.563399750175     0.358438207504
    N            0.019567126620    -0.513162579978    -0.391372932438
    H           -2.073706434844     1.154946727919     0.325103866500
    H           -0.987137306096     2.231806327053     1.199033856492
    H           -0.902951398275     2.117489885932    -0.556695582246
    C            1.061594309871    -1.513216386780    -0.293053484116
    C           -0.676082071243    -0.470764501138    -1.655278518699
    H            1.880739397218    -1.296852102424    -0.974008831053
    H            0.656180902895    -2.485020116644    -0.547387446891
    H            1.444386979835    -1.538256464566     0.710918662763
    H           -0.961418270545    -1.475814386781    -1.938730364242
    H           -1.575083810183     0.118262801042    -1.596141671378
    H           -0.051317668844    -0.066106745668    -2.448267985811

  Mulliken Charges: (a.u.)
   Center  Symbol    Alpha    Beta     Spin     Total
       1     O     4.22069  4.22069  0.00000 -0.44139
       2     C     2.84543  2.84543  0.00000  0.30913
       3     C     3.16077  3.16077  0.00000 -0.32155
       4     N     3.56176  3.56176  0.00000 -0.12353
       5     H     0.44888  0.44888  0.00000  0.10224
       6     H     0.42862  0.42862  0.00000  0.14275
       7     H     0.44924  0.44924  0.00000  0.10152
       8     C     3.09889  3.09889  0.00000 -0.19779
       9     C     3.09563  3.09563  0.00000 -0.19126
      10     H     0.45790  0.45790  0.00000  0.08421
      11     H     0.45667  0.45667  0.00000  0.08667
      12     H     0.42633  0.42633  0.00000  0.14734
      13     H     0.44948  0.44948  0.00000  0.10104
      14     H     0.44508  0.44508  0.00000  0.10984
      15     H     0.45462  0.45462  0.00000  0.09077

   Total alpha = 24.00000, Total beta = 24.00000, Total charge = -0.00000
