  ==> Input File <==

--------------------------------------------------------------------------
set {
	reference rhf
	basis cc-pvtz
}

set_num_threads( 4 )
memory 2 gb

molecule MOL {
0 1

H	 0.784880	 0.381576	 2.322652
C	 -0.175947	 0.420253	 1.830691
O	 -0.000000	 0.000000	 0.518769
H	 -0.869680	 -0.224648	 2.366129
H	 -0.551397	 1.440494	 1.875414
C	 -1.165153	 0.000000	 -0.236961
H	 -1.229451	 0.882440	 -0.870223
H	 -2.002557	 0.000000	 0.445289
H	 -1.229451	 -0.882440	 -0.870223

	symmetry c1
}
set optking {
	frozen_dihedral = ("
		2 3 6 7
	")
}

ee = optimize('scf')
oeprop('DIPOLE', 'QUADRUPOLE', 'MULLIKEN_CHARGES')
f=open( 'psi4out.xyz', 'w' )
f.write( "9  " )
f.write( str(ee) + "\n" )
f.write( MOL.save_string_xyz() )
f.close()
--------------------------------------------------------------------------

    Molecular point group: c1
  Charge       = 0
  Multiplicity = 1
  Basis Set: CC-PVTZ
  Basis Set:
  @DF-RHF Final Energy:  -154.12326785800201
    Total Energy =                       -154.1232678580021229
    Molecular point group: c1
  Basis Set: CC-PVTZ
  Basis Set:
  Basis Set: CC-PVTZ
  Basis Set:
  @DF-RHF Final Energy:  -154.12420447215970
    Total Energy =                       -154.1242044721597892
  Basis Set: CC-PVTZ
  Basis Set:
  Basis Set: CC-PVTZ
  Basis Set:
  @DF-RHF Final Energy:  -154.12445395414062
    Total Energy =                       -154.1244539541406482
  Basis Set: CC-PVTZ
  Basis Set:
  Charge       = 0
  Multiplicity = 1
  Basis Set: CC-PVTZ
  Basis Set:

    Orbital Energies (a.u.)
    -----------------------

    Doubly Occupied:

       1A    -20.547658     2A    -11.263492     3A    -11.262700
       4A     -1.379057     5A     -0.975955     6A     -0.872463
       7A     -0.660555     8A     -0.654766     9A     -0.645329
      10A     -0.556894    11A     -0.528419    12A     -0.475898
      13A     -0.416058

  @DF-RHF Final Energy:  -154.12445578888588

   => Energetics <=

    Nuclear Repulsion Energy =             84.6441770879947200
    One-Electron Energy =                -377.0587787107829172
    Two-Electron Energy =                 138.2901458339023861
    DFT Exchange-Correlation Energy =       0.0000000000000000
    Empirical Dispersion Energy =           0.0000000000000000
    PCM Polarization Energy =               0.0000000000000000
    EFP Energy =                            0.0000000000000000
    Total Energy =                       -154.1244557888858253
    Molecular point group: c1
  Basis Set: CC-PVTZ
  Basis Set:

  -Total Gradient:
     Atom            X                  Y                   Z
    ------   -----------------  -----------------  -----------------
       1        0.000008869665    -0.000008028684    -0.000014377652
       2       -0.000432618822    -0.001945085592     0.000635323634
       3        0.000871989134     0.002541278179    -0.001539760510
       4       -0.000004901711    -0.000015102189    -0.000034404978
       5        0.000003202546    -0.000021060706    -0.000006554108
       6       -0.001755214538     0.000763138634     0.002860480439
       7        0.001343486872    -0.001327137518    -0.001878224300
       8       -0.000051688882     0.000006819142     0.000001341866
       9        0.000016875736     0.000005178734    -0.000023824390

  **** Optimization is complete! (in 4 steps) ****
    Final optimized geometry and variables:
    Molecular point group: c1

    Geometry (in Angstrom), charge = 0, multiplicity = 1:

    H            1.276210237244     0.225471267995     1.596024612917
    C            0.305672171868     0.280705251462     1.124288089103
    O            0.449533580646    -0.149004983141    -0.189174534390
    H           -0.387141111120    -0.350515664384     1.675732390563
    H           -0.047544053577     1.308507816718     1.177642015604
    C           -0.716870118325    -0.143159839599    -0.951024062830
    H           -0.758316116153     0.736383642039    -1.587004004240
    H           -1.608331603358    -0.176161834217    -0.332458428739
    H           -0.713237992826    -1.016597670731    -1.590624522632

  Mulliken Charges: (a.u.)
   Center  Symbol    Alpha    Beta     Spin     Total
       1     H     0.44954  0.44954  0.00000  0.10093
       2     C     3.02109  3.02109  0.00000 -0.04218
       3     O     4.17133  4.17133  0.00000 -0.34266
       4     H     0.47250  0.47250  0.00000  0.05500
       5     H     0.47353  0.47353  0.00000  0.05295
       6     C     3.01794  3.01794  0.00000 -0.03588
       7     H     0.46469  0.46469  0.00000  0.07062
       8     H     0.47481  0.47481  0.00000  0.05037
       9     H     0.45457  0.45457  0.00000  0.09085

   Total alpha = 13.00000, Total beta = 13.00000, Total charge = -0.00000
