  ==> Input File <==

--------------------------------------------------------------------------
set {
	reference rhf
	basis 6-31G*
}

set_num_threads( 4 )
memory 2 gb

molecule MOL {
0 1

O	 0.131227	 1.176189	 0.435324
C	 0.028650	 0.075053	 -0.000277
C	 -1.233602	 -0.752807	 0.000328
O	 1.036574	 -0.584349	 -0.556316
C	 -2.501530	 0.091881	 0.000126
H	 -1.193807	 -1.406641	 -0.865785
H	 -1.193516	 -1.405779	 0.867015
H	 -2.545121	 0.729328	 -0.874513
H	 -3.377167	 -0.548497	 0.000561
H	 -2.544818	 0.730135	 0.874258
C	 2.284130	 0.082901	 -0.619320
H	 2.200416	 0.990591	 -1.199410
H	 2.963055	 -0.605549	 -1.097817
H	 2.635230	 0.326498	 0.373081

	symmetry c1
}
set optking {
	frozen_dihedral = ("
		4 2 3 6
	")
}

ee = optimize('scf')
oeprop('DIPOLE', 'QUADRUPOLE', 'MULLIKEN_CHARGES')
f=open( 'psi4out.xyz', 'w' )
f.write( "14  " )
f.write( str(ee) + "\n" )
f.write( MOL.save_string_xyz() )
f.close()
--------------------------------------------------------------------------

    Molecular point group: c1
  Charge       = 0
  Multiplicity = 1
  Basis Set: 6-31G*
  Basis Set:
  @DF-RHF Final Energy:  -305.87143041438583
    Total Energy =                       -305.8714304143860545
    Molecular point group: c1
  Basis Set: 6-31G*
  Basis Set:
  Basis Set: 6-31G*
  Basis Set:
  @DF-RHF Final Energy:  -305.87151709935551
    Total Energy =                       -305.8715170993554011
  Basis Set: 6-31G*
  Basis Set:
  Basis Set: 6-31G*
  Basis Set:
  @DF-RHF Final Energy:  -305.87153135167216
    Total Energy =                       -305.8715313516719334
  Basis Set: 6-31G*
  Basis Set:
  Basis Set: 6-31G*
  Basis Set:
  @DF-RHF Final Energy:  -305.87160590619902
    Total Energy =                       -305.8716059061991928
  Basis Set: 6-31G*
  Basis Set:
  Basis Set: 6-31G*
  Basis Set:
  @DF-RHF Final Energy:  -305.87162935648632
    Total Energy =                       -305.8716293564863236
  Basis Set: 6-31G*
  Basis Set:
  Basis Set: 6-31G*
  Basis Set:
  @DF-RHF Final Energy:  -305.87163055930296
    Total Energy =                       -305.8716305593027300
  Basis Set: 6-31G*
  Basis Set:
  Charge       = 0
  Multiplicity = 1
  Basis Set: 6-31G*
  Basis Set:

    Orbital Energies (a.u.)
    -----------------------

    Doubly Occupied:

       1A    -20.605659     2A    -20.545152     3A    -11.372948
       4A    -11.281542     5A    -11.238386     6A    -11.218161
       7A     -1.470554     8A     -1.363333     9A     -1.064323
      10A     -0.980477    11A     -0.879034    12A     -0.769935
      13A     -0.700267    14A     -0.682294    15A     -0.671914
      16A     -0.620099    17A     -0.602354    18A     -0.549617
      19A     -0.537869    20A     -0.519651    21A     -0.514294
      22A     -0.496089    23A     -0.457132    24A     -0.438422

  @DF-RHF Final Energy:  -305.87163098683794

   => Energetics <=

    Nuclear Repulsion Energy =            247.1216211921338868
    One-Electron Energy =                -906.8274901744071030
    Two-Electron Energy =                 353.8342379954355010
    DFT Exchange-Correlation Energy =       0.0000000000000000
    Empirical Dispersion Energy =           0.0000000000000000
    PCM Polarization Energy =               0.0000000000000000
    EFP Energy =                            0.0000000000000000
    Total Energy =                       -305.8716309868376584
    Molecular point group: c1
  Basis Set: 6-31G*
  Basis Set:

  -Total Gradient:
     Atom            X                  Y                   Z
    ------   -----------------  -----------------  -----------------
       1        0.000004171206    -0.000015368860    -0.000001580705
       2        0.000399575444    -0.000601786405     0.001267778661
       3       -0.000715253604     0.001068756663    -0.001051059256
       4       -0.000211914753     0.000328776172    -0.000839286859
       5        0.000012824369     0.000002830019     0.000011360444
       6        0.000529199256    -0.000793993769     0.000618806815
       7       -0.000006978969     0.000002829700    -0.000007868445
       8        0.000006880121    -0.000006615970     0.000005255116
       9        0.000004167331    -0.000002056849     0.000001806267
      10       -0.000013665441     0.000014434557     0.000003711689
      11       -0.000016212347     0.000003273183    -0.000015331461
      12        0.000008165222     0.000002612801     0.000000888317
      13        0.000002538396    -0.000000821377     0.000002832586
      14       -0.000003496232    -0.000002869866     0.000002686830

  **** Optimization is complete! (in 7 steps) ****
    Final optimized geometry and variables:
    Molecular point group: c1

    Geometry (in Angstrom), charge = 0, multiplicity = 1:

    O            0.137802198399     1.148279533073     0.550507365534
    C            0.042668764718     0.049181594524     0.106825147789
    C           -1.218240327645    -0.781863038750     0.114219575589
    O            1.058057318306    -0.603240935568    -0.441719401615
    C           -2.485459326116     0.065660903459     0.152996417577
    H           -1.199379870316    -1.450458072487    -0.737698442199
    H           -1.161155007306    -1.416154893625     0.996235342871
    H           -2.570934860498     0.681887916893    -0.735306057420
    H           -3.361097639554    -0.572140490406     0.206169928662
    H           -2.484082922933     0.722235079107     1.013249905638
    C            2.310321241698     0.058219720014    -0.462088450348
    H            2.244849841722     0.976471529222    -1.027552797234
    H            2.997222009159    -0.625369458726    -0.936126986717
    H            2.638088478088     0.282257398045     0.542849402514

  Mulliken Charges: (a.u.)
   Center  Symbol    Alpha    Beta     Spin     Total
       1     O     4.28577  4.28577  0.00000 -0.57153
       2     C     2.60660  2.60660  0.00000  0.78680
       3     C     3.20664  3.20664  0.00000 -0.41327
       4     O     4.30556  4.30556  0.00000 -0.61112
       5     C     3.24174  3.24174  0.00000 -0.48349
       6     H     0.40012  0.40012  0.00000  0.19976
       7     H     0.39987  0.39987  0.00000  0.20025
       8     H     0.41426  0.41426  0.00000  0.17148
       9     H     0.41684  0.41684  0.00000  0.16632
      10     H     0.40401  0.40401  0.00000  0.19199
      11     C     3.09293  3.09293  0.00000 -0.18586
      12     H     0.40831  0.40831  0.00000  0.18338
      13     H     0.40831  0.40831  0.00000  0.18337
      14     H     0.40904  0.40904  0.00000  0.18192

   Total alpha = 24.00000, Total beta = 24.00000, Total charge = -0.00000
