  ==> Input File <==

--------------------------------------------------------------------------
set {
	reference rhf
	basis 6-31G*
}

set_num_threads( 1 )
memory 2 gb

molecule MOL {
0 1

H	 -2.646374	 -0.642757	 1.268656
C	 -2.083525	 -0.384536	 0.393091
O	 -0.807605	 -0.127164	 0.768327
F	 -2.118945	 -1.383102	 -0.486752
F	 -2.621877	 0.670592	 -0.209486
C	 -0.491403	 -0.254093	 2.108697
C	 0.304264	 0.985318	 2.497202
Cl	 0.458508	 -1.720975	 2.397039
H	 -1.366371	 -0.303838	 2.732981
F	 0.631239	 0.940806	 3.771269
F	 -0.448312	 2.050239	 2.304820
F	 1.397006	 1.115043	 1.785121

	symmetry c1
}
set optking {
	frozen_dihedral = ("
		10 7 6 9,
		9 6 3 2
	")
}

ee = energy('scf')
oeprop('DIPOLE', 'QUADRUPOLE', 'MULLIKEN_CHARGES')
f=open( 'psi4out.xyz', 'w' )
f.write( "12  " )
f.write( str(ee) + "\n" )
f.write( MOL.save_string_xyz() )
f.close()
--------------------------------------------------------------------------

    Molecular point group: c1

    Geometry (in Angstrom), charge = 0, multiplicity = 1:

       Center              X                  Y                   Z               Mass
    ------------   -----------------  -----------------  -----------------  -----------------
           H         -2.166799376534    -0.672459059767    -0.341674907893     1.007825032070
           C         -1.603950376534    -0.414238059767    -1.217239907893    12.000000000000
           O         -0.328030376534    -0.156866059767    -0.842003907893    15.994914619560
           F         -1.639370376534    -1.412804059767    -2.097082907893    18.998403224000
           F         -2.142302376534     0.640889940233    -1.819816907893    18.998403224000
           C         -0.011828376534    -0.283795059767     0.498366092107    12.000000000000
           C          0.783838623466     0.955615940233     0.886871092107    12.000000000000
          CL          0.938082623466    -1.750677059767     0.786708092107    34.968852682000
           H         -0.886796376534    -0.333540059767     1.122650092107     1.007825032070
           F          1.110813623466     0.911103940233     2.160938092107    18.998403224000
           F          0.031262623466     2.020536940233     0.694489092107    18.998403224000
           F          1.876580623466     1.085340940233     0.174790092107    18.998403224000

  Charge       = 0
  Multiplicity = 1
  Basis Set: 6-31G*
  Basis Set:

    Orbital Energies (a.u.)
    -----------------------

    Doubly Occupied:

       1A   -104.853100     2A    -26.366494     3A    -26.365161
       4A    -26.362213     5A    -26.341201     6A    -26.338322
       7A    -20.653445     8A    -11.534364     9A    -11.491170
      10A    -11.413422    11A    -10.587818    12A     -8.057160
      13A     -8.053614    14A     -8.053515    15A     -1.766872
      16A     -1.708715    17A     -1.663551    18A     -1.661684
      19A     -1.630164    20A     -1.492699    21A     -1.187516
      22A     -1.056537    23A     -0.984687    24A     -0.935974
      25A     -0.861406    26A     -0.859613    27A     -0.850694
      28A     -0.821553    29A     -0.806085    30A     -0.793598
      31A     -0.732695    32A     -0.729281    33A     -0.696875
      34A     -0.691215    35A     -0.683294    36A     -0.679034
      37A     -0.663521    38A     -0.656971    39A     -0.652726
      40A     -0.641043    41A     -0.614801    42A     -0.566123
      43A     -0.528055    44A     -0.485894    45A     -0.478879

  @DF-RHF Final Energy: -1146.30539379531592

   => Energetics <=

    Nuclear Repulsion Energy =            724.6936740287789007
    One-Electron Energy =               -3031.8926278357903357
    Two-Electron Energy =                1160.8935600116951719
    DFT Exchange-Correlation Energy =       0.0000000000000000
    Empirical Dispersion Energy =           0.0000000000000000
    PCM Polarization Energy =               0.0000000000000000
    EFP Energy =                            0.0000000000000000
    Total Energy =                      -1146.3053937953163768

  Mulliken Charges: (a.u.)
   Center  Symbol    Alpha    Beta     Spin     Total
       1     H     0.42906  0.42906  0.00000  0.14189
       2     C     2.56175  2.56175  0.00000  0.87650
       3     O     4.29480  4.29480  0.00000 -0.58961
       4     F     4.67646  4.67646  0.00000 -0.35291
       5     F     4.67538  4.67538  0.00000 -0.35077
       6     C     3.04522  3.04522  0.00000 -0.09043
       7     C     2.42963  2.42963  0.00000  1.14073
       8    CL     8.49502  8.49502  0.00000  0.00996
       9     H     0.37657  0.37657  0.00000  0.24686
      10     F     4.67369  4.67369  0.00000 -0.34738
      11     F     4.67577  4.67577  0.00000 -0.35155
      12     F     4.66665  4.66665  0.00000 -0.33330

   Total alpha = 45.00000, Total beta = 45.00000, Total charge = -0.00000
