                              Psi4 1.0.54 Driver

  ==> Input File <==

--------------------------------------------------------------------------
set {
	reference rhf
	basis cc-pvtz
}

set_num_threads( 4 )
memory 2 gb

molecule MOL {
0 1

H	 -0.000342	 -0.223902	 -3.352295
C	 -0.027146	 0.371068	 -2.446756
C	 0.024493	 -0.518541	 -1.216015
H	 -0.932586	 0.964979	 -2.449855
H	 0.819708	 1.049865	 -2.473332
N	 -0.042516	 0.263377	 0.000000
H	 -0.822211	 -1.197105	 -1.225584
H	 0.921114	 -1.142847	 -1.255206
C	 0.024493	 -0.518541	 1.216015
H	 0.682568	 0.950412	 0.000000
C	 -0.741195	 0.151192	 2.344720
H	 -0.409952	 -1.491985	 1.013253
H	 1.055068	 -0.700099	 1.532519
H	 -1.777620	 0.297907	 2.067482
H	 -0.705604	 -0.452383	 3.244242
H	 -0.316548	 1.121725	 2.582153

	symmetry c1
}
set optking {
	frozen_dihedral = ("
		12 9 6 3
	")
}

ee,wfn = optimize('scf', return_wfn=True)
oeprop( wfn, 'DIPOLE', 'QUADRUPOLE', 'MULLIKEN_CHARGES')
f=open( 'psi4out.xyz', 'w' )
f.write( "16  " )
f.write( str(ee) + "\n" )
f.write( MOL.save_string_xyz() )
f.close()
--------------------------------------------------------------------------

    Molecular point group: c1
  Charge       = 0
  Multiplicity = 1
  Basis Set: CC-PVTZ
  Basis Set:
  @DF-RHF Final Energy:  -212.39205671026829
    Total Energy =                       -212.3920567102682639
    Molecular point group: c1
  Basis Set: CC-PVTZ
  Basis Set:
  Basis Set: CC-PVTZ
  Basis Set:
  @DF-RHF Final Energy:  -212.39230474647761
    Total Energy =                       -212.3923047464777483
  Basis Set: CC-PVTZ
  Basis Set:
  Basis Set: CC-PVTZ
  Basis Set:
  @DF-RHF Final Energy:  -212.39235386143511
    Total Energy =                       -212.3923538614350264
  Basis Set: CC-PVTZ
  Basis Set:
  Basis Set: CC-PVTZ
  Basis Set:
  @DF-RHF Final Energy:  -212.39235648767871
    Total Energy =                       -212.3923564876787964
  Basis Set: CC-PVTZ
  Basis Set:
  Charge       = 0
  Multiplicity = 1
  Basis Set: CC-PVTZ
  Basis Set:

    Orbital Energies (a.u.)
    -----------------------

    Doubly Occupied:

       1A    -15.526932     2A    -11.239681     3A    -11.239072
       4A    -11.206607     5A    -11.202416     6A     -1.204642
       7A     -1.027864     8A     -0.963815     9A     -0.833855
      10A     -0.819708    11A     -0.664125    12A     -0.628074
      13A     -0.604286    14A     -0.575623    15A     -0.557911
      16A     -0.523286    17A     -0.507258    18A     -0.489411
      19A     -0.482643    20A     -0.475122    21A     -0.357100

  @DF-RHF Final Energy:  -212.39235673036970

   => Energetics <=

    Nuclear Repulsion Energy =            189.2676187382571982
    One-Electron Energy =                -661.0610890950690646
    Two-Electron Energy =                 259.4011136264422817
    DFT Exchange-Correlation Energy =       0.0000000000000000
    Empirical Dispersion Energy =           0.0000000000000000
    PCM Polarization Energy =               0.0000000000000000
    EFP Energy =                            0.0000000000000000
    Total Energy =                       -212.3923567303696132
    Molecular point group: c1
  Basis Set: CC-PVTZ
  Basis Set:

  -Total Gradient:
     Atom            X                  Y                   Z
    ------   -----------------  -----------------  -----------------
       1        0.000000230856     0.000005917928    -0.000003727934
       2        0.000007365219    -0.000008409009    -0.000004924044
       3       -0.002758763752    -0.000249451941    -0.000011064578
       4       -0.000000825795    -0.000008897761     0.000005105489
       5        0.000004735821    -0.000001310128     0.000001454468
       6        0.004655188577     0.000077924588    -0.000198413209
       7       -0.000000366159    -0.000006671966    -0.000009964756
       8       -0.000005981070     0.000014252809    -0.000001922611
       9       -0.005068903899     0.001397367400     0.001143272845
      10        0.000005486613     0.000003769942     0.000010399624
      11        0.000006663810    -0.000025932769    -0.000009505504
      12        0.003136498713    -0.001206346192    -0.000926695870
      13        0.000018513146     0.000001089743     0.000000102639
      14        0.000007325070    -0.000000198236     0.000004330490
      15       -0.000010331671     0.000012469501     0.000007815547
      16        0.000003164521    -0.000005573909    -0.000006262597

  **** Optimization is complete! (in 5 steps) ****
    Final optimized geometry and variables:
    Molecular point group: c1

    Geometry (in Angstrom), charge = 0, multiplicity = 1:

    H            0.155557922843    -0.128422894215    -3.340987640086
    C            0.129333411650     0.447484838824    -2.423225676047
    C            0.173202949925    -0.468384024866    -1.211607623493
    H           -0.773346474429     1.045733106651    -2.415565839765
    H            0.979760082367     1.122251346946    -2.433547483492
    N            0.096417814315     0.290637404281     0.017497009213
    H           -0.674257979888    -1.144551971957    -1.241068226220
    H            1.070090642901    -1.091922349451    -1.264039628603
    C            0.154880764353    -0.488972411614     1.239583911093
    H            0.782375071052     1.014260431155     0.027690991564
    C           -0.582462678250     0.190551940119     2.381436718851
    H           -0.274804547482    -1.463882329093     1.039500602982
    H            1.185080922407    -0.687901831114     1.542305534713
    H           -1.625531534509     0.333530193397     2.128503825177
    H           -0.521090582800    -0.400789423233     3.288898109825
    H           -0.154600437513     1.165562282388     2.589665269801

  Mulliken Charges: (a.u.)
   Center  Symbol    Alpha    Beta     Spin     Total
       1     H     0.45400  0.45400  0.00000  0.09201
       2     C     3.14346  3.14346  0.00000 -0.28691
       3     C     3.02007  3.02007  0.00000 -0.04013
       4     H     0.44967  0.44967  0.00000  0.10065
       5     H     0.45935  0.45935  0.00000  0.08130
       6     N     3.64226  3.64226  0.00000 -0.28451
       7     H     0.45911  0.45911  0.00000  0.08179
       8     H     0.47484  0.47484  0.00000  0.05031
       9     C     3.03107  3.03107  0.00000 -0.06214
      10     H     0.44166  0.44166  0.00000  0.11668
      11     C     3.13280  3.13280  0.00000 -0.26561
      12     H     0.45713  0.45713  0.00000  0.08574
      13     H     0.46545  0.46545  0.00000  0.06911
      14     H     0.45275  0.45275  0.00000  0.09451
      15     H     0.45813  0.45813  0.00000  0.08373
      16     H     0.45826  0.45826  0.00000  0.08349

   Total alpha = 21.00000, Total beta = 21.00000, Total charge =  0.00000

*** Psi4 exiting successfully. Buy a developer a beer!
