                              Psi4 1.0.54 Driver

  ==> Input File <==

--------------------------------------------------------------------------
set {
	reference rhf
	basis cc-pvtz
}

set_num_threads( 4 )
memory 2 gb

molecule MOL {
0 1

H	 -2.816458	 -0.841657	 -0.064679
N	 -1.878861	 -0.711874	 0.250184
C	 -1.341419	 0.551458	 -0.220231
H	 -1.333674	 -1.468530	 -0.105118
C	 0.082190	 0.731516	 0.254705
H	 -1.357065	 0.652078	 -1.304747
H	 -1.939897	 1.357530	 0.189797
O	 0.881195	 -0.248324	 -0.336237
H	 0.440901	 1.722476	 -0.020063
H	 0.119896	 0.643586	 1.338114
C	 0.651740	 -1.536708	 0.129207
H	 1.323209	 -2.203199	 -0.392620
H	 0.843646	 -1.613739	 1.197351
H	 -0.371819	 -1.851614	 -0.059802

	symmetry c1
}
set optking {
	frozen_dihedral = ("
		11 8 5 3
	")
}

ee,wfn = optimize('scf', return_wfn=True)
oeprop( wfn, 'DIPOLE', 'QUADRUPOLE', 'MULLIKEN_CHARGES')
f=open( 'psi4out.xyz', 'w' )
f.write( "14  " )
f.write( str(ee) + "\n" )
f.write( MOL.save_string_xyz() )
f.close()
--------------------------------------------------------------------------

    Molecular point group: c1
  Charge       = 0
  Multiplicity = 1
  Basis Set: CC-PVTZ
  Basis Set:
  @DF-RHF Final Energy:  -248.16814816482466
    Total Energy =                       -248.1681481648246859
    Molecular point group: c1
  Basis Set: CC-PVTZ
  Basis Set:
  Basis Set: CC-PVTZ
  Basis Set:
  @DF-RHF Final Energy:  -248.20513891812467
    Total Energy =                       -248.2051389181247032
  Basis Set: CC-PVTZ
  Basis Set:
  Basis Set: CC-PVTZ
  Basis Set:
  @DF-RHF Final Energy:  -248.21394970321401
    Total Energy =                       -248.2139497032139275
  Basis Set: CC-PVTZ
  Basis Set:
  Basis Set: CC-PVTZ
  Basis Set:
  @DF-RHF Final Energy:  -248.21609299899555
    Total Energy =                       -248.2160929989953502
  Basis Set: CC-PVTZ
  Basis Set:
  @DF-RHF Final Energy:  -248.21755385844742
    Total Energy =                       -248.2175538584472179
  @DF-RHF Final Energy:  -248.21807277447530
    Total Energy =                       -248.2180727744752744
  @DF-RHF Final Energy:  -248.21833957626970
    Total Energy =                       -248.2183395762697273
  @DF-RHF Final Energy:  -248.21847100164905
    Total Energy =                       -248.2184710016489362
  Basis Set: CC-PVTZ
  Basis Set:
  @DF-RHF Final Energy:  -248.21848040112110
    Total Energy =                       -248.2184804011211554
  Basis Set: CC-PVTZ
  Basis Set:
  Basis Set: CC-PVTZ
  Basis Set:
  @DF-RHF Final Energy:  -248.21848222383881
    Total Energy =                       -248.2184822238388051
  Basis Set: CC-PVTZ
  Basis Set:
  Basis Set: CC-PVTZ
  Basis Set:
  @DF-RHF Final Energy:  -248.21848336254044
    Total Energy =                       -248.2184833625404394
  Basis Set: CC-PVTZ
  Basis Set:
  Charge       = 0
  Multiplicity = 1
  Basis Set: CC-PVTZ
  Basis Set:

    Orbital Energies (a.u.)
    -----------------------

    Doubly Occupied:

       1A    -20.545223     2A    -15.533602     3A    -11.262065
       4A    -11.261571     5A    -11.244128     6A     -1.376890
       7A     -1.182324     8A     -1.002095     9A     -0.914185
      10A     -0.811891    11A     -0.689920    12A     -0.671749
      13A     -0.642584    14A     -0.622686    15A     -0.599806
      16A     -0.545849    17A     -0.538415    18A     -0.508555
      19A     -0.461895    20A     -0.417067    21A     -0.388054

  @DF-RHF Final Energy:  -248.21848367482966

   => Energetics <=

    Nuclear Repulsion Energy =            196.5104541637066973
    One-Electron Energy =                -727.0167637883278076
    Two-Electron Energy =                 282.2878259497915110
    DFT Exchange-Correlation Energy =       0.0000000000000000
    Empirical Dispersion Energy =           0.0000000000000000
    PCM Polarization Energy =               0.0000000000000000
    EFP Energy =                            0.0000000000000000
    Total Energy =                       -248.2184836748295425
    Molecular point group: c1
  Basis Set: CC-PVTZ
  Basis Set:

  -Total Gradient:
     Atom            X                  Y                   Z
    ------   -----------------  -----------------  -----------------
       1       -0.000005556268     0.000000881447     0.000004438538
       2       -0.000008299751    -0.000019556611    -0.000004352702
       3       -0.000204981585    -0.000778494821     0.000954542664
       4        0.000001006770    -0.000004796224     0.000005937209
       5       -0.000120938386     0.001085709491    -0.001886529931
       6        0.000006083317    -0.000005052340     0.000003554656
       7       -0.000005358846     0.000001520248    -0.000009377294
       8        0.001198075100    -0.000055296991     0.002010838303
       9        0.000012800364    -0.000008323143     0.000002467283
      10       -0.000001325158    -0.000008445368    -0.000005750883
      11       -0.000861751994    -0.000164929318    -0.001070854185
      12       -0.000002170488    -0.000015051962    -0.000002877975
      13       -0.000001813080    -0.000010294357     0.000002927388
      14       -0.000005769992    -0.000017870052    -0.000004963072

  **** Optimization is complete! (in 12 steps) ****
    Final optimized geometry and variables:
    Molecular point group: c1

    Geometry (in Angstrom), charge = 0, multiplicity = 1:

    H           -2.769645977823    -0.212509366725     0.320201780638
    N           -1.783661002235    -0.316689591176     0.428096750422
    C           -1.077486739164     0.747318314264    -0.272377536681
    H           -1.547043814299    -1.217907076286     0.075484910148
    C            0.363428161911     0.933882098599     0.185072898914
    H           -1.085894124615     0.633232331571    -1.355480501213
    H           -1.594634172427     1.673808908103    -0.048457872838
    O            1.298893526724     0.053723890480    -0.365228127523
    H            0.692843858518     1.918298011996    -0.120653822561
    H            0.395216785646     0.886049266483     1.271166297479
    C            1.245816460881    -1.278067207313     0.029949124009
    H            2.201633363406    -1.725389380662    -0.204871375655
    H            1.065934241111    -1.375311997309     1.096778542213
    H            0.478467691017    -1.832749734607    -0.502936457619

  Mulliken Charges: (a.u.)
   Center  Symbol    Alpha    Beta     Spin     Total
       1     H     0.42785  0.42785  0.00000  0.14430
       2     N     3.69177  3.69177  0.00000 -0.38355
       3     C     3.04020  3.04020  0.00000 -0.08039
       4     H     0.42812  0.42812  0.00000  0.14377
       5     C     2.97821  2.97821  0.00000  0.04357
       6     H     0.46012  0.46012  0.00000  0.07975
       7     H     0.45524  0.45524  0.00000  0.08953
       8     O     4.17928  4.17928  0.00000 -0.35856
       9     H     0.45062  0.45062  0.00000  0.09876
      10     H     0.46676  0.46676  0.00000  0.06647
      11     C     3.03520  3.03520  0.00000 -0.07040
      12     H     0.44423  0.44423  0.00000  0.11153
      13     H     0.46547  0.46547  0.00000  0.06906
      14     H     0.47692  0.47692  0.00000  0.04616

   Total alpha = 21.00000, Total beta = 21.00000, Total charge = -0.00000

*** Psi4 exiting successfully. Buy a developer a beer!
