                              Psi4 1.0.54 Driver

  ==> Input File <==

--------------------------------------------------------------------------
set {
	reference rhf
	basis cc-pvtz
}

set_num_threads( 4 )
memory 2 gb

molecule MOL {
0 1

H	 -3.642953	 0.223825	 0.000000
C	 -2.571844	 0.155001	 0.000000
C	 -1.957580	 -1.086132	 0.000000
C	 -1.807160	 1.303787	 0.000000
H	 -2.551493	 -1.979629	 0.000000
C	 -0.582719	 -1.174294	 0.000000
H	 -2.279934	 2.266806	 0.000000
C	 -0.427220	 1.213406	 0.000000
H	 -0.094904	 -2.127556	 0.000000
C	 0.196908	 -0.024061	 0.000000
H	 0.151409	 2.115254	 0.000000
C	 1.690041	 -0.173233	 0.000000
C	 2.534557	 0.892191	 -0.660547
O	 2.202866	 -1.116500	 0.512464
H	 2.283175	 0.984904	 -1.710400
H	 3.572491	 0.617024	 -0.562038
H	 2.370216	 1.856135	 -0.193872

	symmetry c1
}
set optking {
	frozen_dihedral = ("
		13 12 10 8
	")
}

ee,wfn = optimize('scf', return_wfn=True)
oeprop( wfn, 'DIPOLE', 'QUADRUPOLE', 'MULLIKEN_CHARGES')
f=open( 'psi4out.xyz', 'w' )
f.write( "17  " )
f.write( str(ee) + "\n" )
f.write( MOL.save_string_xyz() )
f.close()
--------------------------------------------------------------------------

    Molecular point group: c1
  Charge       = 0
  Multiplicity = 1
  Basis Set: CC-PVTZ
  Basis Set:
  @DF-RHF Final Energy:  -382.60371678252216
    Total Energy =                       -382.6037167825219285
    Molecular point group: c1
  Basis Set: CC-PVTZ
  Basis Set:
  Basis Set: CC-PVTZ
  Basis Set:
  @DF-RHF Final Energy:  -382.60116586727008
    Total Energy =                       -382.6011658672700833
  Basis Set: CC-PVTZ
  Basis Set:
  Basis Set: CC-PVTZ
  Basis Set:
  @DF-RHF Final Energy:  -382.60402021014647
    Total Energy =                       -382.6040202101459045
  Basis Set: CC-PVTZ
  Basis Set:
  Basis Set: CC-PVTZ
  Basis Set:
  @DF-RHF Final Energy:  -382.60414071023712
    Total Energy =                       -382.6041407102372887
  Basis Set: CC-PVTZ
  Basis Set:
  Basis Set: CC-PVTZ
  Basis Set:
  @DF-RHF Final Energy:  -382.60415017267979
    Total Energy =                       -382.6041501726797378
  Basis Set: CC-PVTZ
  Basis Set:
  Basis Set: CC-PVTZ
  Basis Set:
  @DF-RHF Final Energy:  -382.60417123881990
    Total Energy =                       -382.6041712388199585
  Basis Set: CC-PVTZ
  Basis Set:
  Basis Set: CC-PVTZ
  Basis Set:
  @DF-RHF Final Energy:  -382.60417511316547
    Total Energy =                       -382.6041751131654109
  Basis Set: CC-PVTZ
  Basis Set:
  Charge       = 0
  Multiplicity = 1
  Basis Set: CC-PVTZ
  Basis Set:

    Orbital Energies (a.u.)
    -----------------------

    Doubly Occupied:

       1A    -20.541754     2A    -11.328132     3A    -11.246276
       4A    -11.243222     5A    -11.243158     6A    -11.239387
       7A    -11.239015     8A    -11.236936     9A    -11.229349
      10A     -1.402858    11A     -1.171184    12A     -1.053407
      13A     -1.030569    14A     -0.999307    15A     -0.864229
      16A     -0.839522    17A     -0.763931    18A     -0.711657
      19A     -0.660170    20A     -0.651767    21A     -0.627887
      22A     -0.615824    23A     -0.602999    24A     -0.596142
      25A     -0.557889    26A     -0.530640    27A     -0.519341
      28A     -0.504605    29A     -0.497084    30A     -0.414573
      31A     -0.350340    32A     -0.346825

  @DF-RHF Final Energy:  -382.60417616184810

   => Energetics <=

    Nuclear Repulsion Energy =            404.3617992326292665
    One-Electron Energy =               -1320.2119929282416706
    Two-Electron Energy =                 533.2460175337644159
    DFT Exchange-Correlation Energy =       0.0000000000000000
    Empirical Dispersion Energy =           0.0000000000000000
    PCM Polarization Energy =               0.0000000000000000
    EFP Energy =                            0.0000000000000000
    Total Energy =                       -382.6041761618480450
    Molecular point group: c1
  Basis Set: CC-PVTZ
  Basis Set:

  -Total Gradient:
     Atom            X                  Y                   Z
    ------   -----------------  -----------------  -----------------
       1       -0.000000331307    -0.000000377417    -0.000007928545
       2       -0.000000753321     0.000010541571     0.000016683969
       3       -0.000001991361    -0.000003669777     0.000007923484
       4       -0.000016196660    -0.000011095738    -0.000003775278
       5        0.000000737044     0.000000009921    -0.000001736648
       6        0.000020551739     0.000000139093    -0.000021051933
       7        0.000001542972     0.000001320246    -0.000001783344
       8       -0.000041653309    -0.000003413801     0.002811338061
       9       -0.000000989710    -0.000005188613     0.000005228960
      10        0.000023204265    -0.000567019615    -0.005233888025
      11       -0.000007091648     0.000000816605    -0.000000526870
      12        0.000132102677     0.001830965584     0.004591803967
      13       -0.000082787142    -0.001232272537    -0.002176812173
      14       -0.000023060955    -0.000016476647     0.000001495094
      15       -0.000000097220    -0.000004081714     0.000004090646
      16        0.000002694024    -0.000000716605    -0.000001439342
      17       -0.000005880084     0.000000519441     0.000010377977

  **** Optimization is complete! (in 8 steps) ****
    Final optimized geometry and variables:
    Molecular point group: c1

    Geometry (in Angstrom), charge = 0, multiplicity = 1:

    H           -3.640752086055     0.222487612947     0.034001852260
    C           -2.569599202299     0.155374267180     0.025004669418
    C           -1.953354157252    -1.084181313014     0.042583068300
    C           -1.806376818576     1.305309407049    -0.000607230121
    H           -2.545653497959    -1.978544260391     0.065250323738
    C           -0.577545936291    -1.170275241600     0.041266252816
    H           -2.280651387480     2.267690819708    -0.004213927417
    C           -0.426557656310     1.217325311351    -0.021930378757
    H           -0.089522295130    -2.123369920796     0.076942508231
    C            0.197537000704    -0.019407866697    -0.005798514928
    H            0.153459222780     2.118806218275    -0.045711001384
    C            1.691291780520    -0.160857694133     0.031004576659
    C            2.535447430360     0.915118178717    -0.612891850221
    O            2.193831927611    -1.124258482605     0.513358143170
    H            2.195638174600     1.109080330792    -1.622822858699
    H            3.563992992118     0.590239084673    -0.623182151472
    H            2.464624831925     1.843477625001    -0.057911377774

  Mulliken Charges: (a.u.)
   Center  Symbol    Alpha    Beta     Spin     Total
       1     H     0.42053  0.42053  0.00000  0.15895
       2     C     3.07563  3.07563  0.00000 -0.15125
       3     C     3.07090  3.07090  0.00000 -0.14180
       4     C     3.07265  3.07265  0.00000 -0.14530
       5     H     0.42054  0.42054  0.00000  0.15893
       6     C     3.08066  3.08066  0.00000 -0.16132
       7     H     0.42195  0.42195  0.00000  0.15609
       8     C     3.08810  3.08810  0.00000 -0.17621
       9     H     0.41021  0.41021  0.00000  0.17958
      10     C     2.99758  2.99758  0.00000  0.00484
      11     H     0.42277  0.42277  0.00000  0.15446
      12     C     2.85076  2.85076  0.00000  0.29848
      13     C     3.16220  3.16220  0.00000 -0.32439
      14     O     4.17810  4.17810  0.00000 -0.35620
      15     H     0.44448  0.44448  0.00000  0.11103
      16     H     0.43282  0.43282  0.00000  0.13437
      17     H     0.45012  0.45012  0.00000  0.09975

   Total alpha = 32.00000, Total beta = 32.00000, Total charge = -0.00000

*** Psi4 exiting successfully. Buy a developer a beer!
