  ==> Input File <==

--------------------------------------------------------------------------
set {
	reference rhf
	basis 6-31G*
}

set_num_threads( 4 )
memory 2 gb

molecule MOL {
0 1

H	 -4.236494	 0.538104	 0.039757
O	 -3.517110	 -0.026191	 -0.205115
C	 -2.306886	 0.532354	 0.237577
C	 -1.177863	 -0.397191	 -0.171080
H	 -2.156308	 1.517575	 -0.201710
H	 -2.315015	 0.655684	 1.319734
C	 0.198102	 0.111031	 0.262842
H	 -1.208843	 -0.518759	 -1.250427
H	 -1.368741	 -1.376554	 0.258909
C	 1.331804	 -0.827780	 -0.158768
H	 0.361943	 1.100838	 -0.156218
H	 0.217265	 0.229072	 1.345532
C	 2.723619	 -0.410569	 0.329459
H	 1.342964	 -0.912588	 -1.244120
H	 1.116806	 -1.824343	 0.220779
C	 3.387866	 -1.405417	 1.283077
H	 2.637673	 0.549521	 0.832379
H	 3.371353	 -0.245435	 -0.529224
H	 2.756512	 -1.599634	 2.146043
H	 3.591778	 -2.356151	 0.801723
H	 4.333715	 -1.016676	 1.647775

	symmetry c1
}
set optking {
	frozen_dihedral = ("
		16 13 10 14
	")
}

ee = optimize('scf')
oeprop('DIPOLE', 'QUADRUPOLE', 'MULLIKEN_CHARGES')
f=open( 'psi4out.xyz', 'w' )
f.write( "21  " )
f.write( str(ee) + "\n" )
f.write( MOL.save_string_xyz() )
f.close()
--------------------------------------------------------------------------

    Molecular point group: c1
  Charge       = 0
  Multiplicity = 1
  Basis Set: 6-31G*
  Basis Set:
  @DF-RHF Final Energy:  -310.20834451535592
    Total Energy =                       -310.2083445153558614
    Molecular point group: c1
  Basis Set: 6-31G*
  Basis Set:
  Basis Set: 6-31G*
  Basis Set:
  @DF-RHF Final Energy:  -310.20874988302683
    Total Energy =                       -310.2087498830271102
  Basis Set: 6-31G*
  Basis Set:
  Basis Set: 6-31G*
  Basis Set:
  @DF-RHF Final Energy:  -310.20884450108264
    Total Energy =                       -310.2088445010826945
  Basis Set: 6-31G*
  Basis Set:
  Basis Set: 6-31G*
  Basis Set:
  @DF-RHF Final Energy:  -310.20884259853324
    Total Energy =                       -310.2088425985331241
  Basis Set: 6-31G*
  Basis Set:
  Basis Set: 6-31G*
  Basis Set:
  @DF-RHF Final Energy:  -310.20884635975472
    Total Energy =                       -310.2088463597546593
  Basis Set: 6-31G*
  Basis Set:
  Charge       = 0
  Multiplicity = 1
  Basis Set: 6-31G*
  Basis Set:

    Orbital Energies (a.u.)
    -----------------------

    Doubly Occupied:

       1A    -20.551859     2A    -11.267132     3A    -11.216526
       4A    -11.214443     5A    -11.212997     6A    -11.210479
       7A    -11.208432     8A     -1.358682     9A     -1.084725
      10A     -1.033186    11A     -0.956216    12A     -0.868081
      13A     -0.803808    14A     -0.789369    15A     -0.692419
      16A     -0.661429    17A     -0.623053    18A     -0.603016
      19A     -0.585789    20A     -0.564029    21A     -0.541438
      22A     -0.522145    23A     -0.506748    24A     -0.486491
      25A     -0.478048    26A     -0.463210    27A     -0.454285
      28A     -0.441612    29A     -0.434003

  @DF-RHF Final Energy:  -310.20884648397077

   => Energetics <=

    Nuclear Repulsion Energy =            309.7963499566113796
    One-Electron Energy =               -1034.3430895807289289
    Two-Electron Energy =                 414.3378931401467185
    DFT Exchange-Correlation Energy =       0.0000000000000000
    Empirical Dispersion Energy =           0.0000000000000000
    PCM Polarization Energy =               0.0000000000000000
    EFP Energy =                            0.0000000000000000
    Total Energy =                       -310.2088464839708308
    Molecular point group: c1
  Basis Set: 6-31G*
  Basis Set:

  -Total Gradient:
     Atom            X                  Y                   Z
    ------   -----------------  -----------------  -----------------
       1        0.000000997661     0.000000343469     0.000000660337
       2        0.000000808118    -0.000002683563     0.000000124034
       3        0.000003903225     0.000004666191    -0.000005624743
       4        0.000017016341     0.000034596626    -0.000011498512
       5       -0.000001990351    -0.000000665643     0.000000243860
       6        0.000001972646    -0.000001092402     0.000000101720
       7       -0.000038042064     0.000023994994     0.000026496147
       8       -0.000013812847    -0.000001381521    -0.000007111126
       9        0.000012138645     0.000000445329     0.000000948256
      10       -0.000037743184     0.000414437806    -0.000060733591
      11       -0.000008717065    -0.000012308578     0.000005420841
      12       -0.000003678702    -0.000012790934     0.000000663852
      13       -0.000174068466     0.000039106819     0.000265552070
      14        0.000143811905    -0.000309577273     0.000001389540
      15        0.000088988839     0.000027556772     0.000041059312
      16        0.000118441873    -0.000172435393    -0.000190725621
      17       -0.000101739209    -0.000025286924    -0.000031709290
      18       -0.000012765028    -0.000015504638    -0.000043243953
      19        0.000001524811     0.000019469164    -0.000001832504
      20        0.000008260104     0.000006723496     0.000014354731
      21       -0.000005307245    -0.000017613801    -0.000004535360

  **** Optimization is complete! (in 6 steps) ****
    Final optimized geometry and variables:
    Molecular point group: c1

    Geometry (in Angstrom), charge = 0, multiplicity = 1:

    H           -4.252823525505     0.904687031480    -0.206249732617
    O           -3.537893702233     0.337848324670    -0.458221280334
    C           -2.325781323464     0.868928555704     0.012255176920
    C           -1.203887545515    -0.063588006484    -0.409191885874
    H           -2.158102629951     1.863519666227    -0.398777704802
    H           -2.344347450548     0.963346166733     1.097171455922
    C            0.172887760714     0.415500209717     0.051093194024
    H           -1.225450226647    -0.157092966534    -1.491580554435
    H           -1.410817730386    -1.051412733865    -0.006580414651
    C            1.306294217697    -0.521508899572    -0.373998348821
    H            0.365090997991     1.410542321328    -0.347143716055
    H            0.181544916759     0.514674934676     1.135797164651
    C            2.701932665322    -0.057936830143     0.101213739304
    H            1.295381648515    -0.619729931210    -1.456299915365
    H            1.101058895230    -1.516361415820     0.014625184427
    C            3.378183566040    -1.043788108958     1.054875665342
    H            2.617394604140     0.907183427610     0.594310876536
    H            3.349903495288     0.103075004403    -0.755588313530
    H            2.773714786674    -1.205260924060     1.943382927553
    H            3.527110279954    -2.008596808915     0.578581325123
    H            4.349176159493    -0.679246391126     1.376330926018

  Mulliken Charges: (a.u.)
   Center  Symbol    Alpha    Beta     Spin     Total
       1     H     0.28118  0.28118  0.00000  0.43765
       2     O     4.37174  4.37174  0.00000 -0.74348
       3     C     2.98977  2.98977  0.00000  0.02046
       4     C     3.15994  3.15994  0.00000 -0.31989
       5     H     0.43283  0.43283  0.00000  0.13435
       6     H     0.43287  0.43287  0.00000  0.13426
       7     C     3.16192  3.16192  0.00000 -0.32384
       8     H     0.41476  0.41476  0.00000  0.17048
       9     H     0.41470  0.41470  0.00000  0.17061
      10     C     3.15445  3.15445  0.00000 -0.30891
      11     H     0.42303  0.42303  0.00000  0.15394
      12     H     0.42361  0.42361  0.00000  0.15278
      13     C     3.15540  3.15540  0.00000 -0.31080
      14     H     0.41974  0.41974  0.00000  0.16052
      15     H     0.41975  0.41975  0.00000  0.16051
      16     C     3.23971  3.23971  0.00000 -0.47943
      17     H     0.42062  0.42062  0.00000  0.15876
      18     H     0.41997  0.41997  0.00000  0.16005
      19     H     0.42228  0.42228  0.00000  0.15544
      20     H     0.42102  0.42102  0.00000  0.15795
      21     H     0.42071  0.42071  0.00000  0.15859

   Total alpha = 29.00000, Total beta = 29.00000, Total charge =  0.00000
