  ==> Input File <==

--------------------------------------------------------------------------
set {
	reference rhf
	basis 6-31G*
}

set_num_threads( 4 )
memory 2 gb

molecule MOL {
0 1

O	 0.391030	 1.298905	 0.000133
C	 0.503002	 0.111612	 0.000005
C	 -0.702327	 -0.811998	 -0.000075
C	 1.863306	 -0.554493	 0.000030
C	 -0.942510	 -1.502284	 -1.337224
H	 -0.562321	 -1.543757	 0.793460
H	 -1.571430	 -0.226822	 0.294873
H	 -0.088862	 -2.105360	 -1.621484
H	 -1.813113	 -2.147155	 -1.278495
H	 -1.106919	 -0.776750	 -2.124492
H	 1.974395	 -1.189404	 -0.874166
H	 2.638695	 0.198920	 -0.000196
H	 1.974487	 -1.188655	 0.874727

	symmetry c1
}
set optking {
	frozen_dihedral = ("
		6 3 2 1
	")
}

ee = optimize('scf')
oeprop('DIPOLE', 'QUADRUPOLE', 'MULLIKEN_CHARGES')
f=open( 'psi4out.xyz', 'w' )
f.write( "13  " )
f.write( str(ee) + "\n" )
f.write( MOL.save_string_xyz() )
f.close()
--------------------------------------------------------------------------

    Molecular point group: c1
  Charge       = 0
  Multiplicity = 1
  Basis Set: 6-31G*
  Basis Set:
  @DF-RHF Final Energy:  -230.99452117717053
    Total Energy =                       -230.9945211771704976
    Molecular point group: c1
  Basis Set: 6-31G*
  Basis Set:
  Basis Set: 6-31G*
  Basis Set:
  @DF-RHF Final Energy:  -230.99486799319109
    Total Energy =                       -230.9948679931911215
  Basis Set: 6-31G*
  Basis Set:
  Basis Set: 6-31G*
  Basis Set:
  @DF-RHF Final Energy:  -230.99502486659412
    Total Energy =                       -230.9950248665940649
  Basis Set: 6-31G*
  Basis Set:
  Basis Set: 6-31G*
  Basis Set:
  @DF-RHF Final Energy:  -230.99486232608598
    Total Energy =                       -230.9948623260859222
  Basis Set: 6-31G*
  Basis Set:
  Basis Set: 6-31G*
  Basis Set:
  @DF-RHF Final Energy:  -230.99504132526008
    Total Energy =                       -230.9950413252599901
  Basis Set: 6-31G*
  Basis Set:
  Basis Set: 6-31G*
  Basis Set:
  @DF-RHF Final Energy:  -230.99505319546466
    Total Energy =                       -230.9950531954647204
  Basis Set: 6-31G*
  Basis Set:
  Charge       = 0
  Multiplicity = 1
  Basis Set: 6-31G*
  Basis Set:

    Orbital Energies (a.u.)
    -----------------------

    Doubly Occupied:

       1A    -20.549661     2A    -11.325472     3A    -11.233269
       4A    -11.230473     5A    -11.228477     6A     -1.394722
       7A     -1.066967     8A     -0.995487     9A     -0.886789
      10A     -0.733820    11A     -0.654164    12A     -0.647002
      13A     -0.610715    14A     -0.594166    15A     -0.562212
      16A     -0.541099    17A     -0.529324    18A     -0.502732
      19A     -0.483153    20A     -0.400136

  @DF-RHF Final Energy:  -230.99505334721545

   => Energetics <=

    Nuclear Repulsion Energy =            176.7729467657869691
    One-Electron Energy =                -663.1963211958571947
    Two-Electron Energy =                 255.4283210828548079
    DFT Exchange-Correlation Energy =       0.0000000000000000
    Empirical Dispersion Energy =           0.0000000000000000
    PCM Polarization Energy =               0.0000000000000000
    EFP Energy =                            0.0000000000000000
    Total Energy =                       -230.9950533472154177
    Molecular point group: c1
  Basis Set: 6-31G*
  Basis Set:

  -Total Gradient:
     Atom            X                  Y                   Z
    ------   -----------------  -----------------  -----------------
       1        0.000006446508    -0.000003062696     0.000459339918
       2       -0.000045315583     0.000070830549    -0.000583011371
       3        0.000263358344    -0.000365714309    -0.000174215855
       4       -0.000016201401     0.000009543955     0.000008685642
       5       -0.000012397141     0.000023731641     0.000008609781
       6       -0.000209506819     0.000272441234     0.000313216170
       7        0.000020062105    -0.000006684376    -0.000017783080
       8        0.000002792930     0.000002779360     0.000011893789
       9       -0.000000572780    -0.000004184460    -0.000004257297
      10       -0.000005286471     0.000002880974    -0.000015833773
      11        0.000000948465    -0.000001479834    -0.000005173443
      12       -0.000002876745    -0.000000180456    -0.000000433202
      13       -0.000001451412    -0.000000901585    -0.000001037280

  **** Optimization is complete! (in 7 steps) ****
    Final optimized geometry and variables:
    Molecular point group: c1

    Geometry (in Angstrom), charge = 0, multiplicity = 1:

    O            0.150069677006     1.587199003986     0.294802568657
    C            0.276588451080     0.400794482216     0.280157686868
    C           -0.933008678042    -0.517910841751     0.287780012345
    C            1.647782452728    -0.242738020141     0.258321625537
    C           -1.163110368633    -1.206105147993    -1.064625172632
    H           -0.808967725067    -1.268927379535     1.064015717677
    H           -1.791572695090     0.089819304481     0.544242357717
    H           -0.347620996496    -1.871598918897    -1.326708909917
    H           -2.071086030566    -1.797736428991    -1.032067363527
    H           -1.271288187428    -0.473708793301    -1.857730601966
    H            1.768124419618    -0.872801926281    -0.617149901770
    H            2.407447066440     0.526336688795     0.253412345411
    H            1.778225185492    -0.875770719916     1.131436973616

  Mulliken Charges: (a.u.)
   Center  Symbol    Alpha    Beta     Spin     Total
       1     O     4.25929  4.25929  0.00000 -0.51858
       2     C     2.73649  2.73649  0.00000  0.52701
       3     C     3.20160  3.20160  0.00000 -0.40319
       4     C     3.29034  3.29034  0.00000 -0.58067
       5     C     3.25030  3.25030  0.00000 -0.50060
       6     H     0.41413  0.41413  0.00000  0.17175
       7     H     0.39843  0.39843  0.00000  0.20313
       8     H     0.41764  0.41764  0.00000  0.16472
       9     H     0.41029  0.41029  0.00000  0.17943
      10     H     0.40921  0.40921  0.00000  0.18159
      11     H     0.40748  0.40748  0.00000  0.18504
      12     H     0.39602  0.39602  0.00000  0.20797
      13     H     0.40880  0.40880  0.00000  0.18240

   Total alpha = 20.00000, Total beta = 20.00000, Total charge = -0.00000
