                              Psi4 1.0.54 Driver

  ==> Input File <==

--------------------------------------------------------------------------
set {
	reference rhf
	basis cc-pvtz
}

set_num_threads( 4 )
memory 2 gb

molecule MOL {
0 1

H	 -0.000342	 -0.223902	 -3.352295
C	 -0.027146	 0.371068	 -2.446756
C	 0.024493	 -0.518541	 -1.216015
H	 -0.932586	 0.964979	 -2.449855
H	 0.819708	 1.049865	 -2.473332
N	 -0.042516	 0.263377	 0.000000
H	 -0.822211	 -1.197105	 -1.225584
H	 0.921114	 -1.142847	 -1.255206
C	 0.024493	 -0.518541	 1.216015
H	 0.682568	 0.950412	 0.000000
C	 -0.781201	 -1.800808	 1.091755
H	 1.065442	 -0.763012	 1.400693
H	 -0.319739	 0.044936	 2.087348
H	 -0.424192	 -2.396069	 0.260629
H	 -0.706177	 -2.391034	 1.997688
H	 -1.832224	 -1.586518	 0.924229

	symmetry c1
}
set optking {
	frozen_dihedral = ("
		12 9 6 3
	")
}

ee,wfn = optimize('scf', return_wfn=True)
oeprop( wfn, 'DIPOLE', 'QUADRUPOLE', 'MULLIKEN_CHARGES')
f=open( 'psi4out.xyz', 'w' )
f.write( "16  " )
f.write( str(ee) + "\n" )
f.write( MOL.save_string_xyz() )
f.close()
--------------------------------------------------------------------------

    Molecular point group: c1
  Charge       = 0
  Multiplicity = 1
  Basis Set: CC-PVTZ
  Basis Set:
  @DF-RHF Final Energy:  -212.38399229244837
    Total Energy =                       -212.3839922924483403
    Molecular point group: c1
  Basis Set: CC-PVTZ
  Basis Set:
  Basis Set: CC-PVTZ
  Basis Set:
  @DF-RHF Final Energy:  -211.37277224857925
    Total Energy =                       -211.3727722485793095
  Basis Set: CC-PVTZ
  Basis Set:
  Basis Set: CC-PVTZ
  Basis Set:
  @DF-RHF Final Energy:  -211.55777355121799
    Total Energy =                       -211.5577735512180197
  Basis Set: CC-PVTZ
  Basis Set:
  Basis Set: CC-PVTZ
  Basis Set:
  @DF-RHF Final Energy:  -211.73380410683370
    Total Energy =                       -211.7338041068335599
  Basis Set: CC-PVTZ
  Basis Set:
  @DF-RHF Final Energy:  -211.88382552800306
    Total Energy =                       -211.8838255280032001
  @DF-RHF Final Energy:  -212.14623798065324
    Total Energy =                       -212.1462379806532965
  @DF-RHF Final Energy:  -212.31837773944858
    Total Energy =                       -212.3183777394488629
  @DF-RHF Final Energy:  -212.37168037489357
    Total Energy =                       -212.3716803748934581
  @DF-RHF Final Energy:  -212.38606390248731
    Total Energy =                       -212.3860639024873080
  @DF-RHF Final Energy:  -212.38823939013156
    Total Energy =                       -212.3882393901314458
  @DF-RHF Final Energy:  -212.37222143560294
    Total Energy =                       -212.3722214356030236
  @DF-RHF Final Energy:  -212.38354580581083
    Total Energy =                       -212.3835458058110248
  @DF-RHF Final Energy:  -212.38939668367723
    Total Energy =                       -212.3893966836773188
  Basis Set: CC-PVTZ
  Basis Set:
  @DF-RHF Final Energy:  -212.38948547883686
    Total Energy =                       -212.3894854788367752
  Basis Set: CC-PVTZ
  Basis Set:
  Basis Set: CC-PVTZ
  Basis Set:
  @DF-RHF Final Energy:  -212.38951416487976
    Total Energy =                       -212.3895141648797562
  Basis Set: CC-PVTZ
  Basis Set:
  Basis Set: CC-PVTZ
  Basis Set:
  @DF-RHF Final Energy:  -212.38951586713742
    Total Energy =                       -212.3895158671375611
  Basis Set: CC-PVTZ
  Basis Set:
  Charge       = 0
  Multiplicity = 1
  Basis Set: CC-PVTZ
  Basis Set:

    Orbital Energies (a.u.)
    -----------------------

    Doubly Occupied:

       1A    -15.526068     2A    -11.239424     3A    -11.237846
       4A    -11.206983     5A    -11.206491     6A     -1.202491
       7A     -1.025535     8A     -0.969571     9A     -0.852693
      10A     -0.794521    11A     -0.662101    12A     -0.626624
      13A     -0.616107    14A     -0.591440    15A     -0.538482
      16A     -0.517544    17A     -0.513273    18A     -0.494370
      19A     -0.484858    20A     -0.473082    21A     -0.354015

  @DF-RHF Final Energy:  -212.38951604284003

   => Energetics <=

    Nuclear Repulsion Energy =            192.0080572267482637
    One-Electron Energy =                -666.5281143303424187
    Two-Electron Energy =                 262.1305410607541830
    DFT Exchange-Correlation Energy =       0.0000000000000000
    Empirical Dispersion Energy =           0.0000000000000000
    PCM Polarization Energy =               0.0000000000000000
    EFP Energy =                            0.0000000000000000
    Total Energy =                       -212.3895160428399436
    Molecular point group: c1
  Basis Set: CC-PVTZ
  Basis Set:

  -Total Gradient:
     Atom            X                  Y                   Z
    ------   -----------------  -----------------  -----------------
       1        0.000005946792    -0.000015593331     0.000010338780
       2       -0.000008370992     0.000042070788     0.000003596906
       3       -0.003748732285    -0.002107489117    -0.000965837757
       4       -0.000000769004    -0.000005476260    -0.000005951441
       5        0.000000727014    -0.000000100858    -0.000003564929
       6        0.005823377177     0.002370289984     0.002795838191
       7       -0.000008156653     0.000009312513    -0.000011987731
       8        0.000003068254     0.000009196936    -0.000001757104
       9       -0.003177823760     0.002006872372    -0.006725802264
      10       -0.000006347503    -0.000002935901     0.000017154744
      11       -0.000005096720    -0.000000753150    -0.000000092443
      12        0.001143167090    -0.002316364681     0.004895743227
      13       -0.000007766930     0.000009811435    -0.000003493917
      14       -0.000002041585    -0.000006743409     0.000004427159
      15       -0.000004171384     0.000009654677    -0.000000887836
      16       -0.000007009511    -0.000001751996    -0.000007723588

  **** Optimization is complete! (in 17 steps) ****
    Final optimized geometry and variables:
    Molecular point group: c1

    Geometry (in Angstrom), charge = 0, multiplicity = 1:

    H           -1.305515076829     2.860667295371     0.183519468801
    C           -0.959515103193     2.020335578148     0.773885324223
    C           -0.305382257108     0.972881477329    -0.112515703886
    H           -1.805647449477     1.597279782922     1.301320718578
    H           -0.259793663528     2.401510971810     1.511340669903
    N            0.115370447431    -0.166030683259     0.675227888807
    H           -1.022020824651     0.642093078464    -0.852777606686
    H            0.521066146409     1.434149617764    -0.661390321932
    C            0.863754220121    -1.215207143101     0.004017155504
    H            0.611299647352     0.136849104386     1.484691399547
    C            0.274542235283    -1.646436338237    -1.328969964001
    H            1.918249866235    -0.954727954031    -0.116429660388
    H            0.859153516689    -2.075399373663     0.666118514630
    H            0.351090903987    -0.873956023212    -2.083606436756
    H            0.806967124936    -2.516105021647    -1.695384014615
    H           -0.770432312531    -1.912097016257    -1.218084190319

  Mulliken Charges: (a.u.)
   Center  Symbol    Alpha    Beta     Spin     Total
       1     H     0.45336  0.45336  0.00000  0.09328
       2     C     3.14520  3.14520  0.00000 -0.29041
       3     C     3.02085  3.02085  0.00000 -0.04170
       4     H     0.44956  0.44956  0.00000  0.10087
       5     H     0.45932  0.45932  0.00000  0.08137
       6     N     3.64055  3.64055  0.00000 -0.28111
       7     H     0.45690  0.45690  0.00000  0.08620
       8     H     0.47447  0.47447  0.00000  0.05107
       9     C     3.02722  3.02722  0.00000 -0.05444
      10     H     0.44160  0.44160  0.00000  0.11680
      11     C     3.15604  3.15604  0.00000 -0.31207
      12     H     0.46924  0.46924  0.00000  0.06152
      13     H     0.45696  0.45696  0.00000  0.08609
      14     H     0.45249  0.45249  0.00000  0.09502
      15     H     0.44674  0.44674  0.00000  0.10652
      16     H     0.44950  0.44950  0.00000  0.10100

   Total alpha = 21.00000, Total beta = 21.00000, Total charge =  0.00000

*** Psi4 exiting successfully. Buy a developer a beer!
