  ==> Input File <==

--------------------------------------------------------------------------
set {
	reference rhf
	basis 6-31G*
}

set_num_threads( 4 )
memory 2 gb

molecule MOL {
0 1

O	 -2.821601	 1.309235	 -0.001213
C	 -2.668563	 0.129746	 -0.000350
C	 -3.801572	 -0.864014	 -0.000442
O	 -1.481751	 -0.454642	 0.000584
H	 -4.417280	 -0.689587	 -0.874708
H	 -3.443784	 -1.883046	 -0.000565
H	 -4.417179	 -0.689832	 0.873954
C	 -0.334255	 0.388708	 0.000906
C	 0.891947	 -0.504646	 0.000751
H	 -0.365390	 1.025305	 -0.873475
H	 -0.365484	 1.024911	 0.875569
C	 2.191998	 0.301789	 0.000897
H	 0.855148	 -1.151283	 -0.871571
H	 0.855132	 -1.151660	 0.872805
C	 2.483786	 0.962142	 -1.347850
H	 2.144207	 1.068837	 0.771896
H	 3.023284	 -0.348249	 0.268287
C	 3.781604	 1.768699	 -1.347257
H	 1.654232	 1.612362	 -1.616417
H	 2.534172	 0.196830	 -2.119102
H	 3.748615	 2.564366	 -0.608447
H	 3.960840	 2.224367	 -2.316007
H	 4.635187	 1.138158	 -1.115254

	symmetry c1
}
set optking {
	frozen_dihedral = ("
		16 12 9 13
	")
}

ee = optimize('scf')
oeprop('DIPOLE', 'QUADRUPOLE', 'MULLIKEN_CHARGES')
f=open( 'psi4out.xyz', 'w' )
f.write( "23  " )
f.write( str(ee) + "\n" )
f.write( MOL.save_string_xyz() )
f.close()
--------------------------------------------------------------------------

    Molecular point group: c1
  Charge       = 0
  Multiplicity = 1
  Basis Set: 6-31G*
  Basis Set:
  @DF-RHF Final Energy:  -422.97736731342633
    Total Energy =                       -422.9773673134268392
    Molecular point group: c1
  Basis Set: 6-31G*
  Basis Set:
  Basis Set: 6-31G*
  Basis Set:
  @DF-RHF Final Energy:  -422.97757808516741
    Total Energy =                       -422.9775780851667832
  Basis Set: 6-31G*
  Basis Set:
  Basis Set: 6-31G*
  Basis Set:
  @DF-RHF Final Energy:  -422.97771012863421
    Total Energy =                       -422.9777101286354082
  Basis Set: 6-31G*
  Basis Set:
  Basis Set: 6-31G*
  Basis Set:
  @DF-RHF Final Energy:  -422.97770644243565
    Total Energy =                       -422.9777064424359878
  Basis Set: 6-31G*
  Basis Set:
  Basis Set: 6-31G*
  Basis Set:
  @DF-RHF Final Energy:  -422.97765805672310
    Total Energy =                       -422.9776580567231576
  Basis Set: 6-31G*
  Basis Set:
  Basis Set: 6-31G*
  Basis Set:
  @DF-RHF Final Energy:  -422.97771520792600
    Total Energy =                       -422.9777152079260532
  Basis Set: 6-31G*
  Basis Set:
  Basis Set: 6-31G*
  Basis Set:
  @DF-RHF Final Energy:  -422.97771802914406
    Total Energy =                       -422.9777180291445120
  Basis Set: 6-31G*
  Basis Set:
  Charge       = 0
  Multiplicity = 1
  Basis Set: 6-31G*
  Basis Set:

    Orbital Energies (a.u.)
    -----------------------

    Doubly Occupied:

       1A    -20.602943     2A    -20.540535     3A    -11.374084
       4A    -11.281082     5A    -11.232378     6A    -11.224548
       7A    -11.223914     8A    -11.221588     9A    -11.212951
      10A     -1.467910    11A     -1.360688    12A     -1.093844
      13A     -1.040693    14A     -1.002691    15A     -0.931161
      16A     -0.848317    17A     -0.793192    18A     -0.779871
      19A     -0.688662    20A     -0.684506    21A     -0.671810
      22A     -0.634864    23A     -0.615149    24A     -0.587084
      25A     -0.577633    26A     -0.572945    27A     -0.561899
      28A     -0.529458    29A     -0.527460    30A     -0.508332
      31A     -0.494729    32A     -0.476634    33A     -0.469535
      34A     -0.462148    35A     -0.449284    36A     -0.435742

  @DF-RHF Final Energy:  -422.97771829640976

   => Energetics <=

    Nuclear Repulsion Energy =            455.1982587962238540
    One-Electron Energy =               -1477.9914290296246691
    Two-Electron Energy =                 599.8154519369911668
    DFT Exchange-Correlation Energy =       0.0000000000000000
    Empirical Dispersion Energy =           0.0000000000000000
    PCM Polarization Energy =               0.0000000000000000
    EFP Energy =                            0.0000000000000000
    Total Energy =                       -422.9777182964096482
    Molecular point group: c1
  Basis Set: 6-31G*
  Basis Set:

  -Total Gradient:
     Atom            X                  Y                   Z
    ------   -----------------  -----------------  -----------------
       1        0.000008708769    -0.000006406231     0.000002449834
       2       -0.000005990324     0.000003707230    -0.000021905861
       3       -0.000002790030    -0.000003000729    -0.000020326940
       4        0.000008208073     0.000007125590    -0.000025093809
       5        0.000009441779     0.000010959120     0.000008588559
       6       -0.000000998764     0.000000059333     0.000019440011
       7       -0.000010400767    -0.000011819048     0.000008208583
       8        0.000002927812     0.000017193626     0.000075983457
       9        0.000587326870    -0.000883620501     0.000519828387
      10       -0.000010747084    -0.000009165832    -0.000005534791
      11       -0.000004076934     0.000012985194    -0.000004010915
      12        0.000397291358    -0.000711037898     0.000830473222
      13       -0.000520148367     0.000839481030    -0.000610672430
      14        0.000003078781     0.000012756122    -0.000009365950
      15        0.000001733920    -0.000030086955    -0.000009687662
      16       -0.000458393279     0.000757056563    -0.000759634009
      17        0.000002560055     0.000010366040    -0.000010333918
      18        0.000004177489    -0.000007142815     0.000016425734
      19       -0.000006826445    -0.000003477685     0.000005087949
      20       -0.000003747407     0.000000026173    -0.000009973230
      21        0.000000247502    -0.000006410960     0.000002381500
      22       -0.000009794518    -0.000000511531     0.000001193119
      23        0.000008211518     0.000000964159    -0.000003520840

  **** Optimization is complete! (in 8 steps) ****
    Final optimized geometry and variables:
    Molecular point group: c1

    Geometry (in Angstrom), charge = 0, multiplicity = 1:

    O           -2.649887978922     0.941507019458     0.300991652336
    C           -2.476176866906    -0.235115617569     0.313535157315
    C           -3.591666506134    -1.248196802388     0.338558661155
    O           -1.279505019891    -0.798791293208     0.307329155043
    H           -4.221020114296    -1.094187950249    -0.529778857232
    H           -3.216233234401    -2.260840146496     0.345363601845
    H           -4.199421170212    -1.074906606350     1.218631292400
    C           -0.146742160515     0.064712753031     0.284354095809
    C            1.091606091159    -0.815010176245     0.271150523709
    H           -0.211528092072     0.698860115596    -0.588301075232
    H           -0.171807539271     0.700412964201     1.159886774409
    C            2.399434962583    -0.013468079024     0.275624005982
    H            1.051430795673    -1.457696593656    -0.603992609636
    H            1.054950360858    -1.462671719237     1.141646142165
    C            2.741490882257     0.650104461202    -1.062449065274
    H            2.355365237403     0.750563896256     1.050211037284
    H            3.212619124693    -0.679844699643     0.550958174368
    C            4.074382122504     1.396855779882    -1.023216399768
    H            1.955371058514     1.343663552611    -1.349245264729
    H            2.776518133152    -0.110653745340    -1.839251534822
    H            4.060181950603     2.185649030187    -0.276488261497
    H            4.296529303557     1.853870151929    -1.982313501271
    H            4.892707903254     0.725546553925    -0.778632735114

  Mulliken Charges: (a.u.)
   Center  Symbol    Alpha    Beta     Spin     Total
       1     O     4.28406  4.28406  0.00000 -0.56812
       2     C     2.61535  2.61535  0.00000  0.76931
       3     C     3.28779  3.28779  0.00000 -0.57557
       4     O     4.31253  4.31253  0.00000 -0.62507
       5     H     0.39752  0.39752  0.00000  0.20496
       6     H     0.39986  0.39986  0.00000  0.20028
       7     H     0.39751  0.39751  0.00000  0.20499
       8     C     2.99760  2.99760  0.00000  0.00481
       9     C     3.16586  3.16586  0.00000 -0.33172
      10     H     0.40907  0.40907  0.00000  0.18185
      11     H     0.41114  0.41114  0.00000  0.17772
      12     C     3.16218  3.16218  0.00000 -0.32435
      13     H     0.41439  0.41439  0.00000  0.17122
      14     H     0.41201  0.41201  0.00000  0.17598
      15     C     3.15439  3.15439  0.00000 -0.30877
      16     H     0.42111  0.42111  0.00000  0.15778
      17     H     0.41685  0.41685  0.00000  0.16630
      18     C     3.23958  3.23958  0.00000 -0.47917
      19     H     0.42063  0.42063  0.00000  0.15874
      20     H     0.42127  0.42127  0.00000  0.15747
      21     H     0.42053  0.42053  0.00000  0.15894
      22     H     0.41762  0.41762  0.00000  0.16476
      23     H     0.42116  0.42116  0.00000  0.15768

   Total alpha = 36.00000, Total beta = 36.00000, Total charge = -0.00000
