  ==> Input File <==

--------------------------------------------------------------------------
set {
	reference rhf
	basis 6-31G*
}

set_num_threads( 1 )
memory 2 gb

molecule MOL {
0 1

H	 3.740961	 -0.898285	 0.082948
O	 2.826016	 -1.159218	 0.122261
C	 2.077727	 -0.067559	 -0.035091
C	 0.624473	 -0.343591	 0.253101
O	 2.542965	 0.974826	 -0.363729
C	 -0.265902	 0.883932	 0.072916
H	 0.324016	 -1.163849	 -0.390541
H	 0.565024	 -0.726111	 1.268924
C	 -1.728698	 0.646073	 0.462102
H	 -0.209144	 1.219470	 -0.958188
H	 0.135059	 1.692851	 0.673903
C	 -2.482460	 -0.343073	 -0.431425
H	 -2.245265	 1.602650	 0.432430
H	 -1.779332	 0.308348	 1.496285
C	 -3.960546	 -0.461025	 -0.060175
H	 -2.395034	 -0.026811	 -1.468912
H	 -2.024850	 -1.327147	 -0.371646
H	 -4.472726	 -1.168004	 -0.705284
H	 -4.465146	 0.496508	 -0.151489
H	 -4.081218	 -0.800940	 0.964585

	symmetry c1
}
set optking {
	frozen_dihedral = ("
		16 12 9 6,
		7 4 6 10,
		12 9 6 10,
		5 3 4 7
	")
}

ee = energy('scf')
oeprop('DIPOLE', 'QUADRUPOLE', 'MULLIKEN_CHARGES')
f=open( 'psi4out.xyz', 'w' )
f.write( "20  " )
f.write( str(ee) + "\n" )
f.write( MOL.save_string_xyz() )
f.close()
--------------------------------------------------------------------------

    Molecular point group: c1

    Geometry (in Angstrom), charge = 0, multiplicity = 1:

       Center              X                  Y                   Z               Mass
    ------------   -----------------  -----------------  -----------------  -----------------
           H          3.740861393048    -0.898545480941     0.081615148897     1.007825032070
           O          2.825916393048    -1.159478480941     0.120928148897    15.994914619560
           C          2.077627393048    -0.067819480941    -0.036423851103    12.000000000000
           C          0.624373393048    -0.343851480941     0.251768148897    12.000000000000
           O          2.542865393048     0.974565519059    -0.365061851103    15.994914619560
           C         -0.266001606952     0.883671519059     0.071583148897    12.000000000000
           H          0.323916393048    -1.164109480941    -0.391873851103     1.007825032070
           H          0.564924393048    -0.726371480941     1.267591148897     1.007825032070
           C         -1.728797606952     0.645812519059     0.460769148897    12.000000000000
           H         -0.209243606952     1.219209519059    -0.959520851103     1.007825032070
           H          0.134959393048     1.692590519059     0.672570148897     1.007825032070
           C         -2.482559606952    -0.343333480941    -0.432757851103    12.000000000000
           H         -2.245364606952     1.602389519059     0.431097148897     1.007825032070
           H         -1.779431606952     0.308087519059     1.494952148897     1.007825032070
           C         -3.960645606952    -0.461285480941    -0.061507851103    12.000000000000
           H         -2.395133606952    -0.027071480941    -1.470244851103     1.007825032070
           H         -2.024949606952    -1.327407480941    -0.372978851103     1.007825032070
           H         -4.472825606952    -1.168264480941    -0.706616851103     1.007825032070
           H         -4.465245606952     0.496247519059    -0.152821851103     1.007825032070
           H         -4.081317606952    -0.801200480941     0.963252148897     1.007825032070

  Charge       = 0
  Multiplicity = 1
  Basis Set: 6-31G*
  Basis Set:

    Orbital Energies (a.u.)
    -----------------------

    Doubly Occupied:

       1A    -20.612121     2A    -20.551761     3A    -11.381149
       4A    -11.240194     5A    -11.222891     6A    -11.220666
       7A    -11.220076     8A    -11.212370     9A     -1.474440
      10A     -1.365668    11A     -1.096179    12A     -1.040904
      13A     -0.961169    14A     -0.868776    15A     -0.816138
      16A     -0.777017    17A     -0.699899    18A     -0.689940
      19A     -0.663204    20A     -0.637037    21A     -0.601991
      22A     -0.592944    23A     -0.577010    24A     -0.556019
      25A     -0.538228    26A     -0.513572    27A     -0.495240
      28A     -0.480113    29A     -0.470433    30A     -0.467072
      31A     -0.457279    32A     -0.443652

  @DF-RHF Final Energy:  -383.94811147237039

   => Energetics <=

    Nuclear Repulsion Energy =            375.9118336776220417
    One-Electron Energy =               -1267.8295986726172941
    Two-Electron Energy =                 507.9696535226252081
    DFT Exchange-Correlation Energy =       0.0000000000000000
    Empirical Dispersion Energy =           0.0000000000000000
    PCM Polarization Energy =               0.0000000000000000
    EFP Energy =                            0.0000000000000000
    Total Energy =                       -383.9481114723699875

  Mulliken Charges: (a.u.)
   Center  Symbol    Alpha    Beta     Spin     Total
       1     H     0.26775  0.26775  0.00000  0.46451
       2     O     4.35176  4.35176  0.00000 -0.70352
       3     C     2.62257  2.62257  0.00000  0.75486
       4     C     3.21283  3.21283  0.00000 -0.42567
       5     O     4.27861  4.27861  0.00000 -0.55722
       6     C     3.15442  3.15442  0.00000 -0.30883
       7     H     0.39662  0.39662  0.00000  0.20676
       8     H     0.39946  0.39946  0.00000  0.20108
       9     C     3.15553  3.15553  0.00000 -0.31105
      10     H     0.41206  0.41206  0.00000  0.17588
      11     H     0.40821  0.40821  0.00000  0.18357
      12     C     3.15486  3.15486  0.00000 -0.30972
      13     H     0.41788  0.41788  0.00000  0.16424
      14     H     0.42379  0.42379  0.00000  0.15242
      15     C     3.23923  3.23923  0.00000 -0.47847
      16     H     0.42138  0.42138  0.00000  0.15724
      17     H     0.42273  0.42273  0.00000  0.15455
      18     H     0.41831  0.41831  0.00000  0.16338
      19     H     0.42065  0.42065  0.00000  0.15870
      20     H     0.42136  0.42136  0.00000  0.15728

   Total alpha = 32.00000, Total beta = 32.00000, Total charge = -0.00000
