  ==> Input File <==

--------------------------------------------------------------------------
set {
	reference rhf
	basis 6-31G*
}

set_num_threads( 4 )
memory 2 gb

molecule MOL {
0 1

H	 0.677328	 3.722718	 -0.543297
O	 1.432000	 3.165373	 -0.410870
C	 1.063835	 1.883758	 -0.213148
C	 2.076963	 0.953160	 -0.004572
C	 -0.257495	 1.480995	 -0.212221
H	 3.096099	 1.291083	 -0.009892
C	 1.763991	 -0.374149	 0.203668
H	 -1.058061	 2.176433	 -0.370297
C	 -0.536158	 0.140425	 0.000000
H	 2.552433	 -1.085871	 0.363878
C	 0.443700	 -0.803853	 0.209198
N	 -1.935604	 -0.280333	 0.000000
H	 0.185232	 -1.829987	 0.369348
O	 -2.161694	 -1.452901	 0.000000
O	 -2.770341	 0.571417	 0.000000

	symmetry c1
}
set optking {
	frozen_dihedral = ("
		11 9 12 14
	")
}

ee = optimize('scf')
oeprop('DIPOLE', 'QUADRUPOLE', 'MULLIKEN_CHARGES')
f=open( 'psi4out.xyz', 'w' )
f.write( "15  " )
f.write( str(ee) + "\n" )
f.write( MOL.save_string_xyz() )
f.close()
--------------------------------------------------------------------------

    Molecular point group: c1
  Charge       = 0
  Multiplicity = 1
  Basis Set: 6-31G*
  Basis Set:
  @DF-RHF Final Energy:  -509.02759549295553
    Total Energy =                       -509.0275954929558111
    Molecular point group: c1
  Basis Set: 6-31G*
  Basis Set:
  Basis Set: 6-31G*
  Basis Set:
  @DF-RHF Final Energy:  -509.02644459179260
    Total Energy =                       -509.0264445917928242
  Basis Set: 6-31G*
  Basis Set:
  Basis Set: 6-31G*
  Basis Set:
  @DF-RHF Final Energy:  -509.02760476307651
    Total Energy =                       -509.0276047630766243
  Basis Set: 6-31G*
  Basis Set:
  Basis Set: 6-31G*
  Basis Set:
  @DF-RHF Final Energy:  -509.02761702972873
    Total Energy =                       -509.0276170297288445
  Basis Set: 6-31G*
  Basis Set:
  Charge       = 0
  Multiplicity = 1
  Basis Set: 6-31G*
  Basis Set:

    Orbital Energies (a.u.)
    -----------------------

    Doubly Occupied:

       1A    -20.615859     2A    -20.605313     3A    -20.604812
       4A    -15.859482     5A    -11.330680     6A    -11.311287
       7A    -11.267359     8A    -11.266909     9A    -11.263736
      10A    -11.260654    11A     -1.638356    12A     -1.436574
      13A     -1.421726    14A     -1.200662    15A     -1.095130
      16A     -1.046587    17A     -0.966233    18A     -0.878901
      19A     -0.828673    20A     -0.791067    21A     -0.752636
      22A     -0.736938    23A     -0.723726    24A     -0.708064
      25A     -0.673102    26A     -0.635232    27A     -0.615965
      28A     -0.594647    29A     -0.558869    30A     -0.545248
      31A     -0.515941    32A     -0.492183    33A     -0.490164
      34A     -0.454880    35A     -0.377337    36A     -0.342971

  @DF-RHF Final Energy:  -509.02761719637800

   => Energetics <=

    Nuclear Repulsion Energy =            503.4954644624233993
    One-Electron Energy =               -1693.2303526325006260
    Two-Electron Energy =                 680.7072709736993374
    DFT Exchange-Correlation Energy =       0.0000000000000000
    Empirical Dispersion Energy =           0.0000000000000000
    PCM Polarization Energy =               0.0000000000000000
    EFP Energy =                            0.0000000000000000
    Total Energy =                       -509.0276171963779461
    Molecular point group: c1
  Basis Set: 6-31G*
  Basis Set:

  -Total Gradient:
     Atom            X                  Y                   Z
    ------   -----------------  -----------------  -----------------
       1        0.000000663062     0.000000569413    -0.000008450409
       2       -0.000003169259     0.000002522469     0.000015349491
       3       -0.000002607541     0.000002440548    -0.000008280156
       4        0.000001293752    -0.000006225216    -0.000020152146
       5       -0.000009424499    -0.000008139689    -0.000004786350
       6       -0.000001260589    -0.000000352608     0.000004194115
       7       -0.000002084043     0.000005147404     0.000016815816
       8       -0.000005788574     0.000003144435    -0.000000008006
       9        0.000038002959    -0.000195089115    -0.001430613777
      10       -0.000000601326    -0.000001406593    -0.000002508404
      11       -0.000033577817     0.000123535081     0.000764438122
      12       -0.000101072313     0.000191806121     0.001565573266
      13        0.000000740227     0.000003418100    -0.000002911624
      14        0.000018603047    -0.000115013658    -0.000892481650
      15        0.000100282912    -0.000006356701     0.000003821712

  **** Optimization is complete! (in 5 steps) ****
    Final optimized geometry and variables:
    Molecular point group: c1

    Geometry (in Angstrom), charge = 0, multiplicity = 1:

    H            0.841481779912     3.174173029918    -0.490589409450
    O            1.596328725467     2.615923652712    -0.363232706547
    C            1.228227865425     1.334575751988    -0.164042733370
    C            2.241376310852     0.404318702751     0.045994854173
    C           -0.093158137380     0.931935731438    -0.161282373273
    H            3.260445400905     0.742661265082     0.042076949439
    C            1.928698595082    -0.922844927256     0.255377170354
    H           -0.894414575819     1.628214390954    -0.312866781314
    C           -0.370770641438    -0.409509820280     0.045162526583
    H            2.717117175441    -1.633639315095     0.419787821527
    C            0.608628434143    -1.353582561236     0.256503764970
    N           -1.769947565382    -0.829211352471     0.052632087107
    H            0.350099779837    -2.380229194685     0.413689171666
    O           -1.996536994954    -2.000198889295     0.060369994199
    O           -2.604193632048     0.025080888818     0.043890936528

  Mulliken Charges: (a.u.)
   Center  Symbol    Alpha    Beta     Spin     Total
       1     H     0.26726  0.26726  0.00000  0.46547
       2     O     4.37571  4.37571  0.00000 -0.75142
       3     C     2.79159  2.79159  0.00000  0.41683
       4     C     3.10865  3.10865  0.00000 -0.21730
       5     C     3.13695  3.13695  0.00000 -0.27391
       6     H     0.38090  0.38090  0.00000  0.23821
       7     C     3.10056  3.10056  0.00000 -0.20112
       8     H     0.36838  0.36838  0.00000  0.26323
       9     C     2.91236  2.91236  0.00000  0.17528
      10     H     0.38656  0.38656  0.00000  0.22688
      11     C     3.09793  3.09793  0.00000 -0.19586
      12     N     3.24173  3.24173  0.00000  0.51653
      13     H     0.36565  0.36565  0.00000  0.26871
      14     O     4.23093  4.23093  0.00000 -0.46186
      15     O     4.23483  4.23483  0.00000 -0.46966

   Total alpha = 36.00000, Total beta = 36.00000, Total charge =  0.00000
