  ==> Input File <==

--------------------------------------------------------------------------
set {
	reference rhf
	basis 6-31G*
}

set_num_threads( 4 )
memory 2 gb

molecule MOL {
0 1

H	 -3.457215	 0.669139	 -1.400585
C	 -2.634428	 1.207346	 -1.887388
C	 -1.747259	 1.992964	 -0.955536
O	 -2.494682	 1.145343	 -3.065682
C	 -1.220012	 1.144545	 0.209990
H	 -0.937613	 2.421864	 -1.534524
H	 -2.345490	 2.812798	 -0.559750
C	 -0.252658	 0.041456	 -0.226725
H	 -0.722105	 1.802147	 0.916342
H	 -2.059959	 0.705245	 0.745957
C	 1.180775	 0.282413	 0.250794
H	 -0.266029	 -0.034465	 -1.312038
H	 -0.597733	 -0.921000	 0.146291
C	 2.148627	 -0.814315	 -0.201312
H	 1.516199	 1.249228	 -0.115937
H	 1.192670	 0.346017	 1.338083
C	 3.580890	 -0.659131	 0.322722
H	 2.166869	 -0.852443	 -1.289387
H	 1.762857	 -1.776509	 0.128956
C	 4.324889	 0.564933	 -0.213704
H	 4.142010	 -1.551473	 0.056605
H	 3.564836	 -0.624694	 1.410140
H	 4.342616	 0.565491	 -1.300421
H	 3.866655	 1.493402	 0.110242
H	 5.353900	 0.572371	 0.132816

	symmetry c1
}
set optking {
	frozen_dihedral = ("
		3 5 8 12
	")
}

ee = optimize('scf')
oeprop('DIPOLE', 'QUADRUPOLE', 'MULLIKEN_CHARGES')
f=open( 'psi4out.xyz', 'w' )
f.write( "25  " )
f.write( str(ee) + "\n" )
f.write( MOL.save_string_xyz() )
f.close()
--------------------------------------------------------------------------

    Molecular point group: c1
  Charge       = 0
  Multiplicity = 1
  Basis Set: 6-31G*
  Basis Set:
  @DF-RHF Final Energy:  -387.11672902823091
    Total Energy =                       -387.1167290282313616
    Molecular point group: c1
  Basis Set: 6-31G*
  Basis Set:
  Basis Set: 6-31G*
  Basis Set:
  @DF-RHF Final Energy:  -387.11682404718783
    Total Energy =                       -387.1168240471882882
  Basis Set: 6-31G*
  Basis Set:
  Basis Set: 6-31G*
  Basis Set:
  @DF-RHF Final Energy:  -387.11687229688033
    Total Energy =                       -387.1168722968801603
  Basis Set: 6-31G*
  Basis Set:
  Basis Set: 6-31G*
  Basis Set:
  @DF-RHF Final Energy:  -387.11699613627115
    Total Energy =                       -387.1169961362706999
  Basis Set: 6-31G*
  Basis Set:
  @DF-RHF Final Energy:  -387.11704042095312
    Total Energy =                       -387.1170404209528897
  Basis Set: 6-31G*
  Basis Set:
  @DF-RHF Final Energy:  -387.11706774223597
    Total Energy =                       -387.1170677422364861
  Basis Set: 6-31G*
  Basis Set:
  Basis Set: 6-31G*
  Basis Set:
  @DF-RHF Final Energy:  -387.11707411636684
    Total Energy =                       -387.1170741163674620
  Basis Set: 6-31G*
  Basis Set:
  Basis Set: 6-31G*
  Basis Set:
  @DF-RHF Final Energy:  -387.11708065649867
    Total Energy =                       -387.1170806564985014
  Basis Set: 6-31G*
  Basis Set:
  Charge       = 0
  Multiplicity = 1
  Basis Set: 6-31G*
  Basis Set:

    Orbital Energies (a.u.)
    -----------------------

    Doubly Occupied:

       1A    -20.562897     2A    -11.326373     3A    -11.235321
       4A    -11.234722     5A    -11.222312     6A    -11.218961
       7A    -11.217026     8A    -11.215601     9A    -11.209405
      10A     -1.402525    11A     -1.101632    12A     -1.068249
      13A     -1.011793    14A     -0.940958    15A     -0.875443
      16A     -0.821079    17A     -0.786214    18A     -0.780791
      19A     -0.666000    20A     -0.653983    21A     -0.640742
      22A     -0.619092    23A     -0.606298    24A     -0.589780
      25A     -0.575349    26A     -0.546239    27A     -0.538157
      28A     -0.521983    29A     -0.510947    30A     -0.498991
      31A     -0.485960    32A     -0.474799    33A     -0.462479
      34A     -0.456979    35A     -0.440457    36A     -0.410026

  @DF-RHF Final Energy:  -387.11708163735631

   => Energetics <=

    Nuclear Repulsion Energy =            442.4549014427058751
    One-Electron Energy =               -1401.2848406913331019
    Two-Electron Energy =                 571.7128576112702376
    DFT Exchange-Correlation Energy =       0.0000000000000000
    Empirical Dispersion Energy =           0.0000000000000000
    PCM Polarization Energy =               0.0000000000000000
    EFP Energy =                            0.0000000000000000
    Total Energy =                       -387.1170816373569323
    Molecular point group: c1
  Basis Set: 6-31G*
  Basis Set:

  -Total Gradient:
     Atom            X                  Y                   Z
    ------   -----------------  -----------------  -----------------
       1        0.000017204354    -0.000034798716     0.000011355531
       2       -0.000012330000    -0.000006006261     0.000002560954
       3       -0.000781066151    -0.000774753175    -0.000080724539
       4       -0.000028425077     0.000058708064    -0.000002639454
       5        0.001373575316     0.001239519399     0.000159295198
       6        0.000007968732    -0.000021813937    -0.000013194442
       7        0.000008564217     0.000045406753    -0.000030625518
       8       -0.001687817965    -0.001514708389     0.000045984340
       9        0.000000360957     0.000006024112    -0.000004388279
      10        0.000011604764    -0.000034662742    -0.000013225191
      11       -0.000012904408     0.000006647301     0.000027416655
      12        0.001098859399     0.001044962809    -0.000074469845
      13        0.000002368819    -0.000006431852    -0.000015404657
      14       -0.000006167800    -0.000013754958     0.000006276144
      15        0.000003755644    -0.000012684387    -0.000021503093
      16       -0.000003717645     0.000022562410    -0.000001860348
      17        0.000003006637     0.000002896350    -0.000001223045
      18       -0.000000587551    -0.000009029185    -0.000001147863
      19        0.000003101332     0.000001402483     0.000007135583
      20        0.000000407469     0.000001812592     0.000003172075
      21        0.000003659956     0.000002477530    -0.000001847665
      22       -0.000002540724    -0.000002508983    -0.000000645714
      23       -0.000003335495     0.000001622325    -0.000000339422
      24        0.000003493725    -0.000001312944     0.000002874348
      25        0.000000961506    -0.000001576601    -0.000002831754

  **** Optimization is complete! (in 9 steps) ****
    Final optimized geometry and variables:
    Molecular point group: c1

    Geometry (in Angstrom), charge = 0, multiplicity = 1:

    H           -3.855351030120     0.219463608303    -0.744418010366
    C           -2.980591682255     0.673979045497    -1.225597582174
    C           -2.082775349547     1.459707889573    -0.304859348932
    O           -2.795893776434     0.526650918757    -2.390379646673
    C           -1.564268266942     0.605070280624     0.862361707812
    H           -1.266798814281     1.868933673212    -0.889676383906
    H           -2.666219369737     2.290975726133     0.088434042173
    C           -0.585180453443    -0.509993967179     0.429347427278
    H           -1.082363464879     1.262794781575     1.578418136385
    H           -2.415913139234     0.175290120707     1.384215630095
    C            0.851194421201    -0.263831278309     0.901492929677
    H           -0.579172242454    -0.594855005255    -0.654289584495
    H           -0.923463825123    -1.470012953786     0.808618870347
    C            1.821306862524    -1.355481544990     0.444155494542
    H            1.180091021517     0.705651112296     0.534876775318
    H            0.865396386477    -0.201414884422     1.988665335331
    C            3.253045752320    -1.200982776961     0.969981866385
    H            1.840441993236    -1.387060561244    -0.643957794293
    H            1.436949263778    -2.320525820015     0.768395979833
    C            3.993325577792     0.030791546694     0.445558194778
    H            3.816996663766    -2.089132401458     0.696047199486
    H            3.236055541011    -1.176785586129     2.057778190529
    H            4.013521074755     0.040636256367    -0.640881140385
    H            3.530732674977     0.954836205048     0.776257838294
    H            5.021404968450     0.039518168529     0.794305411051

  Mulliken Charges: (a.u.)
   Center  Symbol    Alpha    Beta     Spin     Total
       1     H     0.43198  0.43198  0.00000  0.13605
       2     C     2.83015  2.83015  0.00000  0.33971
       3     C     3.20818  3.20818  0.00000 -0.41636
       4     O     4.23808  4.23808  0.00000 -0.47615
       5     C     3.16979  3.16979  0.00000 -0.33958
       6     H     0.40026  0.40026  0.00000  0.19948
       7     H     0.40872  0.40872  0.00000  0.18256
       8     C     3.16101  3.16101  0.00000 -0.32202
       9     H     0.41009  0.41009  0.00000  0.17982
      10     H     0.41706  0.41706  0.00000  0.16587
      11     C     3.15536  3.15536  0.00000 -0.31073
      12     H     0.41124  0.41124  0.00000  0.17752
      13     H     0.41777  0.41777  0.00000  0.16446
      14     C     3.15384  3.15384  0.00000 -0.30769
      15     H     0.42079  0.42079  0.00000  0.15842
      16     H     0.42354  0.42354  0.00000  0.15293
      17     C     3.15258  3.15258  0.00000 -0.30517
      18     H     0.42154  0.42154  0.00000  0.15691
      19     H     0.42196  0.42196  0.00000  0.15609
      20     C     3.24136  3.24136  0.00000 -0.48273
      21     H     0.42021  0.42021  0.00000  0.15958
      22     H     0.42363  0.42363  0.00000  0.15275
      23     H     0.42117  0.42117  0.00000  0.15766
      24     H     0.42078  0.42078  0.00000  0.15844
      25     H     0.41892  0.41892  0.00000  0.16217

   Total alpha = 36.00000, Total beta = 36.00000, Total charge = -0.00000
