  ==> Input File <==

--------------------------------------------------------------------------
set {
	reference rhf
	basis 6-31G*
}

set_num_threads( 1 )
memory 2 gb

molecule MOL {
0 1

H	 -3.135461	 -1.215070	 0.001379
O	 -2.310168	 -0.871793	 -0.309793
C	 -2.026376	 0.340750	 0.341611
C	 -0.673256	 0.843270	 -0.132153
H	 -2.792215	 1.080697	 0.115987
H	 -2.013526	 0.200402	 1.421792
C	 0.486613	 -0.083066	 0.235839
H	 -0.715586	 0.970948	 -1.210718
H	 -0.508072	 1.829858	 0.297090
C	 1.806126	 0.323821	 -0.422297
H	 0.234613	 -1.099150	 -0.049788
H	 0.612277	 -0.087505	 1.317980
C	 2.966478	 -0.598449	 -0.049909
H	 1.682258	 0.327878	 -1.503203
H	 2.053091	 1.345485	 -0.140063
H	 2.764211	 -1.622340	 -0.350951
H	 3.888023	 -0.287338	 -0.532517
H	 3.138658	 -0.598434	 1.022875

	symmetry c1
}
set optking {
	frozen_dihedral = ("
		14 10 7 11,
		2 3 4 8,
		1 2 3 4
	")
}

ee = energy('scf')
oeprop('DIPOLE', 'QUADRUPOLE', 'MULLIKEN_CHARGES')
f=open( 'psi4out.xyz', 'w' )
f.write( "18  " )
f.write( str(ee) + "\n" )
f.write( MOL.save_string_xyz() )
f.close()
--------------------------------------------------------------------------

    Molecular point group: c1

    Geometry (in Angstrom), charge = 0, multiplicity = 1:

       Center              X                  Y                   Z               Mass
    ------------   -----------------  -----------------  -----------------  -----------------
           H         -3.124257602279    -1.179012118235     0.056835608129     1.007825032070
           O         -2.298964602279    -0.835735118235    -0.254336391871    15.994914619560
           C         -2.015172602279     0.376807881765     0.397067608129    12.000000000000
           C         -0.662052602279     0.879327881765    -0.076696391871    12.000000000000
           H         -2.781011602279     1.116754881765     0.171443608129     1.007825032070
           H         -2.002322602279     0.236459881765     1.477248608129     1.007825032070
           C          0.497816397721    -0.047008118235     0.291295608129    12.000000000000
           H         -0.704382602279     1.007005881765    -1.155261391871     1.007825032070
           H         -0.496868602279     1.865915881765     0.352546608129     1.007825032070
           C          1.817329397721     0.359878881765    -0.366840391871    12.000000000000
           H          0.245816397721    -1.063092118235     0.005668608129     1.007825032070
           H          0.623480397721    -0.051447118235     1.373436608129     1.007825032070
           C          2.977681397721    -0.562391118235     0.005547608129    12.000000000000
           H          1.693461397721     0.363935881765    -1.447746391871     1.007825032070
           H          2.064294397721     1.381542881765    -0.084606391871     1.007825032070
           H          2.775414397721    -1.586282118235    -0.295494391871     1.007825032070
           H          3.899226397721    -0.251280118235    -0.477060391871     1.007825032070
           H          3.149861397721    -0.562376118235     1.078331608129     1.007825032070

  Charge       = 0
  Multiplicity = 1
  Basis Set: 6-31G*
  Basis Set:

    Orbital Energies (a.u.)
    -----------------------

    Doubly Occupied:

       1A    -20.553262     2A    -11.268128     3A    -11.211875
       4A    -11.210383     5A    -11.205995     6A    -11.204215
       7A     -1.359999     8A     -1.074490     9A     -1.008560
      10A     -0.912946    11A     -0.817403    12A     -0.783642
      13A     -0.705576    14A     -0.639601    15A     -0.626777
      16A     -0.579977    17A     -0.570119    18A     -0.558446
      19A     -0.522021    20A     -0.498919    21A     -0.489192
      22A     -0.467440    23A     -0.457960    24A     -0.447375
      25A     -0.428692

  @DF-RHF Final Energy:  -271.17971692815274

   => Energetics <=

    Nuclear Repulsion Energy =            249.2449943403804866
    One-Electron Energy =                -861.6434825535238815
    Two-Electron Energy =                 341.2187712849913623
    DFT Exchange-Correlation Energy =       0.0000000000000000
    Empirical Dispersion Energy =           0.0000000000000000
    PCM Polarization Energy =               0.0000000000000000
    EFP Energy =                            0.0000000000000000
    Total Energy =                       -271.1797169281520610

  Mulliken Charges: (a.u.)
   Center  Symbol    Alpha    Beta     Spin     Total
       1     H     0.28051  0.28051  0.00000  0.43899
       2     O     4.36950  4.36950  0.00000 -0.73900
       3     C     2.99745  2.99745  0.00000  0.00510
       4     C     3.16022  3.16022  0.00000 -0.32045
       5     H     0.42917  0.42917  0.00000  0.14165
       6     H     0.43272  0.43272  0.00000  0.13456
       7     C     3.15448  3.15448  0.00000 -0.30896
       8     H     0.41526  0.41526  0.00000  0.16949
       9     H     0.42385  0.42385  0.00000  0.15230
      10     C     3.15179  3.15179  0.00000 -0.30357
      11     H     0.40704  0.40704  0.00000  0.18592
      12     H     0.42759  0.42759  0.00000  0.14481
      13     C     3.23900  3.23900  0.00000 -0.47799
      14     H     0.42198  0.42198  0.00000  0.15605
      15     H     0.42540  0.42540  0.00000  0.14921
      16     H     0.42084  0.42084  0.00000  0.15833
      17     H     0.42039  0.42039  0.00000  0.15923
      18     H     0.42284  0.42284  0.00000  0.15433

   Total alpha = 25.00000, Total beta = 25.00000, Total charge =  0.00000
