  ==> Input File <==

--------------------------------------------------------------------------
set {
	reference rhf
	basis 6-31G*
}

set_num_threads( 4 )
memory 2 gb

molecule MOL {
0 1

H	 0.283338	 1.701201	 -1.704739
C	 0.531965	 1.851908	 -0.647255
C	 0.692068	 0.589600	 0.160137
O	 0.656263	 2.951558	 -0.214301
C	 -0.558097	 -0.297372	 0.091132
H	 0.924209	 0.866813	 1.181775
H	 1.544302	 0.043584	 -0.242847
C	 -1.850991	 0.512573	 -0.019058
H	 -0.476753	 -0.965681	 -0.762987
H	 -0.604799	 -0.930658	 0.975228
C	 -3.096943	 -0.368295	 -0.099594
H	 -1.800724	 1.150330	 -0.898172
H	 -1.931651	 1.177355	 0.838044
H	 -3.060452	 -1.020287	 -0.967456
H	 -3.996858	 0.233488	 -0.175704
H	 -3.191959	 -0.995686	 0.782074

	symmetry c1
}
set optking {
	frozen_dihedral = ("
		6 3 5 9
	")
}

ee = optimize('scf')
oeprop('DIPOLE', 'QUADRUPOLE', 'MULLIKEN_CHARGES')
f=open( 'psi4out.xyz', 'w' )
f.write( "16  " )
f.write( str(ee) + "\n" )
f.write( MOL.save_string_xyz() )
f.close()
--------------------------------------------------------------------------

    Molecular point group: c1
  Charge       = 0
  Multiplicity = 1
  Basis Set: 6-31G*
  Basis Set:
  @DF-RHF Final Energy:  -270.01415527596384
    Total Energy =                       -270.0141552759639580
    Molecular point group: c1
  Basis Set: 6-31G*
  Basis Set:
  Basis Set: 6-31G*
  Basis Set:
  @DF-RHF Final Energy:  -270.01588871540241
    Total Energy =                       -270.0158887154025251
  Basis Set: 6-31G*
  Basis Set:
  Basis Set: 6-31G*
  Basis Set:
  @DF-RHF Final Energy:  -270.01575531756026
    Total Energy =                       -270.0157553175605472
  Basis Set: 6-31G*
  Basis Set:
  Basis Set: 6-31G*
  Basis Set:
  @DF-RHF Final Energy:  -270.01580926736369
    Total Energy =                       -270.0158092673635224
  Basis Set: 6-31G*
  Basis Set:
  @DF-RHF Final Energy:  -270.01611029266621
    Total Energy =                       -270.0161102926661556
  @DF-RHF Final Energy:  -270.01612499223097
    Total Energy =                       -270.0161249922312550
  Basis Set: 6-31G*
  Basis Set:
  @DF-RHF Final Energy:  -270.01613704211269
    Total Energy =                       -270.0161370421127458
  Basis Set: 6-31G*
  Basis Set:
  Basis Set: 6-31G*
  Basis Set:
  @DF-RHF Final Energy:  -270.01614459619293
    Total Energy =                       -270.0161445961929871
  Basis Set: 6-31G*
  Basis Set:
  Basis Set: 6-31G*
  Basis Set:
  @DF-RHF Final Energy:  -270.01614660489429
    Total Energy =                       -270.0161466048942884
  Basis Set: 6-31G*
  Basis Set:
  Charge       = 0
  Multiplicity = 1
  Basis Set: 6-31G*
  Basis Set:

    Orbital Energies (a.u.)
    -----------------------

    Doubly Occupied:

       1A    -20.561702     2A    -11.326472     3A    -11.236071
       4A    -11.235174     5A    -11.228364     6A    -11.218049
       7A     -1.401635     8A     -1.094615     9A     -1.016735
      10A     -0.905404    11A     -0.828596    12A     -0.780573
      13A     -0.667908    14A     -0.650232    15A     -0.623333
      16A     -0.605851    17A     -0.587788    18A     -0.553327
      19A     -0.523423    20A     -0.512378    21A     -0.492899
      22A     -0.477339    23A     -0.468217    24A     -0.409338

  @DF-RHF Final Energy:  -270.01614701644428

   => Energetics <=

    Nuclear Repulsion Energy =            233.6911731814251141
    One-Electron Energy =                -828.6037960662133628
    Two-Electron Energy =                 324.8964758683440550
    DFT Exchange-Correlation Energy =       0.0000000000000000
    Empirical Dispersion Energy =           0.0000000000000000
    PCM Polarization Energy =               0.0000000000000000
    EFP Energy =                            0.0000000000000000
    Total Energy =                       -270.0161470164441653
    Molecular point group: c1
  Basis Set: 6-31G*
  Basis Set:

  -Total Gradient:
     Atom            X                  Y                   Z
    ------   -----------------  -----------------  -----------------
       1        0.000000451363    -0.000011524137     0.000004665921
       2       -0.000000988149     0.000001121487    -0.000002588531
       3       -0.003439259396     0.004958669529     0.000067611719
       4        0.000001070906    -0.000008106352     0.000007446335
       5       -0.002096889477     0.003675735912    -0.003941028406
       6        0.003202846409    -0.004677903870     0.000585503773
       7       -0.000001084155     0.000009591071    -0.000002090567
       8        0.000006889759    -0.000008492447    -0.000014854437
       9        0.002323514757    -0.003931307703     0.003275208557
      10       -0.000009939141     0.000002036290     0.000006081592
      11        0.000000784139     0.000000182523     0.000008079479
      12        0.000000000627    -0.000003553557     0.000003168143
      13        0.000005930963    -0.000010123362    -0.000000337478
      14        0.000005603032     0.000003376193     0.000000810556
      15        0.000004319493     0.000001970536    -0.000000987243
      16       -0.000003251132    -0.000001672116     0.000003310589

  **** Optimization is complete! (in 10 steps) ****
    Final optimized geometry and variables:
    Molecular point group: c1

    Geometry (in Angstrom), charge = 0, multiplicity = 1:

    H            1.087437431442     0.830820073260    -1.601368819441
    C            1.250427687387     0.984941362229    -0.528127258253
    C            1.260338130412    -0.269156033620     0.304766028790
    O            1.419650840532     2.081254904934    -0.101735194282
    C            0.001593967487    -1.147540668306     0.149587256062
    H            1.441675756274    -0.016214485351     1.342477861857
    H            2.123893520458    -0.849972208100    -0.018974556433
    C           -1.321762565523    -0.380593946559     0.096719045999
    H            0.108586461161    -1.803207361040    -0.711044875205
    H           -0.022329236329    -1.819995680840     1.003356771633
    C           -2.534399613820    -1.309892168367     0.078383041270
    H           -1.350870517642     0.258033926470    -0.782832820579
    H           -1.383832613093     0.283347507506     0.955543127630
    H           -2.509784886143    -1.969920726527    -0.784074139753
    H           -3.459359224301    -0.744149895415     0.035915097697
    H           -2.565880855528    -1.930601395107     0.969117220578

  Mulliken Charges: (a.u.)
   Center  Symbol    Alpha    Beta     Spin     Total
       1     H     0.43171  0.43171  0.00000  0.13657
       2     C     2.83117  2.83117  0.00000  0.33766
       3     C     3.21033  3.21033  0.00000 -0.42066
       4     O     4.23811  4.23811  0.00000 -0.47622
       5     C     3.16163  3.16163  0.00000 -0.32327
       6     H     0.39915  0.39915  0.00000  0.20169
       7     H     0.40784  0.40784  0.00000  0.18432
       8     C     3.15964  3.15964  0.00000 -0.31928
       9     H     0.41776  0.41776  0.00000  0.16448
      10     H     0.41312  0.41312  0.00000  0.17375
      11     C     3.24021  3.24021  0.00000 -0.48042
      12     H     0.41979  0.41979  0.00000  0.16042
      13     H     0.41363  0.41363  0.00000  0.17274
      14     H     0.42066  0.42066  0.00000  0.15868
      15     H     0.41543  0.41543  0.00000  0.16913
      16     H     0.41980  0.41980  0.00000  0.16040

   Total alpha = 24.00000, Total beta = 24.00000, Total charge =  0.00000
