  ==> Input File <==

--------------------------------------------------------------------------
set {
	reference rhf
	basis 6-31G*
}

set_num_threads( 4 )
memory 2 gb

molecule MOL {
0 1

H	 3.323754	 1.176747	 -1.251934
N	 2.559759	 0.528845	 -1.260854
C	 1.865559	 0.531981	 0.018834
H	 2.949641	 -0.375780	 -1.446530
C	 0.645745	 -0.382037	 -0.029944
H	 1.543238	 1.549785	 0.216428
H	 2.505312	 0.238370	 0.854841
C	 -0.679275	 0.379305	 0.025956
H	 0.698998	 -0.976915	 -0.937203
H	 0.693479	 -1.083846	 0.802235
C	 -1.903357	 -0.536963	 -0.023547
H	 -0.726309	 1.082987	 -0.803784
H	 -0.717680	 0.977832	 0.934877
C	 -3.225172	 0.228290	 0.028445
H	 -1.867824	 -1.134999	 -0.931459
H	 -1.860449	 -1.239604	 0.805977
H	 -3.313397	 0.915643	 -0.808262
H	 -4.073500	 -0.448134	 -0.008893
H	 -3.306061	 0.809945	 0.942516

	symmetry c1
}
set optking {
	frozen_dihedral = ("
		6 3 5 9
	")
}

ee = optimize('scf')
oeprop('DIPOLE', 'QUADRUPOLE', 'MULLIKEN_CHARGES')
f=open( 'psi4out.xyz', 'w' )
f.write( "19  " )
f.write( str(ee) + "\n" )
f.write( MOL.save_string_xyz() )
f.close()
--------------------------------------------------------------------------

    Molecular point group: c1
  Charge       = 0
  Multiplicity = 1
  Basis Set: 6-31G*
  Basis Set:
  @DF-RHF Final Energy:  -251.34585636570642
    Total Energy =                       -251.3458563657063678
    Molecular point group: c1
  Basis Set: 6-31G*
  Basis Set:
  Basis Set: 6-31G*
  Basis Set:
  @DF-RHF Final Energy:  -251.34624731211599
    Total Energy =                       -251.3462473121161338
  Basis Set: 6-31G*
  Basis Set:
  Basis Set: 6-31G*
  Basis Set:
  @DF-RHF Final Energy:  -251.34636963064051
    Total Energy =                       -251.3463696306406518
  Basis Set: 6-31G*
  Basis Set:
  Charge       = 0
  Multiplicity = 1
  Basis Set: 6-31G*
  Basis Set:

    Orbital Energies (a.u.)
    -----------------------

    Doubly Occupied:

       1A    -15.532779     2A    -11.239894     3A    -11.211096
       4A    -11.209464     5A    -11.208744     6A    -11.205242
       7A     -1.175538     8A     -1.069532     9A     -0.994909
      10A     -0.898554    11A     -0.813237    12A     -0.787075
      13A     -0.657913    14A     -0.646562    15A     -0.613360
      16A     -0.588297    17A     -0.553238    18A     -0.546919
      19A     -0.537770    20A     -0.487228    21A     -0.485263
      22A     -0.460209    23A     -0.458175    24A     -0.451617
      25A     -0.378692

  @DF-RHF Final Energy:  -251.34636954858797

   => Energetics <=

    Nuclear Repulsion Energy =            246.7856562017778401
    One-Electron Energy =                -827.8414361978080933
    Two-Electron Energy =                 329.7094104474422807
    DFT Exchange-Correlation Energy =       0.0000000000000000
    Empirical Dispersion Energy =           0.0000000000000000
    PCM Polarization Energy =               0.0000000000000000
    EFP Energy =                            0.0000000000000000
    Total Energy =                       -251.3463695485879157
    Molecular point group: c1
  Basis Set: 6-31G*
  Basis Set:

  -Total Gradient:
     Atom            X                  Y                   Z
    ------   -----------------  -----------------  -----------------
       1        0.000023318292     0.000011890802    -0.000035007031
       2       -0.000027105761     0.000036915642     0.000101872363
       3        0.000201489306    -0.000172476926     0.002659333739
       4       -0.000024305611     0.000015640844     0.000031488421
       5        0.001461509188    -0.002119691788     0.000889709532
       6       -0.000328539656     0.000432997317    -0.002554847965
       7       -0.000022680558    -0.000021681943     0.000024077434
       8        0.000054178424    -0.000013386661     0.000105780091
       9       -0.001310766109     0.001743999297    -0.001269636233
      10        0.000005324413     0.000076530280    -0.000002114981
      11        0.000015925211     0.000004769261    -0.000000923865
      12        0.000014311431     0.000022638563     0.000063361073
      13       -0.000033139428    -0.000000697286     0.000047087979
      14       -0.000008829165    -0.000008556631    -0.000067256349
      15        0.000010301111    -0.000040932114     0.000015077461
      16       -0.000018706918     0.000031056599     0.000014297475
      17       -0.000010698232     0.000015732238     0.000003808984
      18       -0.000016757959     0.000007501067    -0.000018682007
      19        0.000015172020    -0.000022248561    -0.000007426123

  **** Optimization is complete! (in 4 steps) ****
    Final optimized geometry and variables:
    Molecular point group: c1

    Geometry (in Angstrom), charge = 0, multiplicity = 1:

    H            3.360894025431     1.076289264060    -1.091625922507
    N            2.608912523222     0.414125876145    -1.071091637801
    C            1.976350043035     0.393303459124     0.243530487014
    H            3.007061890888    -0.481206977603    -1.282710336980
    C            0.743000855385    -0.529524127173     0.238517692884
    H            1.667966772637     1.412776758412     0.450156368049
    H            2.662901488388     0.100570046631     1.038995849339
    C           -0.581547416662     0.237264910169     0.272088350823
    H            0.764106570633    -1.126050515085    -0.669250507345
    H            0.781854050785    -1.218852964877     1.077974245233
    C           -1.809123221641    -0.670667987042     0.190388531703
    H           -0.597148052899     0.943633521797    -0.555336513720
    H           -0.633691341613     0.830034023523     1.184418764788
    C           -3.127107144447     0.102931189674     0.212445608208
    H           -1.755745711718    -1.265511065010    -0.718966217126
    H           -1.791817491866    -1.376996835024     1.018142538463
    H           -3.188562836904     0.795284523369    -0.622390347656
    H           -3.978921503398    -0.567372366103     0.149521600839
    H           -3.227652781904     0.680220910874     1.127341296432

  Mulliken Charges: (a.u.)
   Center  Symbol    Alpha    Beta     Spin     Total
       1     H     0.33338  0.33338  0.00000  0.33324
       2     N     3.92152  3.92152  0.00000 -0.84304
       3     C     3.06692  3.06692  0.00000 -0.13384
       4     H     0.33544  0.33544  0.00000  0.32912
       5     C     3.15385  3.15385  0.00000 -0.30770
       6     H     0.41780  0.41780  0.00000  0.16440
       7     H     0.43151  0.43151  0.00000  0.13698
       8     C     3.15518  3.15518  0.00000 -0.31035
       9     H     0.41649  0.41649  0.00000  0.16703
      10     H     0.42364  0.42364  0.00000  0.15272
      11     C     3.15207  3.15207  0.00000 -0.30414
      12     H     0.41657  0.41657  0.00000  0.16686
      13     H     0.42587  0.42587  0.00000  0.14825
      14     C     3.23912  3.23912  0.00000 -0.47824
      15     H     0.42237  0.42237  0.00000  0.15526
      16     H     0.42449  0.42449  0.00000  0.15102
      17     H     0.42112  0.42112  0.00000  0.15775
      18     H     0.42010  0.42010  0.00000  0.15980
      19     H     0.42256  0.42256  0.00000  0.15488

   Total alpha = 25.00000, Total beta = 25.00000, Total charge = -0.00000
