  ==> Input File <==

--------------------------------------------------------------------------
set {
	reference rhf
	basis 6-31G*
}

set_num_threads( 1 )
memory 2 gb

molecule MOL {
0 1

O	 -2.416148	 1.147053	 -0.068792
C	 -2.140670	 -0.010390	 0.025404
C	 -0.903672	 -0.573800	 -0.651878
C	 -2.983324	 -0.962975	 0.843873
C	 0.360854	 -0.251622	 0.160721
H	 -0.829309	 -0.117542	 -1.633001
H	 -0.996219	 -1.647993	 -0.784435
C	 1.631333	 -0.777471	 -0.511575
H	 0.414551	 0.823384	 0.290581
H	 0.276884	 -0.684751	 1.156258
C	 2.915987	 -0.544314	 0.291766
H	 1.733226	 -0.318216	 -1.493119
H	 1.519978	 -1.845852	 -0.684811
C	 3.373361	 0.914346	 0.347591
H	 3.708709	 -1.142521	 -0.150311
H	 2.780642	 -0.921148	 1.303579
H	 3.506512	 1.320010	 -0.651625
H	 4.322697	 0.999599	 0.867103
H	 2.660624	 1.545032	 0.868198
H	 -3.450764	 -1.692859	 0.188103
H	 -3.749190	 -0.416120	 1.376022
H	 -2.366530	 -1.514019	 1.547946

	symmetry c1
}
set optking {
	frozen_dihedral = ("
		6 3 2 1,
		6 3 5 8,
		3 5 8 12
	")
}

ee = energy('scf')
oeprop('DIPOLE', 'QUADRUPOLE', 'MULLIKEN_CHARGES')
f=open( 'psi4out.xyz', 'w' )
f.write( "22  " )
f.write( str(ee) + "\n" )
f.write( MOL.save_string_xyz() )
f.close()
--------------------------------------------------------------------------

    Molecular point group: c1

    Geometry (in Angstrom), charge = 0, multiplicity = 1:

       Center              X                  Y                   Z               Mass
    ------------   -----------------  -----------------  -----------------  -----------------
           O         -2.398679312510     1.267859973385    -0.131788734776    15.994914619560
           C         -2.123201312510     0.110416973385    -0.037592734776    12.000000000000
           C         -0.886203312510    -0.452993026615    -0.714874734776    12.000000000000
           C         -2.965855312510    -0.842168026615     0.780876265224    12.000000000000
           C          0.378322687490    -0.130815026615     0.097724265224    12.000000000000
           H         -0.811840312510     0.003264973385    -1.695997734776     1.007825032070
           H         -0.978750312510    -1.527186026615    -0.847431734776     1.007825032070
           C          1.648801687490    -0.656664026615    -0.574571734776    12.000000000000
           H          0.432019687490     0.944190973385     0.227584265224     1.007825032070
           H          0.294352687490    -0.563944026615     1.093261265224     1.007825032070
           C          2.933455687490    -0.423507026615     0.228769265224    12.000000000000
           H          1.750694687490    -0.197409026615    -1.556115734776     1.007825032070
           H          1.537446687490    -1.725045026615    -0.747807734776     1.007825032070
           C          3.390829687490     1.035152973385     0.284594265224    12.000000000000
           H          3.726177687490    -1.021714026615    -0.213307734776     1.007825032070
           H          2.798110687490    -0.800341026615     1.240582265224     1.007825032070
           H          3.523980687490     1.440816973385    -0.714621734776     1.007825032070
           H          4.340165687490     1.120405973385     0.804106265224     1.007825032070
           H          2.678092687490     1.665838973385     0.805201265224     1.007825032070
           H         -3.433295312510    -1.572052026615     0.125106265224     1.007825032070
           H         -3.731721312510    -0.295313026615     1.313025265224     1.007825032070
           H         -2.349061312510    -1.393212026615     1.484949265224     1.007825032070

  Charge       = 0
  Multiplicity = 1
  Basis Set: 6-31G*
  Basis Set:

    Orbital Energies (a.u.)
    -----------------------

    Doubly Occupied:

       1A    -20.547354     2A    -11.324502     3A    -11.229625
       4A    -11.229034     5A    -11.228241     6A    -11.222284
       7A    -11.220562     8A    -11.211128     9A     -1.393102
      10A     -1.095536    11A     -1.044305    12A     -0.999639
      13A     -0.937799    14A     -0.856627    15A     -0.787610
      16A     -0.732881    17A     -0.662568    18A     -0.643695
      19A     -0.625467    20A     -0.620711    21A     -0.597140
      22A     -0.582724    23A     -0.562774    24A     -0.542155
      25A     -0.534117    26A     -0.518104    27A     -0.498695
      28A     -0.487938    29A     -0.471698    30A     -0.463628
      31A     -0.459427    32A     -0.396252

  @DF-RHF Final Energy:  -348.09821507444065

   => Energetics <=

    Nuclear Repulsion Energy =            372.5789516557043726
    One-Electron Energy =               -1209.8995264153791140
    Two-Electron Energy =                 489.2223596852344940
    DFT Exchange-Correlation Energy =       0.0000000000000000
    Empirical Dispersion Energy =           0.0000000000000000
    PCM Polarization Energy =               0.0000000000000000
    EFP Energy =                            0.0000000000000000
    Total Energy =                       -348.0982150744402475

  Mulliken Charges: (a.u.)
   Center  Symbol    Alpha    Beta     Spin     Total
       1     O     4.26246  4.26246  0.00000 -0.52491
       2     C     2.73717  2.73717  0.00000  0.52565
       3     C     3.19971  3.19971  0.00000 -0.39942
       4     C     3.28954  3.28954  0.00000 -0.57908
       5     C     3.16356  3.16356  0.00000 -0.32713
       6     H     0.40118  0.40118  0.00000  0.19765
       7     H     0.41698  0.41698  0.00000  0.16603
       8     C     3.15284  3.15284  0.00000 -0.30568
       9     H     0.40392  0.40392  0.00000  0.19215
      10     H     0.42126  0.42126  0.00000  0.15748
      11     C     3.15371  3.15371  0.00000 -0.30742
      12     H     0.42048  0.42048  0.00000  0.15905
      13     H     0.42191  0.42191  0.00000  0.15618
      14     C     3.24153  3.24153  0.00000 -0.48305
      15     H     0.41958  0.41958  0.00000  0.16083
      16     H     0.42288  0.42288  0.00000  0.15423
      17     H     0.42081  0.42081  0.00000  0.15838
      18     H     0.41834  0.41834  0.00000  0.16332
      19     H     0.41846  0.41846  0.00000  0.16309
      20     H     0.40691  0.40691  0.00000  0.18618
      21     H     0.39707  0.39707  0.00000  0.20585
      22     H     0.40970  0.40970  0.00000  0.18060

   Total alpha = 32.00000, Total beta = 32.00000, Total charge =  0.00000
