  ==> Input File <==

--------------------------------------------------------------------------
set {
	reference rhf
	basis 6-31G*
}

set_num_threads( 4 )
memory 2 gb

molecule MOL {
0 1

O	 0.707585	 2.112663	 0.135671
C	 -0.380592	 2.509331	 0.403192
C	 -1.643180	 1.682466	 0.395483
O	 -0.630563	 3.764988	 0.752210
C	 -1.412532	 0.227344	 -0.000452
H	 -2.085285	 1.755759	 1.385394
H	 -2.344723	 2.167287	 -0.277972
C	 -2.706999	 -0.587347	 -0.000541
H	 -0.695963	 -0.220283	 0.681211
H	 -0.955293	 0.191855	 -0.984412
C	 -3.956778	 0.291888	 0.000910
H	 -2.726114	 -1.239230	 -0.871609
H	 -2.725217	 -1.240844	 0.869333
H	 -3.985213	 0.933254	 -0.875158
H	 -4.860123	 -0.309979	 0.000519
H	 -3.984618	 0.931166	 0.878514
C	 0.473193	 4.650791	 0.799310
H	 1.203411	 4.310111	 1.519175
H	 0.071849	 5.606781	 1.097565
H	 0.940701	 4.727377	 -0.171812

	symmetry c1
}
set optking {
	frozen_dihedral = ("
		9 5 8 12
	")
}

ee = optimize('scf')
oeprop('DIPOLE', 'QUADRUPOLE', 'MULLIKEN_CHARGES')
f=open( 'psi4out.xyz', 'w' )
f.write( "20  " )
f.write( str(ee) + "\n" )
f.write( MOL.save_string_xyz() )
f.close()
--------------------------------------------------------------------------

    Molecular point group: c1
  Charge       = 0
  Multiplicity = 1
  Basis Set: 6-31G*
  Basis Set:
  @DF-RHF Final Energy:  -383.92899095067656
    Total Energy =                       -383.9289909506766207
    Molecular point group: c1
  Basis Set: 6-31G*
  Basis Set:
  Basis Set: 6-31G*
  Basis Set:
  @DF-RHF Final Energy:  -383.92916116214275
    Total Energy =                       -383.9291611621429183
  Basis Set: 6-31G*
  Basis Set:
  Basis Set: 6-31G*
  Basis Set:
  @DF-RHF Final Energy:  -383.93255474658253
    Total Energy =                       -383.9325547465825821
  Basis Set: 6-31G*
  Basis Set:
  Basis Set: 6-31G*
  Basis Set:
  @DF-RHF Final Energy:  -383.93298352696826
    Total Energy =                       -383.9329835269683144
  Basis Set: 6-31G*
  Basis Set:
  @DF-RHF Final Energy:  -383.93146943549181
    Total Energy =                       -383.9314694354918629
  @DF-RHF Final Energy:  -383.93301860625110
    Total Energy =                       -383.9330186062508119
  Basis Set: 6-31G*
  Basis Set:
  @DF-RHF Final Energy:  -383.93306670506536
    Total Energy =                       -383.9330667050656984
  Basis Set: 6-31G*
  Basis Set:
  Basis Set: 6-31G*
  Basis Set:
  @DF-RHF Final Energy:  -383.93306439311664
    Total Energy =                       -383.9330643931168652
  Basis Set: 6-31G*
  Basis Set:
  Basis Set: 6-31G*
  Basis Set:
  @DF-RHF Final Energy:  -383.93306802630849
    Total Energy =                       -383.9330680263085469
  Basis Set: 6-31G*
  Basis Set:
  Charge       = 0
  Multiplicity = 1
  Basis Set: 6-31G*
  Basis Set:

    Orbital Energies (a.u.)
    -----------------------

    Doubly Occupied:

       1A    -20.603349     2A    -20.545332     3A    -11.372017
       4A    -11.280688     5A    -11.234875     6A    -11.220733
       7A    -11.219698     8A    -11.213369     9A     -1.469120
      10A     -1.362580    11A     -1.085758    12A     -1.021017
      13A     -0.967382    14A     -0.897608    15A     -0.798551
      16A     -0.760465    17A     -0.700893    18A     -0.683413
      19A     -0.670699    20A     -0.643668    21A     -0.605659
      22A     -0.591983    23A     -0.565376    24A     -0.546063
      25A     -0.541202    26A     -0.521992    27A     -0.514775
      28A     -0.472430    29A     -0.469231    30A     -0.461824
      31A     -0.454110    32A     -0.437751

  @DF-RHF Final Energy:  -383.93306802900088

   => Energetics <=

    Nuclear Repulsion Energy =            385.5907450779416195
    One-Electron Energy =               -1287.1804094452086247
    Two-Electron Energy =                 517.6565963382663540
    DFT Exchange-Correlation Energy =       0.0000000000000000
    Empirical Dispersion Energy =           0.0000000000000000
    PCM Polarization Energy =               0.0000000000000000
    EFP Energy =                            0.0000000000000000
    Total Energy =                       -383.9330680290006512
    Molecular point group: c1
  Basis Set: 6-31G*
  Basis Set:

  -Total Gradient:
     Atom            X                  Y                   Z
    ------   -----------------  -----------------  -----------------
       1       -0.000006563166     0.000004848424    -0.000003845350
       2        0.000004234036    -0.000007692315     0.000008721956
       3       -0.000001159408     0.000001775178    -0.000007524045
       4        0.000002724774     0.000001277128     0.000001495106
       5        0.001845099390    -0.002867496585    -0.005409287765
       6       -0.000009153725    -0.000002151959    -0.000002421528
       7        0.000007103766     0.000002307605    -0.000002199042
       8        0.002669479792    -0.003730280473     0.004316526721
       9       -0.001955909720     0.002975781523     0.003903142603
      10       -0.000003593685     0.000002930945     0.000006710232
      11        0.000003224148    -0.000001251796     0.000000733521
      12       -0.002555747775     0.003617363964    -0.002815179958
      13       -0.000003357524    -0.000000421543    -0.000001293461
      14       -0.000001272940    -0.000002861340    -0.000000543844
      15        0.000000229883    -0.000000546362     0.000000618555
      16        0.000004658770     0.000005043265     0.000003864985
      17       -0.000001120268     0.000000116640     0.000001054513
      18        0.000000095116     0.000000638077    -0.000000117256
      19        0.000000682735     0.000000628613     0.000000051659
      20        0.000000345800    -0.000000008990    -0.000000507604

  **** Optimization is complete! (in 10 steps) ****
    Final optimized geometry and variables:
    Molecular point group: c1

    Geometry (in Angstrom), charge = 0, multiplicity = 1:

    O            1.888067940963     0.238620600107    -0.197875661151
    C            0.815250472512     0.663204887948     0.088469865287
    C           -0.473762963333    -0.123444520384     0.091467242814
    O            0.607425196912     1.922558670018     0.452858910882
    C           -0.273485661032    -1.582465752100    -0.323712034778
    H           -0.891363650678    -0.045545319980     1.091007209955
    H           -1.165454918017     0.399071980687    -0.560514905511
    C           -1.550048722220    -2.461139486573    -0.293981008568
    H            0.456199211871    -1.998587369811     0.361225842904
    H            0.174519079018    -1.602340440339    -1.309763284935
    C           -2.893205453348    -1.723380862486    -0.347376359318
    H           -1.527188552561    -3.117670136865    -1.158505882070
    H           -1.537341755340    -3.094292805453     0.587409349593
    H           -2.979496556793    -1.110744426829    -1.240070750796
    H           -3.707690032977    -2.440761358832    -0.367174852284
    H           -3.048413291881    -1.081161283572     0.513138893552
    C            1.737392484285     2.774859377246     0.492573399263
    H            2.467394186265     2.405736255716     1.198539648803
    H            1.368777296771     3.739249684805     0.805743116561
    H            2.193317195325     2.847467949146    -0.484354949552

  Mulliken Charges: (a.u.)
   Center  Symbol    Alpha    Beta     Spin     Total
       1     O     4.28590  4.28590  0.00000 -0.57180
       2     C     2.60502  2.60502  0.00000  0.78996
       3     C     3.21133  3.21133  0.00000 -0.42266
       4     O     4.30743  4.30743  0.00000 -0.61485
       5     C     3.15602  3.15602  0.00000 -0.31205
       6     H     0.40069  0.40069  0.00000  0.19863
       7     H     0.39902  0.39902  0.00000  0.20195
       8     C     3.15624  3.15624  0.00000 -0.31248
       9     H     0.40925  0.40925  0.00000  0.18149
      10     H     0.40964  0.40964  0.00000  0.18073
      11     C     3.24531  3.24531  0.00000 -0.49061
      12     H     0.41754  0.41754  0.00000  0.16492
      13     H     0.41856  0.41856  0.00000  0.16288
      14     H     0.42129  0.42129  0.00000  0.15742
      15     H     0.41675  0.41675  0.00000  0.16651
      16     H     0.42093  0.42093  0.00000  0.15814
      17     C     3.09231  3.09231  0.00000 -0.18462
      18     H     0.40916  0.40916  0.00000  0.18169
      19     H     0.40849  0.40849  0.00000  0.18302
      20     H     0.40913  0.40913  0.00000  0.18173

   Total alpha = 32.00000, Total beta = 32.00000, Total charge = -0.00000
