                              Psi4 1.0.54 Driver

  ==> Input File <==

--------------------------------------------------------------------------
set {
	reference rhf
	basis cc-pvtz
}

set_num_threads( 4 )
memory 2 gb

molecule MOL {
0 1

O	 -2.817697	 1.304178	 0.001046
C	 -2.664672	 0.129869	 0.003507
C	 -3.797908	 -0.860100	 -0.001145
O	 -1.481217	 -0.452708	 0.001092
H	 -4.408836	 -0.679689	 -0.875387
H	 -3.443486	 -1.878443	 -0.002770
H	 -4.412123	 -0.683688	 0.871605
C	 -0.332055	 0.384012	 -0.000250
C	 0.892252	 -0.506059	 -0.000295
H	 -0.360822	 1.020205	 -0.874146
H	 -0.359817	 1.021310	 0.872861
C	 2.188199	 0.299473	 -0.001416
H	 0.857046	 -1.152781	 -0.871031
H	 0.857910	 -1.151798	 0.871202
C	 3.437151	 -0.577593	 -0.000991
H	 2.209565	 0.950707	 -0.871712
H	 2.210062	 0.952234	 0.867721
C	 4.123433	 -0.640851	 -1.361147
H	 3.169225	 -1.581838	 0.314862
H	 4.137867	 -0.202236	 0.739408
H	 3.458199	 -1.044903	 -2.116826
H	 5.005002	 -1.270250	 -1.326521
H	 4.434056	 0.345449	 -1.689138

	symmetry c1
}
set optking {
	frozen_dihedral = ("
		19 15 12 16
	")
}

ee,wfn = optimize('scf', return_wfn=True)
oeprop( wfn, 'DIPOLE', 'QUADRUPOLE', 'MULLIKEN_CHARGES')
f=open( 'psi4out.xyz', 'w' )
f.write( "23  " )
f.write( str(ee) + "\n" )
f.write( MOL.save_string_xyz() )
f.close()
--------------------------------------------------------------------------

    Molecular point group: c1
  Charge       = 0
  Multiplicity = 1
  Basis Set: CC-PVTZ
  Basis Set:
  @DF-RHF Final Energy:  -423.12966334122524
    Total Energy =                       -423.1296633412258643
    Molecular point group: c1
  Basis Set: CC-PVTZ
  Basis Set:
  Basis Set: CC-PVTZ
  Basis Set:
  @DF-RHF Final Energy:  -423.12979664401746
    Total Energy =                       -423.1297966440179152
  Basis Set: CC-PVTZ
  Basis Set:
  Basis Set: CC-PVTZ
  Basis Set:
  @DF-RHF Final Energy:  -423.12991893893246
    Total Energy =                       -423.1299189389324056
  Basis Set: CC-PVTZ
  Basis Set:
  Basis Set: CC-PVTZ
  Basis Set:
  @DF-RHF Final Energy:  -423.13003555435699
    Total Energy =                       -423.1300355543572778
  Basis Set: CC-PVTZ
  Basis Set:
  Basis Set: CC-PVTZ
  Basis Set:
  @DF-RHF Final Energy:  -423.13006084165670
    Total Energy =                       -423.1300608416565865
  Basis Set: CC-PVTZ
  Basis Set:
  Charge       = 0
  Multiplicity = 1
  Basis Set: CC-PVTZ
  Basis Set:

    Orbital Energies (a.u.)
    -----------------------

    Doubly Occupied:

       1A    -20.595972     2A    -20.529551     3A    -11.366423
       4A    -11.279268     5A    -11.230709     6A    -11.222598
       7A    -11.221291     8A    -11.219417     9A    -11.211427
      10A     -1.471200    11A     -1.364033    12A     -1.094232
      13A     -1.042071    14A     -1.003480    15A     -0.931110
      16A     -0.846780    17A     -0.800372    18A     -0.775365
      19A     -0.694111    20A     -0.688502    21A     -0.672620
      22A     -0.636943    23A     -0.616608    24A     -0.596448
      25A     -0.581841    26A     -0.572034    27A     -0.549015
      28A     -0.533007    29A     -0.529176    30A     -0.505754
      31A     -0.500372    32A     -0.474278    33A     -0.466317
      34A     -0.465206    35A     -0.455335    36A     -0.438780

  @DF-RHF Final Energy:  -423.13006177920369

   => Energetics <=

    Nuclear Repulsion Energy =            452.9177157012798602
    One-Electron Energy =               -1473.7322499627848629
    Two-Electron Energy =                 597.6844724823010893
    DFT Exchange-Correlation Energy =       0.0000000000000000
    Empirical Dispersion Energy =           0.0000000000000000
    PCM Polarization Energy =               0.0000000000000000
    EFP Energy =                            0.0000000000000000
    Total Energy =                       -423.1300617792039702
    Molecular point group: c1
  Basis Set: CC-PVTZ
  Basis Set:

  -Total Gradient:
     Atom            X                  Y                   Z
    ------   -----------------  -----------------  -----------------
       1        0.000025813683    -0.000019644269    -0.000011205189
       2       -0.000002706539     0.000001204792     0.000026055901
       3       -0.000001749326     0.000001137583    -0.000006322640
       4       -0.000033149383     0.000019741286    -0.000029032739
       5        0.000014415195     0.000005293892     0.000008465858
       6       -0.000002320429    -0.000007061455     0.000001752567
       7        0.000006868260    -0.000003112933    -0.000006343675
       8       -0.000012809919     0.000004438943    -0.000015965289
       9        0.000001731598     0.000012458199    -0.000029523569
      10        0.000000235481     0.000010612619     0.000002226267
      11       -0.000008383164    -0.000006526396     0.000009734997
      12        0.001762897557     0.002338441222     0.001280230387
      13        0.000002123810    -0.000032610877     0.000020668553
      14        0.000004768949     0.000025624623     0.000022102057
      15        0.000356026316     0.000455842547     0.003151704228
      16       -0.001540048175    -0.002058530323    -0.001575620726
      17        0.000002587363    -0.000006417153     0.000020055917
      18        0.000002952556    -0.000017845825     0.000005568124
      19       -0.000590992686    -0.000729813014    -0.002871963372
      20        0.000011249324     0.000018413005     0.000010239821
      21       -0.000018890208     0.000016355735    -0.000017227945
      22        0.000005418543    -0.000027246439    -0.000011692251
      23        0.000013961183    -0.000000755761     0.000016092717

  **** Optimization is complete! (in 6 steps) ****
    Final optimized geometry and variables:
    Molecular point group: c1

    Geometry (in Angstrom), charge = 0, multiplicity = 1:

    O           -2.746131624055     1.399020463594     0.109683584949
    C           -2.590073447124     0.225374134512     0.135517399339
    C           -3.720650068170    -0.767830728932     0.138919375697
    O           -1.405142040419    -0.353294456939     0.164216163439
    H           -4.321169805631    -0.608196646460    -0.746544837713
    H           -3.363580923993    -1.784987972436     0.163890380233
    H           -4.345996284595    -0.574147303133     1.000085622862
    C           -0.258776703967     0.486891816381     0.164047407146
    C            0.968155341915    -0.398434292320     0.200587750451
    H           -0.275721449558     1.106014202257    -0.722440492118
    H           -0.301334757954     1.141539760983     1.023886595347
    C            2.263712002905     0.412464523847     0.212411414978
    H            0.951210716942    -1.059232827273    -0.660550684366
    H            0.920754316919    -1.030625183680     1.081163411265
    C            3.523328601625    -0.471857112483     0.163897659530
    H            2.257309532948     1.075580116063    -0.647830067136
    H            2.279803018526     1.042799798943     1.095027357327
    C            4.149858180963    -0.546699710361    -1.227079498301
    H            3.267501970422    -1.480125739406     0.473478548548
    H            4.263459417782    -0.106352794851     0.866139979283
    H            3.436483871962    -0.910226781857    -1.959716275371
    H            5.002656914628    -1.215867980288    -1.237867595079
    H            4.489651388646     0.429725084857    -1.555052047312

  Mulliken Charges: (a.u.)
   Center  Symbol    Alpha    Beta     Spin     Total
       1     O     4.20242  4.20242  0.00000 -0.40485
       2     C     2.81508  2.81508  0.00000  0.36984
       3     C     3.13991  3.13991  0.00000 -0.27983
       4     O     4.14497  4.14497  0.00000 -0.28994
       5     H     0.44210  0.44210  0.00000  0.11580
       6     H     0.44190  0.44190  0.00000  0.11620
       7     H     0.44211  0.44211  0.00000  0.11578
       8     C     2.97951  2.97951  0.00000  0.04098
       9     C     3.08282  3.08282  0.00000 -0.16564
      10     H     0.45379  0.45379  0.00000  0.09241
      11     H     0.45399  0.45399  0.00000  0.09202
      12     C     3.10508  3.10508  0.00000 -0.21015
      13     H     0.45065  0.45065  0.00000  0.09869
      14     H     0.45026  0.45026  0.00000  0.09949
      15     C     3.09055  3.09055  0.00000 -0.18109
      16     H     0.45368  0.45368  0.00000  0.09263
      17     H     0.44526  0.44526  0.00000  0.10949
      18     C     3.14749  3.14749  0.00000 -0.29499
      19     H     0.45416  0.45416  0.00000  0.09169
      20     H     0.44663  0.44663  0.00000  0.10673
      21     H     0.45502  0.45502  0.00000  0.08996
      22     H     0.44845  0.44845  0.00000  0.10311
      23     H     0.45417  0.45417  0.00000  0.09166

   Total alpha = 36.00000, Total beta = 36.00000, Total charge = -0.00000

*** Psi4 exiting successfully. Buy a developer a beer!
