  ==> Input File <==

--------------------------------------------------------------------------
set {
	reference rhf
	basis 6-31G*
}

set_num_threads( 1 )
memory 2 gb

molecule MOL {
0 1

H	 3.367596	 -1.037032	 0.895900
O	 2.826016	 -1.159218	 0.122261
C	 2.077727	 -0.067559	 -0.035091
C	 0.624473	 -0.343591	 0.253101
O	 2.542965	 0.974826	 -0.363729
C	 -0.265902	 0.883932	 0.072916
H	 0.324016	 -1.163849	 -0.390541
H	 0.565024	 -0.726111	 1.268924
C	 -1.728698	 0.646073	 0.462102
H	 -0.209144	 1.219470	 -0.958188
H	 0.135059	 1.692851	 0.673903
C	 -2.482460	 -0.343073	 -0.431425
H	 -2.245265	 1.602650	 0.432430
H	 -1.779332	 0.308348	 1.496285
C	 -3.960546	 -0.461025	 -0.060175
H	 -2.395034	 -0.026811	 -1.468912
H	 -2.024850	 -1.327147	 -0.371646
H	 -4.472726	 -1.168004	 -0.705284
H	 -4.465146	 0.496508	 -0.151489
H	 -4.081218	 -0.800940	 0.964585

	symmetry c1
}
set optking {
	frozen_dihedral = ("
		16 12 9 6,
		7 4 6 10,
		12 9 6 10,
		5 3 4 7
	")
}

ee = energy('scf')
oeprop('DIPOLE', 'QUADRUPOLE', 'MULLIKEN_CHARGES')
f=open( 'psi4out.xyz', 'w' )
f.write( "20  " )
f.write( str(ee) + "\n" )
f.write( MOL.save_string_xyz() )
f.close()
--------------------------------------------------------------------------

    Molecular point group: c1

    Geometry (in Angstrom), charge = 0, multiplicity = 1:

       Center              X                  Y                   Z               Mass
    ------------   -----------------  -----------------  -----------------  -----------------
           H          3.370737903244    -1.036087896111     0.887509197037     1.007825032070
           O          2.829157903244    -1.158273896111     0.113870197037    15.994914619560
           C          2.080868903244    -0.066614896111    -0.043481802963    12.000000000000
           C          0.627614903244    -0.342646896111     0.244710197037    12.000000000000
           O          2.546106903244     0.975770103889    -0.372119802963    15.994914619560
           C         -0.262760096756     0.884876103889     0.064525197037    12.000000000000
           H          0.327157903244    -1.162904896111    -0.398931802963     1.007825032070
           H          0.568165903244    -0.725166896111     1.260533197037     1.007825032070
           C         -1.725556096756     0.647017103889     0.453711197037    12.000000000000
           H         -0.206002096756     1.220414103889    -0.966578802963     1.007825032070
           H          0.138200903244     1.693795103889     0.665512197037     1.007825032070
           C         -2.479318096756    -0.342128896111    -0.439815802963    12.000000000000
           H         -2.242123096756     1.603594103889     0.424039197037     1.007825032070
           H         -1.776190096756     0.309292103889     1.487894197037     1.007825032070
           C         -3.957404096756    -0.460080896111    -0.068565802963    12.000000000000
           H         -2.391892096756    -0.025866896111    -1.477302802963     1.007825032070
           H         -2.021708096756    -1.326202896111    -0.380036802963     1.007825032070
           H         -4.469584096756    -1.167059896111    -0.713674802963     1.007825032070
           H         -4.462004096756     0.497452103889    -0.159879802963     1.007825032070
           H         -4.078076096756    -0.799995896111     0.956194197037     1.007825032070

  Charge       = 0
  Multiplicity = 1
  Basis Set: 6-31G*
  Basis Set:

    Orbital Energies (a.u.)
    -----------------------

    Doubly Occupied:

       1A    -20.599318     2A    -20.558461     3A    -11.379939
       4A    -11.240125     5A    -11.222614     6A    -11.221012
       7A    -11.220426     8A    -11.212785     9A     -1.469715
      10A     -1.367497    11A     -1.096114    12A     -1.040143
      13A     -0.959090    14A     -0.866165    15A     -0.817002
      16A     -0.781280    17A     -0.709523    18A     -0.683196
      19A     -0.660772    20A     -0.640263    21A     -0.614072
      22A     -0.586536    23A     -0.563809    24A     -0.555576
      25A     -0.525237    26A     -0.513487    27A     -0.494796
      28A     -0.492691    29A     -0.469994    30A     -0.463971
      31A     -0.457980    32A     -0.442917

  @DF-RHF Final Energy:  -383.92916145101668

   => Energetics <=

    Nuclear Repulsion Energy =            375.9928178286057232
    One-Electron Energy =               -1267.9909424956006205
    Two-Electron Energy =                 508.0689632159766234
    DFT Exchange-Correlation Energy =       0.0000000000000000
    Empirical Dispersion Energy =           0.0000000000000000
    PCM Polarization Energy =               0.0000000000000000
    EFP Energy =                            0.0000000000000000
    Total Energy =                       -383.9291614510183308

  Mulliken Charges: (a.u.)
   Center  Symbol    Alpha    Beta     Spin     Total
       1     H     0.26485  0.26485  0.00000  0.47029
       2     O     4.35749  4.35749  0.00000 -0.71498
       3     C     2.63441  2.63441  0.00000  0.73118
       4     C     3.21107  3.21107  0.00000 -0.42214
       5     O     4.25647  4.25647  0.00000 -0.51293
       6     C     3.15511  3.15511  0.00000 -0.31022
       7     H     0.39590  0.39590  0.00000  0.20819
       8     H     0.40707  0.40707  0.00000  0.18587
       9     C     3.15521  3.15521  0.00000 -0.31042
      10     H     0.41141  0.41141  0.00000  0.17718
      11     H     0.40985  0.40985  0.00000  0.18030
      12     C     3.15478  3.15478  0.00000 -0.30957
      13     H     0.41800  0.41800  0.00000  0.16399
      14     H     0.42483  0.42483  0.00000  0.15033
      15     C     3.23919  3.23919  0.00000 -0.47838
      16     H     0.42100  0.42100  0.00000  0.15800
      17     H     0.42291  0.42291  0.00000  0.15418
      18     H     0.41818  0.41818  0.00000  0.16363
      19     H     0.42057  0.42057  0.00000  0.15886
      20     H     0.42169  0.42169  0.00000  0.15663

   Total alpha = 32.00000, Total beta = 32.00000, Total charge = -0.00000
