  ==> Input File <==

--------------------------------------------------------------------------
set {
	reference rhf
	basis cc-pvtz
}

set_num_threads( 4 )
memory 2 gb

molecule MOL {
0 1

H	 -2.171709	 0.882708	 0.500286
C	 -2.016894	 0.001719	 -0.114152
O	 -0.775228	 0.000056	 -0.739966
H	 -2.760846	 0.003757	 -0.898169
H	 -2.174774	 -0.879864	 0.498643
C	 0.400460	 0.177412	 0.025267
C	 1.522744	 0.113761	 -1.004933
C	 0.407126	 1.541447	 0.718092
C	 0.568573	 -0.948031	 1.047867
H	 1.394185	 0.892930	 -1.745522
H	 1.507662	 -0.841202	 -1.514759
H	 2.490179	 0.239792	 -0.533601
H	 0.222293	 2.329667	 -0.001780
H	 1.370835	 1.720535	 1.179701
H	 -0.342509	 1.606617	 1.496784
H	 0.497342	 -1.912871	 0.560321
H	 1.539386	 -0.877494	 1.523708
H	 -0.179604	 -0.903563	 1.829418

	symmetry c1
}
set optking {
	frozen_dihedral = ("
		6 3 2 5
	")
}

ee = optimize('scf')
oeprop('DIPOLE', 'QUADRUPOLE', 'MULLIKEN_CHARGES')
f=open( 'psi4out.xyz', 'w' )
f.write( "18  " )
f.write( str(ee) + "\n" )
f.write( MOL.save_string_xyz() )
f.close()
--------------------------------------------------------------------------

    Molecular point group: c1
  Charge       = 0
  Multiplicity = 1
  Basis Set: CC-PVTZ
  Basis Set:
  @DF-RHF Final Energy:  -271.27661919516731
    Total Energy =                       -271.2766191951670294
    Molecular point group: c1
  Basis Set: CC-PVTZ
  Basis Set:
  Basis Set: CC-PVTZ
  Basis Set:
  @DF-RHF Final Energy:  -271.27644834392356
    Total Energy =                       -271.2764483439236187
  Basis Set: CC-PVTZ
  Basis Set:
  Basis Set: CC-PVTZ
  Basis Set:
  @DF-RHF Final Energy:  -271.27670141079307
    Total Energy =                       -271.2767014107929526
  Basis Set: CC-PVTZ
  Basis Set:
  Basis Set: CC-PVTZ
  Basis Set:
  @DF-RHF Final Energy:  -271.27669947637594
    Total Energy =                       -271.2766994763757111
  Basis Set: CC-PVTZ
  Basis Set:
  Basis Set: CC-PVTZ
  Basis Set:
  @DF-RHF Final Energy:  -271.27670518697022
    Total Energy =                       -271.2767051869700481
  Basis Set: CC-PVTZ
  Basis Set:
  Charge       = 0
  Multiplicity = 1
  Basis Set: CC-PVTZ
  Basis Set:

    Orbital Energies (a.u.)
    -----------------------

    Doubly Occupied:

       1A    -20.540543     2A    -11.280129     3A    -11.258151
       4A    -11.207721     5A    -11.206454     6A    -11.201819
       7A     -1.373578     8A     -1.074619     9A     -0.946925
      10A     -0.940662    11A     -0.913201    12A     -0.753505
      13A     -0.656628    14A     -0.646784    15A     -0.639545
      16A     -0.593478    17A     -0.575506    18A     -0.553301
      19A     -0.534607    20A     -0.524994    21A     -0.515135
      22A     -0.488994    23A     -0.487718    24A     -0.440832
      25A     -0.407382

  @DF-RHF Final Energy:  -271.27670610317938

   => Energetics <=

    Nuclear Repulsion Energy =            272.6842293832675637
    One-Electron Energy =                -908.3974483878143928
    Two-Electron Energy =                 364.4365129013674505
    DFT Exchange-Correlation Energy =       0.0000000000000000
    Empirical Dispersion Energy =           0.0000000000000000
    PCM Polarization Energy =               0.0000000000000000
    EFP Energy =                            0.0000000000000000
    Total Energy =                       -271.2767061031793219
    Molecular point group: c1
  Basis Set: CC-PVTZ
  Basis Set:

  -Total Gradient:
     Atom            X                  Y                   Z
    ------   -----------------  -----------------  -----------------
       1        0.000008338427    -0.000000432163     0.000002288021
       2        0.000200020502     0.000387095886     0.000433108550
       3       -0.000010116285    -0.000555241850    -0.000091683504
       4       -0.000007226987     0.000002674386     0.000001261092
       5       -0.000179066123    -0.000165480497    -0.000345836408
       6       -0.000064571125     0.000338770016    -0.000030376897
       7        0.000006199758     0.000002137848     0.000015873017
       8        0.000004907403    -0.000007139598    -0.000008033411
       9        0.000031800581     0.000001077432     0.000017892942
      10       -0.000006826008    -0.000003539306     0.000011896886
      11        0.000002631530    -0.000003184265    -0.000002774420
      12        0.000007244658     0.000001351167    -0.000001759090
      13       -0.000005988248     0.000000880336     0.000003086244
      14        0.000009286335     0.000006013698     0.000006526313
      15        0.000002542189    -0.000003824103    -0.000009514664
      16        0.000005489059     0.000004560933    -0.000003794009
      17       -0.000007168202    -0.000006834107    -0.000001672101
      18        0.000002502538     0.000001114184     0.000003511439

  **** Optimization is complete! (in 6 steps) ****
    Final optimized geometry and variables:
    Molecular point group: c1

    Geometry (in Angstrom), charge = 0, multiplicity = 1:

    H           -2.182611976319     0.634688032064     0.586830637810
    C           -2.008109526212    -0.188975462860    -0.097367480028
    O           -0.774114258931    -0.108050781213    -0.733569682764
    H           -2.761813241320    -0.147792907119    -0.871107225137
    H           -2.131315869616    -1.121937767880     0.443479046263
    C            0.404706233672     0.039226065394     0.033434408652
    C            1.527521245797    -0.047217693306    -0.994455967332
    C            0.437479002994     1.404378377709     0.723816630084
    C            0.547222283640    -1.087767314563     1.057678813770
    H            1.410775887639     0.729135872022    -1.739892302850
    H            1.500198311861    -1.004961670222    -1.498557261451
    H            2.495920014355     0.068727738218    -0.522444259031
    H            0.280284694519     2.193795721964    -0.000988025620
    H            1.399511948224     1.561652608317     1.197059830197
    H           -0.319590296027     1.491221542927     1.492954251802
    H            0.461848841865    -2.052656623086     0.572245296124
    H            1.516558776809    -1.033629222725     1.538367580602
    H           -0.205167035696    -1.027979298209     1.834431549008

  Mulliken Charges: (a.u.)
   Center  Symbol    Alpha    Beta     Spin     Total
       1     H     0.47026  0.47026  0.00000  0.05948
       2     C     3.04459  3.04459  0.00000 -0.08917
       3     O     4.19015  4.19015  0.00000 -0.38029
       4     H     0.44096  0.44096  0.00000  0.11808
       5     H     0.46803  0.46803  0.00000  0.06395
       6     C     2.87381  2.87381  0.00000  0.25238
       7     C     3.14151  3.14151  0.00000 -0.28303
       8     C     3.16127  3.16127  0.00000 -0.32254
       9     C     3.16672  3.16672  0.00000 -0.33344
      10     H     0.44844  0.44844  0.00000  0.10313
      11     H     0.44926  0.44926  0.00000  0.10149
      12     H     0.45935  0.45935  0.00000  0.08131
      13     H     0.44575  0.44575  0.00000  0.10850
      14     H     0.44942  0.44942  0.00000  0.10116
      15     H     0.44927  0.44927  0.00000  0.10145
      16     H     0.44498  0.44498  0.00000  0.11004
      17     H     0.44733  0.44733  0.00000  0.10535
      18     H     0.44892  0.44892  0.00000  0.10216

   Total alpha = 25.00000, Total beta = 25.00000, Total charge =  0.00000
