  ==> Input File <==

--------------------------------------------------------------------------
set {
	reference rhf
	basis 6-31G*
}

set_num_threads( 1 )
memory 2 gb

molecule MOL {
0 1

H	 -1.570523	 -1.456917	 -0.230224
O	 -2.310168	 -0.871793	 -0.309793
C	 -2.026376	 0.340750	 0.341611
C	 -0.673256	 0.843270	 -0.132153
H	 -2.792215	 1.080697	 0.115987
H	 -2.013526	 0.200402	 1.421792
C	 0.486613	 -0.083066	 0.235839
H	 -0.715586	 0.970948	 -1.210718
H	 -0.508072	 1.829858	 0.297090
C	 1.840406	 0.433480	 -0.254303
H	 0.300215	 -1.068318	 -0.178947
H	 0.519509	 -0.203625	 1.318070
C	 3.000220	 -0.489290	 0.118523
H	 1.809207	 0.553576	 -1.335192
H	 2.021860	 1.424500	 0.157276
H	 2.864959	 -1.479103	 -0.307933
H	 3.946603	 -0.099227	 -0.243630
H	 3.080049	 -0.602997	 1.196117

	symmetry c1
}
set optking {
	frozen_dihedral = ("
		14 10 7 11,
		10 7 4 8,
		2 3 4 8
	")
}

ee = energy('scf')
oeprop('DIPOLE', 'QUADRUPOLE', 'MULLIKEN_CHARGES')
f=open( 'psi4out.xyz', 'w' )
f.write( "18  " )
f.write( str(ee) + "\n" )
f.write( MOL.save_string_xyz() )
f.close()
--------------------------------------------------------------------------

    Molecular point group: c1

    Geometry (in Angstrom), charge = 0, multiplicity = 1:

       Center              X                  Y                   Z               Mass
    ------------   -----------------  -----------------  -----------------  -----------------
           H         -1.588427080237    -1.454150071804    -0.227574424182     1.007825032070
           O         -2.328072080237    -0.869026071804    -0.307143424182    15.994914619560
           C         -2.044280080237     0.343516928196     0.344260575818    12.000000000000
           C         -0.691160080237     0.846036928196    -0.129503424182    12.000000000000
           H         -2.810119080237     1.083463928196     0.118636575818     1.007825032070
           H         -2.031430080237     0.203168928196     1.424441575818     1.007825032070
           C          0.468708919763    -0.080299071804     0.238488575818    12.000000000000
           H         -0.733490080237     0.973714928196    -1.208068424182     1.007825032070
           H         -0.525976080237     1.832624928196     0.299739575818     1.007825032070
           C          1.822501919763     0.436246928196    -0.251653424182    12.000000000000
           H          0.282310919763    -1.065551071804    -0.176297424182     1.007825032070
           H          0.501604919763    -0.200858071804     1.320719575818     1.007825032070
           C          2.982315919763    -0.486523071804     0.121172575818    12.000000000000
           H          1.791302919763     0.556342928196    -1.332542424182     1.007825032070
           H          2.003955919763     1.427266928196     0.159925575818     1.007825032070
           H          2.847054919763    -1.476336071804    -0.305283424182     1.007825032070
           H          3.928698919763    -0.096460071804    -0.240980424182     1.007825032070
           H          3.062144919763    -0.600230071804     1.198766575818     1.007825032070

  Charge       = 0
  Multiplicity = 1
  Basis Set: 6-31G*
  Basis Set:

    Orbital Energies (a.u.)
    -----------------------

    Doubly Occupied:

       1A    -20.548960     2A    -11.267945     3A    -11.225786
       4A    -11.222971     5A    -11.217006     6A    -11.214131
       7A     -1.358499     8A     -1.086215     9A     -1.014240
      10A     -0.924777    11A     -0.832026    12A     -0.796381
      13A     -0.684667    14A     -0.656956    15A     -0.621210
      16A     -0.611106    17A     -0.577340    18A     -0.566443
      19A     -0.530236    20A     -0.508775    21A     -0.492705
      22A     -0.479925    23A     -0.473183    24A     -0.452417
      25A     -0.427352

  @DF-RHF Final Energy:  -271.17587252185331

   => Energetics <=

    Nuclear Repulsion Energy =            250.4601629952310020
    One-Electron Energy =                -863.6893257525805438
    Two-Electron Energy =                 342.0532902354963198
    DFT Exchange-Correlation Energy =       0.0000000000000000
    Empirical Dispersion Energy =           0.0000000000000000
    PCM Polarization Energy =               0.0000000000000000
    EFP Energy =                            0.0000000000000000
    Total Energy =                       -271.1758725218531936

  Mulliken Charges: (a.u.)
   Center  Symbol    Alpha    Beta     Spin     Total
       1     H     0.27565  0.27565  0.00000  0.44870
       2     O     4.37578  4.37578  0.00000 -0.75157
       3     C     2.99114  2.99114  0.00000  0.01772
       4     C     3.16804  3.16804  0.00000 -0.33607
       5     H     0.41461  0.41461  0.00000  0.17079
       6     H     0.43140  0.43140  0.00000  0.13720
       7     C     3.16165  3.16165  0.00000 -0.32329
       8     H     0.41424  0.41424  0.00000  0.17151
       9     H     0.42350  0.42350  0.00000  0.15300
      10     C     3.15026  3.15026  0.00000 -0.30052
      11     H     0.43215  0.43215  0.00000  0.13571
      12     H     0.42061  0.42061  0.00000  0.15877
      13     C     3.23999  3.23999  0.00000 -0.47999
      14     H     0.42017  0.42017  0.00000  0.15967
      15     H     0.42059  0.42059  0.00000  0.15883
      16     H     0.42135  0.42135  0.00000  0.15731
      17     H     0.41767  0.41767  0.00000  0.16466
      18     H     0.42121  0.42121  0.00000  0.15758

   Total alpha = 25.00000, Total beta = 25.00000, Total charge = -0.00000
