  ==> Input File <==

--------------------------------------------------------------------------
set {
	reference rhf
	basis cc-pvtz
}

set_num_threads( 4 )
memory 2 gb

molecule MOL {
0 1

H	 -2.498963	 -0.741158	 -0.729149
O	 -2.346257	 -0.289210	 0.080372
C	 -1.183935	 0.486039	 -0.009831
C	 0.062853	 -0.375310	 0.027457
H	 -1.178881	 1.094526	 -0.908634
H	 -1.184406	 1.155156	 0.838676
O	 -0.293065	 -1.639629	 0.481626
H	 0.805719	 0.073660	 0.688873
H	 0.499861	 -0.425500	 -0.967571
C	 0.754425	 -2.551122	 0.537905
H	 1.537307	 -2.215579	 1.214501
H	 0.358715	 -3.488207	 0.901185
H	 1.193718	 -2.712585	 -0.443661

	symmetry c1
}
set optking {
	frozen_dihedral = ("
		8 4 3 5
	")
}

ee = optimize('scf')
oeprop('DIPOLE', 'QUADRUPOLE', 'MULLIKEN_CHARGES')
f=open( 'psi4out.xyz', 'w' )
f.write( "13  " )
f.write( str(ee) + "\n" )
f.write( MOL.save_string_xyz() )
f.close()
--------------------------------------------------------------------------

    Molecular point group: c1
  Charge       = 0
  Multiplicity = 1
  Basis Set: CC-PVTZ
  Basis Set:
  @DF-RHF Final Energy:  -268.04968386686085
    Total Energy =                       -268.0496838668608461
    Molecular point group: c1
  Basis Set: CC-PVTZ
  Basis Set:
  Basis Set: CC-PVTZ
  Basis Set:
  @DF-RHF Final Energy:  -268.05114162007999
    Total Energy =                       -268.0511416200798749
  Basis Set: CC-PVTZ
  Basis Set:
  Basis Set: CC-PVTZ
  Basis Set:
  @DF-RHF Final Energy:  -268.05244564160006
    Total Energy =                       -268.0524456416000021
  Basis Set: CC-PVTZ
  Basis Set:
  Basis Set: CC-PVTZ
  Basis Set:
  @DF-RHF Final Energy:  -268.05276580979370
    Total Energy =                       -268.0527658097934136
  Basis Set: CC-PVTZ
  Basis Set:
  @DF-RHF Final Energy:  -268.05349414719092
    Total Energy =                       -268.0534941471909747
  @DF-RHF Final Energy:  -268.05417503118417
    Total Energy =                       -268.0541750311840588
  @DF-RHF Final Energy:  -268.05593310988047
    Total Energy =                       -268.0559331098805274
  @DF-RHF Final Energy:  -268.05673619949079
    Total Energy =                       -268.0567361994907856
  @DF-RHF Final Energy:  -268.05742764185220
    Total Energy =                       -268.0574276418522004
  @DF-RHF Final Energy:  -268.05749494665145
    Total Energy =                       -268.0574949466513317
  Basis Set: CC-PVTZ
  Basis Set:
  @DF-RHF Final Energy:  -268.05813220977791
    Total Energy =                       -268.0581322097776820
  Basis Set: CC-PVTZ
  Basis Set:
  Basis Set: CC-PVTZ
  Basis Set:
  @DF-RHF Final Energy:  -268.05816116373308
    Total Energy =                       -268.0581611637330752
  Basis Set: CC-PVTZ
  Basis Set:
  Basis Set: CC-PVTZ
  Basis Set:
  @DF-RHF Final Energy:  -268.05816554829028
    Total Energy =                       -268.0581655482903898
  Basis Set: CC-PVTZ
  Basis Set:
  Charge       = 0
  Multiplicity = 1
  Basis Set: CC-PVTZ
  Basis Set:

    Orbital Energies (a.u.)
    -----------------------

    Doubly Occupied:

       1A    -20.564183     2A    -20.534528     3A    -11.276653
       4A    -11.273985     5A    -11.267202     6A     -1.401555
       7A     -1.351908     8A     -1.017280     9A     -0.925731
      10A     -0.836249    11A     -0.703809    12A     -0.688248
      13A     -0.667310    14A     -0.633843    15A     -0.594723
      16A     -0.570628    17A     -0.550233    18A     -0.495264
      19A     -0.478962    20A     -0.446262    21A     -0.420168

  @DF-RHF Final Energy:  -268.05816662531663

   => Energetics <=

    Nuclear Repulsion Energy =            195.4219773086321936
    One-Electron Energy =                -753.5628388364433476
    Two-Electron Energy =                 290.0826949024947226
    DFT Exchange-Correlation Energy =       0.0000000000000000
    Empirical Dispersion Energy =           0.0000000000000000
    PCM Polarization Energy =               0.0000000000000000
    EFP Energy =                            0.0000000000000000
    Total Energy =                       -268.0581666253164030
    Molecular point group: c1
  Basis Set: CC-PVTZ
  Basis Set:

  -Total Gradient:
     Atom            X                  Y                   Z
    ------   -----------------  -----------------  -----------------
       1       -0.000013078343    -0.000003667769    -0.000003675980
       2       -0.000037301973    -0.000032708057     0.000002976681
       3        0.003579176544     0.005477013283     0.007143097736
       4        0.003569459907     0.004447650268    -0.007847032590
       5       -0.003548229768    -0.005305512079    -0.004757840880
       6       -0.000002302133     0.000000577260    -0.000005412441
       7        0.000017685801    -0.000012933849     0.000016046860
       8       -0.003551328955    -0.004580709258     0.005447882086
       9        0.000004155945     0.000004278327     0.000006240918
      10       -0.000031228380     0.000016313606     0.000008368542
      11       -0.000000183064    -0.000000032058    -0.000002298763
      12        0.000005312492    -0.000006293651    -0.000002094362
      13        0.000007861925    -0.000003976022    -0.000006257805

  **** Optimization is complete! (in 14 steps) ****
    Final optimized geometry and variables:
    Molecular point group: c1

    Geometry (in Angstrom), charge = 0, multiplicity = 1:

    H           -1.654377780548    -0.168265805754    -0.007411080084
    O           -1.716800831259     0.670342504445    -0.429568444756
    C           -0.552959898748     1.395271492368    -0.166953724945
    C            0.695865164623     0.502172815930    -0.103247461289
    H           -0.456118560845     2.077664755157    -1.000864021963
    H           -0.656261921487     1.960344816492     0.753485670671
    O            0.304272637056    -0.783051545265     0.285075775156
    H            1.373382713696     0.882185179891     0.657537354307
    H            1.206210072950     0.460930439472    -1.060742561613
    C            1.347344576402    -1.694236399854     0.406647535757
    H            2.063026325092    -1.379121844782     1.162007641042
    H            0.924895554520    -2.643701485780     0.700929406400
    H            1.872941517176    -1.820823538955    -0.536382194750

  Mulliken Charges: (a.u.)
   Center  Symbol    Alpha    Beta     Spin     Total
       1     H     0.38254  0.38254  0.00000  0.23492
       2     O     4.20857  4.20857  0.00000 -0.41713
       3     C     2.95909  2.95909  0.00000  0.08181
       4     C     2.97236  2.97236  0.00000  0.05529
       5     H     0.46486  0.46486  0.00000  0.07027
       6     H     0.47352  0.47352  0.00000  0.05297
       7     O     4.18327  4.18327  0.00000 -0.36655
       8     H     0.47173  0.47173  0.00000  0.05654
       9     H     0.47011  0.47011  0.00000  0.05979
      10     C     3.02983  3.02983  0.00000 -0.05967
      11     H     0.46921  0.46921  0.00000  0.06157
      12     H     0.44617  0.44617  0.00000  0.10765
      13     H     0.46873  0.46873  0.00000  0.06254

   Total alpha = 21.00000, Total beta = 21.00000, Total charge = -0.00000
