                              Psi4 1.0.54 Driver

  ==> Input File <==

--------------------------------------------------------------------------
set {
	reference rhf
	basis cc-pvtz
}

set_num_threads( 4 )
memory 2 gb

molecule MOL {
0 1

H	 -2.149496	 -2.244167	 0.000000
O	 -2.454378	 -1.354528	 0.000000
C	 -1.430628	 -0.482077	 0.000000
C	 -0.943967	 -0.067339	 1.231188
C	 -0.865382	 -0.000368	 -1.161755
H	 -1.396941	 -0.453368	 2.122718
C	 0.102434	 0.824415	 1.291418
H	 -1.231997	 -0.312801	 -2.120883
C	 0.189657	 0.898748	 -1.083575
H	 0.472727	 1.139983	 2.247261
C	 0.682150	 1.318456	 0.135744
C	 0.775087	 1.397657	 -2.304095
H	 1.496588	 2.012529	 0.179665
N	 1.230525	 1.785787	 -3.260451

	symmetry c1
}
set optking {
	frozen_dihedral = ("
		5 3 2 1
	")
}

ee,wfn = optimize('scf', return_wfn=True)
oeprop( wfn, 'DIPOLE', 'QUADRUPOLE', 'MULLIKEN_CHARGES')
f=open( 'psi4out.xyz', 'w' )
f.write( "14  " )
f.write( str(ee) + "\n" )
f.write( MOL.save_string_xyz() )
f.close()
--------------------------------------------------------------------------

    Molecular point group: c1
  Charge       = 0
  Multiplicity = 1
  Basis Set: CC-PVTZ
  Basis Set:
  @DF-RHF Final Energy:  -397.42762514306941
    Total Energy =                       -397.4276251430695766
    Molecular point group: c1
  Basis Set: CC-PVTZ
  Basis Set:
  Basis Set: CC-PVTZ
  Basis Set:
  @DF-RHF Final Energy:  -397.42853653567664
    Total Energy =                       -397.4285365356765851
  Basis Set: CC-PVTZ
  Basis Set:
  Basis Set: CC-PVTZ
  Basis Set:
  @DF-RHF Final Energy:  -397.42864713670770
    Total Energy =                       -397.4286471367075819
  Basis Set: CC-PVTZ
  Basis Set:
  Basis Set: CC-PVTZ
  Basis Set:
  @DF-RHF Final Energy:  -397.42865848261067
    Total Energy =                       -397.4286584826107855
  Basis Set: CC-PVTZ
  Basis Set:
  Charge       = 0
  Multiplicity = 1
  Basis Set: CC-PVTZ
  Basis Set:

    Orbital Energies (a.u.)
    -----------------------

    Doubly Occupied:

       1A    -20.592647     2A    -15.564775     3A    -11.316063
       4A    -11.291302     5A    -11.268388     6A    -11.262430
       7A    -11.261545     8A    -11.260036     9A    -11.256608
      10A     -1.421198    11A     -1.237899    12A     -1.187623
      13A     -1.066668    14A     -1.043030    15A     -0.896102
      16A     -0.864899    17A     -0.786084    18A     -0.714346
      19A     -0.699880    20A     -0.686696    21A     -0.637261
      22A     -0.624218    23A     -0.570133    24A     -0.559446
      25A     -0.555013    26A     -0.549218    27A     -0.500978
      28A     -0.486302    29A     -0.478438    30A     -0.367108
      31A     -0.356801

  @DF-RHF Final Energy:  -397.42866093204202

   => Energetics <=

    Nuclear Repulsion Energy =            379.9086144391546895
    One-Electron Energy =               -1291.9482838921887833
    Two-Electron Energy =                 514.6110085209924137
    DFT Exchange-Correlation Energy =       0.0000000000000000
    Empirical Dispersion Energy =           0.0000000000000000
    PCM Polarization Energy =               0.0000000000000000
    EFP Energy =                            0.0000000000000000
    Total Energy =                       -397.4286609320416801
    Molecular point group: c1
  Basis Set: CC-PVTZ
  Basis Set:

  -Total Gradient:
     Atom            X                  Y                   Z
    ------   -----------------  -----------------  -----------------
       1       -0.000016331689     0.000065470411     0.000191164941
       2       -0.000198792949    -0.000137365480    -0.000188188116
       3        0.000444343462     0.000026823816    -0.000152373692
       4       -0.000030812240    -0.000009640986     0.000097063540
       5       -0.000276482951     0.000025947961     0.000035731984
       6        0.000005591709     0.000023518558    -0.000017725376
       7       -0.000079527007    -0.000104581694     0.000050018062
       8       -0.000029913530    -0.000012359321     0.000015332663
       9        0.000229455462     0.000081551301     0.000082525982
      10        0.000025442523     0.000023260929    -0.000021097682
      11       -0.000065852075     0.000011238833    -0.000196298217
      12        0.000039747969     0.000020078923     0.000056354191
      13        0.000003303131     0.000011014619     0.000046596963
      14       -0.000050171816    -0.000024957875     0.000000894757

  **** Optimization is complete! (in 5 steps) ****
    Final optimized geometry and variables:
    Molecular point group: c1

    Geometry (in Angstrom), charge = 0, multiplicity = 1:

    H           -1.820191500768    -2.665033387655     0.485185843457
    O           -2.112699460608    -1.770634179898     0.517759948831
    C           -1.053683788346    -0.913464689181     0.571731642536
    C           -0.573952882408    -0.485803602409     1.795634171480
    C           -0.500973337451    -0.432369732570    -0.596144261219
    H           -1.029262804666    -0.858439032428     2.692256611248
    C            0.469739419867     0.417236728099     1.851935815448
    H           -0.889501978692    -0.753939759131    -1.541607335088
    C            0.547200758644     0.472065557339    -0.529808352318
    H            0.838557071072     0.746785557244     2.803456627175
    C            1.038819359037     0.900884858290     0.691538117313
    C            1.128419964470     0.972893628508    -1.750934349465
    H            1.847731450077     1.602588041452     0.727998616154
    N            1.584403430123     1.363054647198    -2.706311781477

  Mulliken Charges: (a.u.)
   Center  Symbol    Alpha    Beta     Spin     Total
       1     H     0.38606  0.38606  0.00000  0.22788
       2     O     4.18657  4.18657  0.00000 -0.37314
       3     C     2.86183  2.86183  0.00000  0.27633
       4     C     3.10688  3.10688  0.00000 -0.21375
       5     C     3.12489  3.12489  0.00000 -0.24978
       6     H     0.41197  0.41197  0.00000  0.17606
       7     C     3.06092  3.06092  0.00000 -0.12183
       8     H     0.40747  0.40747  0.00000  0.18506
       9     C     2.93072  2.93072  0.00000  0.13857
      10     H     0.41598  0.41598  0.00000  0.16803
      11     C     3.09408  3.09408  0.00000 -0.18817
      12     C     3.02398  3.02398  0.00000 -0.04797
      13     H     0.41358  0.41358  0.00000  0.17284
      14     N     3.57507  3.57507  0.00000 -0.15015

   Total alpha = 31.00000, Total beta = 31.00000, Total charge = -0.00000

*** Psi4 exiting successfully. Buy a developer a beer!
