  ==> Input File <==

--------------------------------------------------------------------------
set {
	reference rhf
	basis 6-31G*
}

set_num_threads( 1 )
memory 2 gb

molecule MOL {
0 1

O	 -0.291628	 1.323815	 -0.000732
C	 -0.449655	 0.146360	 0.000961
C	 -1.783294	 -0.549321	 -0.000296
O	 0.550821	 -0.724572	 0.000672
H	 -1.863538	 -1.185371	 -0.874187
H	 -2.574672	 0.185258	 -0.002793
H	 -1.866414	 -1.182381	 0.875436
C	 0.400890	 -1.874507	 0.813969
H	 0.286101	 -1.593602	 1.850922
H	 1.303333	 -2.450136	 0.679822
H	 -0.459905	 -2.449028	 0.503645

	symmetry c1
}
set optking {
	frozen_dihedral = ("
		2 4 8 9
	")
}

ee = energy('scf')
oeprop('DIPOLE', 'QUADRUPOLE', 'MULLIKEN_CHARGES')
f=open( 'psi4out.xyz', 'w' )
f.write( "11  " )
f.write( str(ee) + "\n" )
f.write( MOL.save_string_xyz() )
f.close()
--------------------------------------------------------------------------

    Molecular point group: c1

    Geometry (in Angstrom), charge = 0, multiplicity = 1:

       Center              X                  Y                   Z               Mass
    ------------   -----------------  -----------------  -----------------  -----------------
           O          0.019764912501     1.681582041864    -0.174040800208    15.994914619560
           C         -0.138262087499     0.504127041864    -0.172347800208    12.000000000000
           C         -1.471901087499    -0.191553958136    -0.173604800208    12.000000000000
           O          0.862213912501    -0.366804958136    -0.172636800208    15.994914619560
           H         -1.552145087499    -0.827603958136    -1.047495800208     1.007825032070
           H         -2.263279087499     0.543025041864    -0.176101800208     1.007825032070
           H         -1.555021087499    -0.824613958136     0.702127199792     1.007825032070
           C          0.712282912501    -1.516739958136     0.640660199792    12.000000000000
           H          0.597493912501    -1.235834958136     1.677613199792     1.007825032070
           H          1.614725912501    -2.092368958136     0.506513199792     1.007825032070
           H         -0.148512087499    -2.091260958136     0.330336199792     1.007825032070

  Charge       = 0
  Multiplicity = 1
  Basis Set: 6-31G*
  Basis Set:

    Orbital Energies (a.u.)
    -----------------------

    Doubly Occupied:

       1A    -20.601809     2A    -20.550533     3A    -11.378829
       4A    -11.299585     5A    -11.239649     6A     -1.468517
       7A     -1.371485     8A     -1.024689     9A     -0.987236
      10A     -0.784747    11A     -0.698605    12A     -0.690665
      13A     -0.682443    14A     -0.618723    15A     -0.590055
      16A     -0.570780    17A     -0.552643    18A     -0.506604
      19A     -0.458506    20A     -0.438205

  @DF-RHF Final Energy:  -266.81154808849806

   => Energetics <=

    Nuclear Repulsion Energy =            184.5851309962534117
    One-Electron Energy =                -729.7647133991607689
    Two-Electron Energy =                 278.3680343144094422
    DFT Exchange-Correlation Energy =       0.0000000000000000
    Empirical Dispersion Energy =           0.0000000000000000
    PCM Polarization Energy =               0.0000000000000000
    EFP Energy =                            0.0000000000000000
    Total Energy =                       -266.8115480884979434

  Mulliken Charges: (a.u.)
   Center  Symbol    Alpha    Beta     Spin     Total
       1     O     4.26169  4.26169  0.00000 -0.52339
       2     C     2.61559  2.61559  0.00000  0.76882
       3     C     3.31158  3.31158  0.00000 -0.62316
       4     O     4.29408  4.29408  0.00000 -0.58815
       5     H     0.39790  0.39790  0.00000  0.20420
       6     H     0.39134  0.39134  0.00000  0.21732
       7     H     0.40347  0.40347  0.00000  0.19307
       8     C     3.10295  3.10295  0.00000 -0.20589
       9     H     0.41092  0.41092  0.00000  0.17817
      10     H     0.39711  0.39711  0.00000  0.20578
      11     H     0.41338  0.41338  0.00000  0.17323

   Total alpha = 20.00000, Total beta = 20.00000, Total charge = -0.00000
