  ==> Input File <==

--------------------------------------------------------------------------
set {
	reference rhf
	basis 6-31G*
}

set_num_threads( 4 )
memory 2 gb

molecule MOL {
0 1

H	 -3.547944	 0.182291	 2.683557
O	 -2.833291	 -0.375302	 2.411039
C	 -1.957494	 0.348848	 1.585704
C	 -0.826153	 -0.574280	 1.168992
H	 -2.479873	 0.719710	 0.704858
H	 -1.557933	 1.212552	 2.115520
C	 0.198102	 0.111031	 0.262842
H	 -1.255789	 -1.435313	 0.664253
H	 -0.341830	 -0.948348	 2.066757
C	 1.331804	 -0.827780	 -0.158768
H	 -0.307404	 0.499818	 -0.617772
H	 0.621580	 0.971845	 0.778774
C	 2.723619	 -0.410569	 0.329459
H	 1.342964	 -0.912588	 -1.244120
H	 1.116806	 -1.824343	 0.220779
C	 3.243875	 0.895854	 -0.272975
H	 3.424222	 -1.207124	 0.091250
H	 2.714788	 -0.329854	 1.414619
H	 3.251977	 0.848779	 -1.358681
H	 2.637085	 1.747371	 0.016682
H	 4.259473	 1.094070	 0.055697

	symmetry c1
}
set optking {
	frozen_dihedral = ("
		4 7 10 14
	")
}

ee = optimize('scf')
oeprop('DIPOLE', 'QUADRUPOLE', 'MULLIKEN_CHARGES')
f=open( 'psi4out.xyz', 'w' )
f.write( "21  " )
f.write( str(ee) + "\n" )
f.write( MOL.save_string_xyz() )
f.close()
--------------------------------------------------------------------------

    Molecular point group: c1
  Charge       = 0
  Multiplicity = 1
  Basis Set: 6-31G*
  Basis Set:
  @DF-RHF Final Energy:  -310.20729521890263
    Total Energy =                       -310.2072952189025727
    Molecular point group: c1
  Basis Set: 6-31G*
  Basis Set:
  Basis Set: 6-31G*
  Basis Set:
  @DF-RHF Final Energy:  -310.20743231071361
    Total Energy =                       -310.2074323107136138
  Basis Set: 6-31G*
  Basis Set:
  Basis Set: 6-31G*
  Basis Set:
  @DF-RHF Final Energy:  -310.20769504008729
    Total Energy =                       -310.2076950400870601
  Basis Set: 6-31G*
  Basis Set:
  Basis Set: 6-31G*
  Basis Set:
  @DF-RHF Final Energy:  -310.20773207570744
    Total Energy =                       -310.2077320757075540
  Basis Set: 6-31G*
  Basis Set:
  Basis Set: 6-31G*
  Basis Set:
  @DF-RHF Final Energy:  -310.20774284211876
    Total Energy =                       -310.2077428421191598
  Basis Set: 6-31G*
  Basis Set:
  Charge       = 0
  Multiplicity = 1
  Basis Set: 6-31G*
  Basis Set:

    Orbital Energies (a.u.)
    -----------------------

    Doubly Occupied:

       1A    -20.551874     2A    -11.266858     3A    -11.215671
       4A    -11.215145     5A    -11.213206     6A    -11.211006
       7A    -11.208091     8A     -1.358672     9A     -1.084545
      10A     -1.032887    11A     -0.952725    12A     -0.875282
      13A     -0.810598    14A     -0.777437    15A     -0.691893
      16A     -0.658729    17A     -0.625148    18A     -0.607203
      19A     -0.578839    20A     -0.572523    21A     -0.540719
      22A     -0.521906    23A     -0.502177    24A     -0.490529
      25A     -0.481638    26A     -0.456361    27A     -0.453080
      28A     -0.443623    29A     -0.434192

  @DF-RHF Final Energy:  -310.20774372594138

   => Energetics <=

    Nuclear Repulsion Energy =            313.1933947280091957
    One-Electron Energy =               -1041.1371555992302547
    Two-Electron Energy =                 417.7360171452795612
    DFT Exchange-Correlation Energy =       0.0000000000000000
    Empirical Dispersion Energy =           0.0000000000000000
    PCM Polarization Energy =               0.0000000000000000
    EFP Energy =                            0.0000000000000000
    Total Energy =                       -310.2077437259414410
    Molecular point group: c1
  Basis Set: 6-31G*
  Basis Set:

  -Total Gradient:
     Atom            X                  Y                   Z
    ------   -----------------  -----------------  -----------------
       1        0.000014558226     0.000009049212    -0.000007328019
       2        0.000029790310    -0.000013960916     0.000000099501
       3        0.000008501043     0.000030336056     0.000020107428
       4        0.000067552187    -0.000030690762     0.000070727132
       5        0.000009171658    -0.000014953201     0.000000207870
       6       -0.000005378149     0.000012386762     0.000004214336
       7       -0.000065183746    -0.000017986191    -0.000194207288
       8       -0.000039274118     0.000017092652    -0.000002237713
       9       -0.000000097467    -0.000033917161    -0.000011861014
      10       -0.000101736017    -0.000111215807     0.000141987669
      11        0.000000553068    -0.000021075022    -0.000033783190
      12        0.000031017917    -0.000001362027    -0.000018239509
      13       -0.000001258312     0.000005434439    -0.000019917705
      14        0.000078953289     0.000163798392    -0.000007615269
      15       -0.000032756235    -0.000006175617     0.000038041335
      16       -0.000008587535     0.000031972161     0.000043458323
      17        0.000012894528    -0.000008423869    -0.000002148209
      18        0.000000968574     0.000003219048    -0.000031001789
      19       -0.000018918814    -0.000026012856     0.000020428619
      20        0.000011010914     0.000012705540     0.000004976308
      21        0.000008218685    -0.000000220830    -0.000015908820

  **** Optimization is complete! (in 6 steps) ****
    Final optimized geometry and variables:
    Molecular point group: c1

    Geometry (in Angstrom), charge = 0, multiplicity = 1:

    H           -3.760559852713     0.272930906924     1.904463073245
    O           -3.055679439543    -0.286289808354     1.610678314598
    C           -2.166254717202     0.453906412648     0.814642207221
    C           -1.052178179676    -0.472294150557     0.361262981531
    H           -2.681023691624     0.869108676965    -0.050857752883
    H           -1.751256448808     1.288512957489     1.378321417883
    C           -0.015116698185     0.228171092580    -0.519700413048
    H           -1.496385163566    -1.306300414732    -0.175106954270
    H           -0.571766508238    -0.888798878857     1.242754423255
    C            1.136224521966    -0.707449395327    -0.956234641239
    H           -0.511402566394     0.642366813088    -1.393689365385
    H            0.388096616199     1.079498298365     0.023627928714
    C            2.521316273832    -0.288159985871    -0.449461762938
    H            1.168669523008    -0.775236495307    -2.040744316528
    H            0.930358491835    -1.713910810819    -0.602004030571
    C            3.059008219353     0.986839646978    -1.100894170129
    H            3.222915587516    -1.097627912617    -0.635693509607
    H            2.485119883700    -0.159311935213     0.630584423840
    H            3.149637363959     0.862561690935    -2.176532628792
    H            2.410226013655     1.838680451482    -0.922072400743
    H            4.041743508536     1.237718924479    -0.713457298590

  Mulliken Charges: (a.u.)
   Center  Symbol    Alpha    Beta     Spin     Total
       1     H     0.28118  0.28118  0.00000  0.43764
       2     O     4.37166  4.37166  0.00000 -0.74332
       3     C     2.99046  2.99046  0.00000  0.01908
       4     C     3.16127  3.16127  0.00000 -0.32253
       5     H     0.43286  0.43286  0.00000  0.13428
       6     H     0.43295  0.43295  0.00000  0.13410
       7     C     3.16342  3.16342  0.00000 -0.32683
       8     H     0.41429  0.41429  0.00000  0.17142
       9     H     0.41489  0.41489  0.00000  0.17022
      10     C     3.15600  3.15600  0.00000 -0.31200
      11     H     0.42063  0.42063  0.00000  0.15875
      12     H     0.42122  0.42122  0.00000  0.15757
      13     C     3.15409  3.15409  0.00000 -0.30819
      14     H     0.42114  0.42114  0.00000  0.15771
      15     H     0.41701  0.41701  0.00000  0.16598
      16     C     3.24034  3.24034  0.00000 -0.48068
      17     H     0.42121  0.42121  0.00000  0.15758
      18     H     0.42316  0.42316  0.00000  0.15369
      19     H     0.42208  0.42208  0.00000  0.15583
      20     H     0.42080  0.42080  0.00000  0.15840
      21     H     0.41935  0.41935  0.00000  0.16130

   Total alpha = 29.00000, Total beta = 29.00000, Total charge =  0.00000
