                              Psi4 1.0.54 Driver

  ==> Input File <==

--------------------------------------------------------------------------
set {
	reference rhf
	basis cc-pvtz
}

set_num_threads( 4 )
memory 2 gb

molecule MOL {
0 1

H	 3.083659	 -1.378387	 0.000000
O	 2.179005	 -1.633391	 0.000000
C	 1.366950	 -0.558201	 0.000000
C	 0.110494	 -0.579111	 0.586141
C	 1.823565	 0.591903	 -0.610560
H	 -0.243631	 -1.475892	 1.061336
C	 -0.685356	 0.548241	 0.560525
H	 2.793481	 0.611229	 -1.064137
C	 1.019466	 1.717223	 -0.631669
H	 -1.655636	 0.520344	 1.017253
C	 -0.236006	 1.702765	 -0.048226
C	 1.499553	 2.962440	 -1.286138
H	 -0.852617	 2.580955	 -0.069721
O	 2.551514	 3.084565	 -1.813285
H	 0.793977	 3.798257	 -1.251902

	symmetry c1
}
set optking {
	frozen_dihedral = ("
		4 3 2 1
	")
}

ee,wfn = optimize('scf', return_wfn=True)
oeprop( wfn, 'DIPOLE', 'QUADRUPOLE', 'MULLIKEN_CHARGES')
f=open( 'psi4out.xyz', 'w' )
f.write( "15  " )
f.write( str(ee) + "\n" )
f.write( MOL.save_string_xyz() )
f.close()
--------------------------------------------------------------------------

    Molecular point group: c1
  Charge       = 0
  Multiplicity = 1
  Basis Set: CC-PVTZ
  Basis Set:
  @DF-RHF Final Energy:  -418.43713520999989
    Total Energy =                       -418.4371352099999513
    Molecular point group: c1
  Basis Set: CC-PVTZ
  Basis Set:
  Basis Set: CC-PVTZ
  Basis Set:
  @DF-RHF Final Energy:  -418.43883324875867
    Total Energy =                       -418.4388332487584421
  Basis Set: CC-PVTZ
  Basis Set:
  Basis Set: CC-PVTZ
  Basis Set:
  @DF-RHF Final Energy:  -418.43870763363282
    Total Energy =                       -418.4387076336325890
  Basis Set: CC-PVTZ
  Basis Set:
  Basis Set: CC-PVTZ
  Basis Set:
  @DF-RHF Final Energy:  -418.43868482653494
    Total Energy =                       -418.4386848265347680
  Basis Set: CC-PVTZ
  Basis Set:
  Basis Set: CC-PVTZ
  Basis Set:
  @DF-RHF Final Energy:  -418.43899098698938
    Total Energy =                       -418.4389909869892108
  Basis Set: CC-PVTZ
  Basis Set:
  Basis Set: CC-PVTZ
  Basis Set:
  @DF-RHF Final Energy:  -418.43899469978680
    Total Energy =                       -418.4389946997866900
  Basis Set: CC-PVTZ
  Basis Set:
  Charge       = 0
  Multiplicity = 1
  Basis Set: CC-PVTZ
  Basis Set:

    Orbital Energies (a.u.)
    -----------------------

    Doubly Occupied:

       1A    -20.591866     2A    -20.556536     3A    -11.329970
       4A    -11.309568     5A    -11.251941     6A    -11.249180
       7A    -11.245819     8A    -11.243649     9A    -11.242001
      10A     -1.422710    11A     -1.412272    12A     -1.174751
      13A     -1.053172    14A     -1.029731    15A     -0.903247
      16A     -0.856341    17A     -0.799973    18A     -0.757589
      19A     -0.703880    20A     -0.673427    21A     -0.665279
      22A     -0.634255    23A     -0.619456    24A     -0.612197
      25A     -0.569653    26A     -0.557506    27A     -0.538423
      28A     -0.519148    29A     -0.492568    30A     -0.429033
      31A     -0.357930    32A     -0.335149

  @DF-RHF Final Energy:  -418.43899529926824

   => Energetics <=

    Nuclear Repulsion Energy =            404.0877045568365133
    One-Electron Energy =               -1370.7769622963605798
    Two-Electron Energy =                 548.2502624402557103
    DFT Exchange-Correlation Energy =       0.0000000000000000
    Empirical Dispersion Energy =           0.0000000000000000
    PCM Polarization Energy =               0.0000000000000000
    EFP Energy =                            0.0000000000000000
    Total Energy =                       -418.4389952992682993
    Molecular point group: c1
  Basis Set: CC-PVTZ
  Basis Set:

  -Total Gradient:
     Atom            X                  Y                   Z
    ------   -----------------  -----------------  -----------------
       1       -0.000065079867     0.000053608930     0.002703362174
       2        0.000448534996     0.000191702937    -0.002625367838
       3       -0.001192320561    -0.000775637669    -0.001688072721
       4        0.000795878312     0.000562488547     0.001639040421
       5        0.000017703891    -0.000027736362    -0.000001850407
       6        0.000012840218     0.000005667777    -0.000004423149
       7       -0.000014045348     0.000008712988    -0.000041632193
       8       -0.000006042330     0.000003294906     0.000001143478
       9        0.000000627224    -0.000010137619    -0.000026014836
      10        0.000003792604    -0.000001975347     0.000005433952
      11       -0.000000252609    -0.000017672753     0.000061779501
      12       -0.000004543243    -0.000001630379    -0.000070452271
      13        0.000006213528     0.000006115250    -0.000005928564
      14       -0.000019067660     0.000005242574     0.000035536884
      15        0.000015760848    -0.000002043787     0.000017445569

  **** Optimization is complete! (in 7 steps) ****
    Final optimized geometry and variables:
    Molecular point group: c1

    Geometry (in Angstrom), charge = 0, multiplicity = 1:

    H            1.904530754858    -2.347200371279     0.386288746858
    O            0.984272064151    -2.540966702875     0.388530007845
    C            0.249687081347    -1.406435191553     0.359450466005
    C           -0.996728518043    -1.431846816184     0.972901791075
    C            0.693435741041    -0.256641226898    -0.251512875160
    H           -1.318814386470    -2.336575552402     1.449803890083
    C           -1.795258625934    -0.311680413840     0.957191800200
    H            1.651578086276    -0.219827537292    -0.733084372411
    C           -0.112255694466     0.874416727048    -0.252429562131
    H           -2.757847940853    -0.340017186527     1.429847596613
    C           -1.355332457451     0.851253428970     0.345331036993
    C            0.360991788588     2.121122771161    -0.904901433484
    H           -1.975020974498     1.727755055051     0.337508312749
    O            1.412083177503     2.246041905551    -1.434630460676
    H           -0.346158159797     2.955277817712    -0.866134590129

  Mulliken Charges: (a.u.)
   Center  Symbol    Alpha    Beta     Spin     Total
       1     H     0.38338  0.38338  0.00000  0.23324
       2     O     4.17774  4.17774  0.00000 -0.35548
       3     C     2.84926  2.84926  0.00000  0.30147
       4     C     3.10127  3.10127  0.00000 -0.20253
       5     C     3.13757  3.13757  0.00000 -0.27513
       6     H     0.41427  0.41427  0.00000  0.17145
       7     C     3.05836  3.05836  0.00000 -0.11673
       8     H     0.41342  0.41342  0.00000  0.17316
       9     C     2.98038  2.98038  0.00000  0.03924
      10     H     0.41919  0.41919  0.00000  0.16161
      11     C     3.10575  3.10575  0.00000 -0.21149
      12     C     2.90915  2.90915  0.00000  0.18170
      13     H     0.42292  0.42292  0.00000  0.15415
      14     O     4.17205  4.17205  0.00000 -0.34409
      15     H     0.45529  0.45529  0.00000  0.08943

   Total alpha = 32.00000, Total beta = 32.00000, Total charge = -0.00000

*** Psi4 exiting successfully. Buy a developer a beer!
