                              Psi4 1.0.54 Driver

  ==> Input File <==

--------------------------------------------------------------------------
set {
	reference rhf
	basis cc-pvtz
}

set_num_threads( 4 )
memory 2 gb

molecule MOL {
0 1

H	 3.078425	 -1.344495	 0.391983
O	 2.173507	 -1.597788	 0.411770
C	 1.364203	 -0.540413	 0.205732
C	 1.856132	 0.738928	 -0.003970
C	 0.002482	 -0.763422	 0.207949
H	 2.917201	 0.910860	 -0.005377
C	 0.986754	 1.790790	 -0.210664
H	 -0.380557	 -1.750329	 0.369621
C	 -0.861704	 0.296439	 0.000000
H	 1.378805	 2.776255	 -0.371842
C	 -0.376824	 1.576139	 -0.209954
C	 -2.330689	 0.069587	 0.000000
H	 -1.055306	 2.392108	 -0.370404
O	 -2.848621	 -0.993976	 0.000000
H	 -2.934306	 0.982410	 0.000000

	symmetry c1
}
set optking {
	frozen_dihedral = ("
		11 9 12 14
	")
}

ee,wfn = optimize('scf', return_wfn=True)
oeprop( wfn, 'DIPOLE', 'QUADRUPOLE', 'MULLIKEN_CHARGES')
f=open( 'psi4out.xyz', 'w' )
f.write( "15  " )
f.write( str(ee) + "\n" )
f.write( MOL.save_string_xyz() )
f.close()
--------------------------------------------------------------------------

    Molecular point group: c1
  Charge       = 0
  Multiplicity = 1
  Basis Set: CC-PVTZ
  Basis Set:
  @DF-RHF Final Energy:  -418.43857645380638
    Total Energy =                       -418.4385764538062631
    Molecular point group: c1
  Basis Set: CC-PVTZ
  Basis Set:
  Basis Set: CC-PVTZ
  Basis Set:
  @DF-RHF Final Energy:  -418.43818317457345
    Total Energy =                       -418.4381831745736235
  Basis Set: CC-PVTZ
  Basis Set:
  Basis Set: CC-PVTZ
  Basis Set:
  @DF-RHF Final Energy:  -418.43860559912298
    Total Energy =                       -418.4386055991232070
  Basis Set: CC-PVTZ
  Basis Set:
  Basis Set: CC-PVTZ
  Basis Set:
  @DF-RHF Final Energy:  -418.43862947103383
    Total Energy =                       -418.4386294710335505
  Basis Set: CC-PVTZ
  Basis Set:
  Charge       = 0
  Multiplicity = 1
  Basis Set: CC-PVTZ
  Basis Set:

    Orbital Energies (a.u.)
    -----------------------

    Doubly Occupied:

       1A    -20.595783     2A    -20.554603     3A    -11.327567
       4A    -11.311852     5A    -11.251046     6A    -11.250800
       7A    -11.247544     8A    -11.243053     9A    -11.237285
      10A     -1.427553    11A     -1.410334    12A     -1.174266
      13A     -1.052086    14A     -1.030912    15A     -0.902747
      16A     -0.850171    17A     -0.817047    18A     -0.740350
      19A     -0.706272    20A     -0.689924    21A     -0.644810
      22A     -0.640724    23A     -0.614697    24A     -0.608725
      25A     -0.580034    26A     -0.556353    27A     -0.545832
      28A     -0.516428    29A     -0.492796    30A     -0.426850
      31A     -0.358328    32A     -0.330793

  @DF-RHF Final Energy:  -418.43862961427914

   => Energetics <=

    Nuclear Repulsion Energy =            404.1018456536605186
    One-Electron Energy =               -1370.8058194051877763
    Two-Electron Energy =                 548.2653441372482348
    DFT Exchange-Correlation Energy =       0.0000000000000000
    Empirical Dispersion Energy =           0.0000000000000000
    PCM Polarization Energy =               0.0000000000000000
    EFP Energy =                            0.0000000000000000
    Total Energy =                       -418.4386296142789661
    Molecular point group: c1
  Basis Set: CC-PVTZ
  Basis Set:

  -Total Gradient:
     Atom            X                  Y                   Z
    ------   -----------------  -----------------  -----------------
       1       -0.000000660375     0.000002653204     0.000012541378
       2       -0.000005504082    -0.000005793541    -0.000005210856
       3        0.000041583737     0.000039724058    -0.000033857634
       4        0.000004973437    -0.000041288984     0.000055382603
       5       -0.000047656252     0.000011267856    -0.000017683862
       6       -0.000001590724     0.000005864052    -0.000005114897
       7       -0.000043605460     0.000009703945    -0.000051411713
       8        0.000001872951     0.000005730549     0.000009984493
       9       -0.000077460177     0.000306662048     0.001208621784
      10        0.000006409359     0.000000192092     0.000008330541
      11        0.000121763101    -0.000210172700    -0.001356612165
      12       -0.000039403285    -0.000108072503     0.001896733878
      13       -0.000000401657    -0.000004176900     0.000003879929
      14        0.000030347599     0.000013719469    -0.001729142735
      15        0.000009331824    -0.000026012646     0.000003559256

  **** Optimization is complete! (in 5 steps) ****
    Final optimized geometry and variables:
    Molecular point group: c1

    Geometry (in Angstrom), charge = 0, multiplicity = 1:

    H            3.078219086831    -1.346250800276     0.350343600010
    O            2.173461915015    -1.600881756545     0.366513658628
    C            1.364063111278    -0.543740980773     0.161343885453
    C            1.855766237487     0.737317708975    -0.040390534708
    C            0.002809242771    -0.768391954969     0.153487475831
    H            2.916787061389     0.909906702859    -0.036681268877
    C            0.986441074407     1.789055036591    -0.246080314319
    H           -0.379728561594    -1.757960389021     0.300040766097
    C           -0.861660747894     0.293119716279    -0.045687209336
    H            1.378177866169     2.775231103725    -0.403770920993
    C           -0.377435200394     1.574134636443    -0.247073452069
    C           -2.329794896414     0.060693252765    -0.079447273942
    H           -1.055978432452     2.390983771736    -0.403047674807
    O           -2.842869285469    -1.004964316152    -0.089201303017
    H           -2.936114894017     0.971270554413    -0.113900465522

  Mulliken Charges: (a.u.)
   Center  Symbol    Alpha    Beta     Spin     Total
       1     H     0.38732  0.38732  0.00000  0.22537
       2     O     4.16967  4.16967  0.00000 -0.33935
       3     C     2.84154  2.84154  0.00000  0.31692
       4     C     3.12682  3.12682  0.00000 -0.25364
       5     C     3.11902  3.11902  0.00000 -0.23805
       6     H     0.43125  0.43125  0.00000  0.13749
       7     C     3.06282  3.06282  0.00000 -0.12563
       8     H     0.40527  0.40527  0.00000  0.18946
       9     C     2.96884  2.96884  0.00000  0.06232
      10     H     0.41937  0.41937  0.00000  0.16127
      11     C     3.10987  3.10987  0.00000 -0.21974
      12     C     2.90997  2.90997  0.00000  0.18007
      13     H     0.42334  0.42334  0.00000  0.15332
      14     O     4.16832  4.16832  0.00000 -0.33664
      15     H     0.45658  0.45658  0.00000  0.08684

   Total alpha = 32.00000, Total beta = 32.00000, Total charge =  0.00000

*** Psi4 exiting successfully. Buy a developer a beer!
