  ==> Input File <==

--------------------------------------------------------------------------
set {
	reference rhf
	basis cc-pvtz
}

set_num_threads( 4 )
memory 2 gb

molecule MOL {
0 1

H	 -3.436473	 1.252944	 -1.023892
O	 -3.458596	 0.315260	 -0.960865
C	 -3.176635	 -0.080824	 0.355601
C	 -1.763371	 0.265266	 0.799691
H	 -3.321825	 -1.153438	 0.379502
H	 -3.895468	 0.357385	 1.043382
C	 -0.673390	 -0.426948	 -0.013392
H	 -1.631049	 1.344913	 0.747560
H	 -1.664587	 -0.001624	 1.849167
C	 0.737842	 -0.043159	 0.423759
H	 -0.806103	 -0.190518	 -1.063345
H	 -0.797221	 -1.503753	 0.074146
C	 1.824000	 -0.743224	 -0.390623
H	 0.850588	 1.033777	 0.343840
H	 0.868587	 -0.286314	 1.476203
C	 3.255957	 -0.453067	 0.062319
H	 1.718250	 -0.470599	 -1.438164
H	 1.658105	 -1.815850	 -0.339904
C	 3.421795	 0.831290	 0.871064
H	 3.888439	 -0.392839	 -0.818087
H	 3.625695	 -1.294334	 0.642822
H	 3.054612	 1.689719	 0.317572
H	 4.466425	 1.009383	 1.099696
H	 2.885966	 0.790735	 1.811727

	symmetry c1
}
set optking {
	frozen_dihedral = ("
		20 16 13 17
	")
}

ee = optimize('scf')
oeprop('DIPOLE', 'QUADRUPOLE', 'MULLIKEN_CHARGES')
f=open( 'psi4out.xyz', 'w' )
f.write( "24  " )
f.write( str(ee) + "\n" )
f.write( MOL.save_string_xyz() )
f.close()
--------------------------------------------------------------------------

    Molecular point group: c1
  Charge       = 0
  Multiplicity = 1
  Basis Set: CC-PVTZ
  Basis Set:
  @DF-RHF Final Energy:  -349.37303875450147
    Total Energy =                       -349.3730387545012377
    Molecular point group: c1
  Basis Set: CC-PVTZ
  Basis Set:
  Basis Set: CC-PVTZ
  Basis Set:
  @DF-RHF Final Energy:  -349.37363864012440
    Total Energy =                       -349.3736386401243408
  Basis Set: CC-PVTZ
  Basis Set:
  Basis Set: CC-PVTZ
  Basis Set:
  @DF-RHF Final Energy:  -349.37441767879091
    Total Energy =                       -349.3744176787910760
  Basis Set: CC-PVTZ
  Basis Set:
  Basis Set: CC-PVTZ
  Basis Set:
  @DF-RHF Final Energy:  -349.37444624537625
    Total Energy =                       -349.3744462453764186
  Basis Set: CC-PVTZ
  Basis Set:
  Basis Set: CC-PVTZ
  Basis Set:
  @DF-RHF Final Energy:  -349.37445218866304
    Total Energy =                       -349.3744521886632697
  Basis Set: CC-PVTZ
  Basis Set:
  Basis Set: CC-PVTZ
  Basis Set:
  @DF-RHF Final Energy:  -349.37445400962332
    Total Energy =                       -349.3744540096230367
  Basis Set: CC-PVTZ
  Basis Set:
  Charge       = 0
  Multiplicity = 1
  Basis Set: CC-PVTZ
  Basis Set:

    Orbital Energies (a.u.)
    -----------------------

    Doubly Occupied:

       1A    -20.546256     2A    -11.265492     3A    -11.215124
       4A    -11.212419     5A    -11.210457     6A    -11.209389
       7A    -11.208887     8A    -11.204874     9A     -1.364111
      10A     -1.088618    11A     -1.047449    12A     -0.986195
      13A     -0.916018    14A     -0.854660    15A     -0.802766
      16A     -0.769777    17A     -0.681860    18A     -0.656541
      19A     -0.629899    20A     -0.619432    21A     -0.593277
      22A     -0.587520    23A     -0.555641    24A     -0.544650
      25A     -0.514549    26A     -0.509227    27A     -0.503227
      28A     -0.473023    29A     -0.468576    30A     -0.459823
      31A     -0.452333    32A     -0.447610    33A     -0.421578

  @DF-RHF Final Energy:  -349.37445431377387

   => Energetics <=

    Nuclear Repulsion Energy =            385.5949561197413686
    One-Electron Energy =               -1237.8963077463918125
    Two-Electron Energy =                 502.9268973128774292
    DFT Exchange-Correlation Energy =       0.0000000000000000
    Empirical Dispersion Energy =           0.0000000000000000
    PCM Polarization Energy =               0.0000000000000000
    EFP Energy =                            0.0000000000000000
    Total Energy =                       -349.3744543137730147
    Molecular point group: c1
  Basis Set: CC-PVTZ
  Basis Set:

  -Total Gradient:
     Atom            X                  Y                   Z
    ------   -----------------  -----------------  -----------------
       1        0.000000575234    -0.000000411762     0.000000552104
       2        0.000000607290    -0.000001414089    -0.000001240163
       3        0.000008025532    -0.000003901781    -0.000008382827
       4        0.000016310183     0.000003221237     0.000006026615
       5       -0.000000781097    -0.000000016935    -0.000000672112
       6        0.000006421967     0.000000681128     0.000002161506
       7        0.000005402680     0.000000060959    -0.000011606328
       8        0.000000231031    -0.000000762920    -0.000000433722
       9        0.000000933204     0.000000216492     0.000002490470
      10       -0.000014557070     0.000013847151     0.000042303158
      11       -0.000006186999    -0.000000073052    -0.000010600062
      12       -0.000003824243    -0.000001832016     0.000001920685
      13       -0.001945116337     0.008282382793     0.001744461610
      14        0.000003140383     0.000013233846     0.000006966828
      15       -0.000014957765    -0.000004676039    -0.000000375506
      16        0.001395643912    -0.008544022330     0.000240108995
      17        0.001438169844    -0.005669144276    -0.001531663224
      18        0.000037202209     0.000006395017     0.000008889967
      19       -0.000036740023     0.000021566723     0.000012088240
      20       -0.000892750589     0.005899521810    -0.000489279209
      21       -0.000003937591    -0.000024811895    -0.000007604562
      22       -0.000000817438     0.000011206690     0.000001688348
      23       -0.000010417457    -0.000011478676    -0.000016502354
      24        0.000017423145     0.000010211928     0.000008701544

  **** Optimization is complete! (in 7 steps) ****
    Final optimized geometry and variables:
    Molecular point group: c1

    Geometry (in Angstrom), charge = 0, multiplicity = 1:

    H           -3.407052931948     1.292839282033    -1.145021553980
    O           -3.423835226188     0.353422361425    -1.115135589192
    C           -3.165559507349    -0.086395909913     0.192183601252
    C           -1.763928738830     0.253039604093     0.676535327269
    H           -3.303632415361    -1.160091890958     0.175559542705
    H           -3.901192053622     0.322818266227     0.880072087980
    C           -0.653130154162    -0.401786405692    -0.139362502005
    H           -1.638815824927     1.334738274467     0.666165134503
    H           -1.683875238708    -0.051104651195     1.717443543639
    C            0.746020175628    -0.025641001837     0.341451464517
    H           -0.765809240140    -0.126688630776    -1.182228452222
    H           -0.771907886159    -1.481738375210    -0.094907976859
    C            1.844133889529    -0.693003750892    -0.481693490434
    H            0.853565796426     1.053741468795     0.304625561551
    H            0.852954376825    -0.307169217796     1.386412465996
    C            3.304433235724    -0.442679419960    -0.044664143000
    H            1.733486910183    -0.438644440265    -1.531825269964
    H            1.673680614132    -1.766382090188    -0.454266743567
    C            3.567207860980     0.873261247745     0.690612782096
    H            3.924655994952    -0.423062840483    -0.934280881798
    H            3.649633045163    -1.262759299107     0.574739638332
    H            3.272049615569     1.728673523919     0.092175848487
    H            4.625259711324     0.975018784993     0.904350184895
    H            3.037056048718     0.930462367065     1.633313877530

  Mulliken Charges: (a.u.)
   Center  Symbol    Alpha    Beta     Spin     Total
       1     H     0.39532  0.39532  0.00000  0.20936
       2     O     4.20376  4.20376  0.00000 -0.40752
       3     C     2.97785  2.97785  0.00000  0.04430
       4     C     3.10174  3.10174  0.00000 -0.20348
       5     H     0.45886  0.45886  0.00000  0.08229
       6     H     0.46029  0.46029  0.00000  0.07943
       7     C     3.08848  3.08848  0.00000 -0.17697
       8     H     0.45920  0.45920  0.00000  0.08160
       9     H     0.45355  0.45355  0.00000  0.09290
      10     C     3.09029  3.09029  0.00000 -0.18058
      11     H     0.44650  0.44650  0.00000  0.10700
      12     H     0.45498  0.45498  0.00000  0.09004
      13     C     3.09780  3.09780  0.00000 -0.19560
      14     H     0.45166  0.45166  0.00000  0.09668
      15     H     0.45467  0.45467  0.00000  0.09066
      16     C     3.08755  3.08755  0.00000 -0.17510
      17     H     0.45136  0.45136  0.00000  0.09729
      18     H     0.45289  0.45289  0.00000  0.09421
      19     C     3.15819  3.15819  0.00000 -0.31638
      20     H     0.45124  0.45124  0.00000  0.09753
      21     H     0.45179  0.45179  0.00000  0.09642
      22     H     0.45401  0.45401  0.00000  0.09197
      23     H     0.44522  0.44522  0.00000  0.10957
      24     H     0.45280  0.45280  0.00000  0.09440

   Total alpha = 33.00000, Total beta = 33.00000, Total charge = -0.00000
