                              Psi4 1.0.54 Driver

  ==> Input File <==

--------------------------------------------------------------------------
set {
	reference rhf
	basis cc-pvtz
}

set_num_threads( 4 )
memory 2 gb

molecule MOL {
0 1

O	 -2.081319	 -0.951530	 -0.502732
N	 -1.613558	 0.006676	 0.014756
C	 -0.329345	 -0.171618	 0.743966
O	 -2.068523	 1.100482	 -0.024385
C	 0.835904	 0.041968	 -0.213982
H	 -0.346048	 -1.174374	 1.137184
H	 -0.333613	 0.555559	 1.538590
C	 2.177039	 -0.130175	 0.494460
H	 0.754456	 -0.665923	 -1.030569
H	 0.765464	 1.037260	 -0.637266
C	 2.353188	 -1.528948	 1.074878
H	 2.262149	 0.604558	 1.289671
H	 2.983064	 0.075584	 -0.203677
H	 1.579949	 -1.750506	 1.802002
H	 2.303936	 -2.283544	 0.297783
H	 3.311693	 -1.624667	 1.570123

	symmetry c1
}
set optking {
	frozen_dihedral = ("
		11 8 5 9
	")
}

ee,wfn = optimize('scf', return_wfn=True)
oeprop( wfn, 'DIPOLE', 'QUADRUPOLE', 'MULLIKEN_CHARGES')
f=open( 'psi4out.xyz', 'w' )
f.write( "16  " )
f.write( str(ee) + "\n" )
f.write( MOL.save_string_xyz() )
f.close()
--------------------------------------------------------------------------

    Molecular point group: c1
  Charge       = 0
  Multiplicity = 1
  Basis Set: CC-PVTZ
  Basis Set:
  @DF-RHF Final Energy:  -360.90690583226080
    Total Energy =                       -360.9069058322606907
    Molecular point group: c1
  Basis Set: CC-PVTZ
  Basis Set:
  Basis Set: CC-PVTZ
  Basis Set:
  @DF-RHF Final Energy:  -360.90654872267271
    Total Energy =                       -360.9065487226729942
  Basis Set: CC-PVTZ
  Basis Set:
  Basis Set: CC-PVTZ
  Basis Set:
  @DF-RHF Final Energy:  -360.90612090214842
    Total Energy =                       -360.9061209021484160
  Basis Set: CC-PVTZ
  Basis Set:
  Basis Set: CC-PVTZ
  Basis Set:
  @DF-RHF Final Energy:  -360.90650991613899
    Total Energy =                       -360.9065099161387025
  Basis Set: CC-PVTZ
  Basis Set:
  Basis Set: CC-PVTZ
  Basis Set:
  @DF-RHF Final Energy:  -360.90787086069906
    Total Energy =                       -360.9078708606988357
  Basis Set: CC-PVTZ
  Basis Set:
  Basis Set: CC-PVTZ
  Basis Set:
  @DF-RHF Final Energy:  -360.90789057426514
    Total Energy =                       -360.9078905742651386
  Basis Set: CC-PVTZ
  Basis Set:
  Basis Set: CC-PVTZ
  Basis Set:
  @DF-RHF Final Energy:  -360.90790381252543
    Total Energy =                       -360.9079038125252055
  Basis Set: CC-PVTZ
  Basis Set:
  Charge       = 0
  Multiplicity = 1
  Basis Set: CC-PVTZ
  Basis Set:

    Orbital Energies (a.u.)
    -----------------------

    Doubly Occupied:

       1A    -20.589575     2A    -20.589405     3A    -15.836076
       4A    -11.295766     5A    -11.250946     6A    -11.241996
       7A    -11.228284     8A     -1.635058     9A     -1.419315
      10A     -1.136555    11A     -1.058277    12A     -0.951648
      13A     -0.853594    14A     -0.819410    15A     -0.761353
      16A     -0.737571    17A     -0.725147    18A     -0.668265
      19A     -0.629187    20A     -0.604892    21A     -0.573049
      22A     -0.550042    23A     -0.512966    24A     -0.499643
      25A     -0.496552    26A     -0.485458    27A     -0.471335
      28A     -0.451928

  @DF-RHF Final Energy:  -360.90790420911975

   => Energetics <=

    Nuclear Repulsion Energy =            316.3967456948851691
    One-Electron Energy =               -1118.4627224403302534
    Two-Electron Energy =                 441.1580725363249371
    DFT Exchange-Correlation Energy =       0.0000000000000000
    Empirical Dispersion Energy =           0.0000000000000000
    PCM Polarization Energy =               0.0000000000000000
    EFP Energy =                            0.0000000000000000
    Total Energy =                       -360.9079042091202041
    Molecular point group: c1
  Basis Set: CC-PVTZ
  Basis Set:

  -Total Gradient:
     Atom            X                  Y                   Z
    ------   -----------------  -----------------  -----------------
       1       -0.000047413202     0.000075727653     0.000021125026
       2        0.000060786046    -0.000094987211    -0.000019009158
       3       -0.000000364869    -0.000022413400     0.000004169551
       4       -0.000045373079     0.000013141254    -0.000034206599
       5       -0.000386934544    -0.000550298713     0.000743901142
       6        0.000012672406     0.000004112008    -0.000000566363
       7        0.000014778327     0.000005696975     0.000014503095
       8        0.000359364760    -0.000039287892    -0.000776360006
       9        0.000249961989     0.000510443860    -0.000421998346
      10       -0.000005895656    -0.000006133519    -0.000000197847
      11       -0.000210984202     0.000100928770     0.000466981117
      12       -0.000007321341     0.000004925368     0.000000271595
      13        0.000006384162     0.000005011466    -0.000006231191
      14       -0.000007877360    -0.000005074429     0.000006324557
      15       -0.000000969808    -0.000001723801    -0.000000639114
      16        0.000009186367    -0.000000068389     0.000001932540

  **** Optimization is complete! (in 8 steps) ****
    Final optimized geometry and variables:
    Molecular point group: c1

    Geometry (in Angstrom), charge = 0, multiplicity = 1:

    O           -1.948568854324    -0.693279525553    -0.799454867583
    N           -1.498369861329     0.203911977383    -0.169018542233
    C           -0.204196776613    -0.034403092928     0.524954720542
    O           -1.979499234689     1.282478685331    -0.068232594026
    C            0.942542429615     0.294908939136    -0.424881768783
    H           -0.213860020916    -1.070334841095     0.815226494229
    H           -0.204957328108     0.610489672442     1.388123601899
    C            2.315764905796     0.177988281906     0.238145707250
    H            0.888334825203    -0.360415172406    -1.286484622251
    H            0.806891694542     1.308354940582    -0.783119797324
    C            2.669291706197    -1.220551326158     0.737932331256
    H            2.378206185276     0.884220264899     1.060930041889
    H            3.057081902185     0.493007877272    -0.487392262241
    H            2.023938165653    -1.540626326485     1.547744886067
    H            2.590527062289    -1.952690900083    -0.058619629596
    H            3.686434042956    -1.244427111800     1.109278317107

  Mulliken Charges: (a.u.)
   Center  Symbol    Alpha    Beta     Spin     Total
       1     O     4.17424  4.17424  0.00000 -0.34848
       2     N     3.27513  3.27513  0.00000  0.44974
       3     C     3.04244  3.04244  0.00000 -0.08489
       4     O     4.17360  4.17360  0.00000 -0.34721
       5     C     3.10927  3.10927  0.00000 -0.21854
       6     H     0.43319  0.43319  0.00000  0.13362
       7     H     0.43399  0.43399  0.00000  0.13203
       8     C     3.09783  3.09783  0.00000 -0.19566
       9     H     0.43667  0.43667  0.00000  0.12666
      10     H     0.43216  0.43216  0.00000  0.13567
      11     C     3.15381  3.15381  0.00000 -0.30762
      12     H     0.44878  0.44878  0.00000  0.10243
      13     H     0.44235  0.44235  0.00000  0.11530
      14     H     0.45498  0.45498  0.00000  0.09003
      15     H     0.44954  0.44954  0.00000  0.10092
      16     H     0.44201  0.44201  0.00000  0.11598

   Total alpha = 28.00000, Total beta = 28.00000, Total charge =  0.00000

*** Psi4 exiting successfully. Buy a developer a beer!
