                              Psi4 1.0.54 Driver

  ==> Input File <==

--------------------------------------------------------------------------
set {
	reference rhf
	basis cc-pvtz
}

set_num_threads( 4 )
memory 2 gb

molecule MOL {
0 1

H	 2.497047	 0.346550	 1.131719
O	 1.645088	 -0.059846	 1.184101
C	 1.050374	 0.054877	 0.000135
C	 -0.318151	 -0.570512	 0.000144
O	 1.570516	 0.591537	 -0.916061
C	 -1.454884	 0.441630	 -0.000560
H	 -0.371613	 -1.223646	 -0.864985
H	 -0.371920	 -1.222758	 0.865929
C	 -2.822577	 -0.232186	 0.000063
H	 -1.359760	 1.084704	 -0.867077
H	 -1.359641	 1.085996	 0.864983
H	 -2.954352	 -0.858985	 -0.875745
H	 -3.615886	 0.505352	 0.000019
H	 -2.953878	 -0.858359	 0.876394

	symmetry c1
}
set optking {
	frozen_dihedral = ("
		2 3 4 7
	")
}

ee,wfn = optimize('scf', return_wfn=True)
oeprop( wfn, 'DIPOLE', 'QUADRUPOLE', 'MULLIKEN_CHARGES')
f=open( 'psi4out.xyz', 'w' )
f.write( "14  " )
f.write( str(ee) + "\n" )
f.write( MOL.save_string_xyz() )
f.close()
--------------------------------------------------------------------------

    Molecular point group: c1
  Charge       = 0
  Multiplicity = 1
  Basis Set: CC-PVTZ
  Basis Set:
  @DF-RHF Final Energy:  -305.99860323396820
    Total Energy =                       -305.9986032339683106
    Molecular point group: c1
  Basis Set: CC-PVTZ
  Basis Set:
  Basis Set: CC-PVTZ
  Basis Set:
  @DF-RHF Final Energy:  -305.99925641513721
    Total Energy =                       -305.9992564151370971
  Basis Set: CC-PVTZ
  Basis Set:
  Basis Set: CC-PVTZ
  Basis Set:
  @DF-RHF Final Energy:  -305.99914169923875
    Total Energy =                       -305.9991416992387485
  Basis Set: CC-PVTZ
  Basis Set:
  Basis Set: CC-PVTZ
  Basis Set:
  @DF-RHF Final Energy:  -305.99934878591353
    Total Energy =                       -305.9993487859136962
  Basis Set: CC-PVTZ
  Basis Set:
  Basis Set: CC-PVTZ
  Basis Set:
  @DF-RHF Final Energy:  -305.99938852834629
    Total Energy =                       -305.9993885283464579
  Basis Set: CC-PVTZ
  Basis Set:
  Charge       = 0
  Multiplicity = 1
  Basis Set: CC-PVTZ
  Basis Set:

    Orbital Energies (a.u.)
    -----------------------

    Doubly Occupied:

       1A    -20.606486     2A    -20.538028     3A    -11.373260
       4A    -11.238120     5A    -11.232306     6A    -11.218402
       7A     -1.478151     8A     -1.368314     9A     -1.086507
      10A     -0.980488    11A     -0.856035    12A     -0.805817
      13A     -0.706340    14A     -0.689926    15A     -0.650032
      16A     -0.633471    17A     -0.596647    18A     -0.571598
      19A     -0.552486    20A     -0.515732    21A     -0.498105
      22A     -0.488909    23A     -0.474482    24A     -0.443317

  @DF-RHF Final Energy:  -305.99938873866921

   => Energetics <=

    Nuclear Repulsion Energy =            240.6296447526798943
    One-Electron Energy =                -894.0521510589599075
    Two-Electron Energy =                 347.4231175676108023
    DFT Exchange-Correlation Energy =       0.0000000000000000
    Empirical Dispersion Energy =           0.0000000000000000
    PCM Polarization Energy =               0.0000000000000000
    EFP Energy =                            0.0000000000000000
    Total Energy =                       -305.9993887386691540
    Molecular point group: c1
  Basis Set: CC-PVTZ
  Basis Set:

  -Total Gradient:
     Atom            X                  Y                   Z
    ------   -----------------  -----------------  -----------------
       1        0.000001685374     0.000000118196    -0.000024568297
       2        0.000002475658    -0.000145360389     0.000023691889
       3       -0.000036811547     0.000068844589     0.000146023152
       4       -0.000062675911     0.000149289512    -0.000116629830
       5       -0.000002931220     0.000072854067    -0.000135390835
       6        0.000022848158    -0.000009485709     0.000039546539
       7        0.000078653374    -0.000130288766     0.000068120774
       8       -0.000003922204    -0.000017126493     0.000019148904
       9        0.000005336125    -0.000013329658    -0.000018889121
      10       -0.000003162079     0.000009807709    -0.000009318868
      11       -0.000005105160     0.000013081741     0.000008765853
      12       -0.000002606958    -0.000009596408    -0.000005946911
      13        0.000002108531     0.000012215072    -0.000004186334
      14        0.000004107860    -0.000001023461     0.000009633088

  **** Optimization is complete! (in 6 steps) ****
    Final optimized geometry and variables:
    Molecular point group: c1

    Geometry (in Angstrom), charge = 0, multiplicity = 1:

    H            2.553666129831     0.398931512186     0.973636850623
    O            1.744301699097    -0.082937056294     1.059363022230
    C            1.058863459866     0.046613619139    -0.071093204785
    C           -0.269188199717    -0.662287167722    -0.042945728501
    O            1.467372390601     0.674844660907    -0.986938375313
    C           -1.429774930692     0.337584358215    -0.014067547745
    H           -0.326929077257    -1.262842212969    -0.942445542012
    H           -0.312151523815    -1.321374452252     0.812856644863
    C           -2.786081895764    -0.357111465006    -0.031011767363
    H           -1.341500883073     1.000434060708    -0.865866216267
    H           -1.348585915475     0.954977672179     0.875079110078
    H           -2.905365969389    -0.959092716057    -0.925306410695
    H           -3.590675514980     0.367957019618    -0.009868178305
    H           -2.905098754573    -1.009768722062     0.827075761944

  Mulliken Charges: (a.u.)
   Center  Symbol    Alpha    Beta     Spin     Total
       1     H     0.38022  0.38022  0.00000  0.23955
       2     O     4.15980  4.15980  0.00000 -0.31960
       3     C     2.80635  2.80635  0.00000  0.38730
       4     C     3.08829  3.08829  0.00000 -0.17659
       5     O     4.19965  4.19965  0.00000 -0.39930
       6     C     3.09138  3.09138  0.00000 -0.18276
       7     H     0.44140  0.44140  0.00000  0.11719
       8     H     0.44018  0.44018  0.00000  0.11963
       9     C     3.14997  3.14997  0.00000 -0.29993
      10     H     0.44029  0.44029  0.00000  0.11943
      11     H     0.44953  0.44953  0.00000  0.10094
      12     H     0.45308  0.45308  0.00000  0.09384
      13     H     0.44560  0.44560  0.00000  0.10881
      14     H     0.45425  0.45425  0.00000  0.09150

   Total alpha = 24.00000, Total beta = 24.00000, Total charge = -0.00000

*** Psi4 exiting successfully. Buy a developer a beer!
