  ==> Input File <==

--------------------------------------------------------------------------
set {
	reference rhf
	basis 6-31G*
}

set_num_threads( 4 )
memory 2 gb

molecule MOL {
0 1

H	 3.276176	 0.174363	 -0.109463
N	 2.434251	 -0.367735	 -0.081097
C	 1.267428	 0.496480	 0.024474
H	 2.501951	 -0.965776	 0.720575
C	 -0.016086	 -0.325158	 -0.029487
H	 1.288818	 1.183521	 -0.816092
H	 1.267576	 1.109062	 0.929528
C	 -1.282277	 0.529072	 0.046735
H	 -0.012495	 -0.908639	 -0.945788
H	 -0.015903	 -1.041248	 0.791956
C	 -1.560467	 1.296196	 -1.245486
H	 -1.192256	 1.234072	 0.870664
H	 -2.135630	 -0.104626	 0.279481
H	 -0.740093	 1.965666	 -1.487387
H	 -2.462516	 1.894381	 -1.161806
H	 -1.690078	 0.617505	 -2.083818

	symmetry c1
}
set optking {
	frozen_dihedral = ("
		12 8 5 9
	")
}

ee = optimize('scf')
oeprop('DIPOLE', 'QUADRUPOLE', 'MULLIKEN_CHARGES')
f=open( 'psi4out.xyz', 'w' )
f.write( "16  " )
f.write( str(ee) + "\n" )
f.write( MOL.save_string_xyz() )
f.close()
--------------------------------------------------------------------------

    Molecular point group: c1
  Charge       = 0
  Multiplicity = 1
  Basis Set: 6-31G*
  Basis Set:
  @DF-RHF Final Energy:  -212.31501760653228
    Total Energy =                       -212.3150176065324217
    Molecular point group: c1
  Basis Set: 6-31G*
  Basis Set:
  Basis Set: 6-31G*
  Basis Set:
  @DF-RHF Final Energy:  -212.31517569137486
    Total Energy =                       -212.3151756913748613
  Basis Set: 6-31G*
  Basis Set:
  Basis Set: 6-31G*
  Basis Set:
  @DF-RHF Final Energy:  -212.31525146402171
    Total Energy =                       -212.3152514640217419
  Basis Set: 6-31G*
  Basis Set:
  Basis Set: 6-31G*
  Basis Set:
  @DF-RHF Final Energy:  -212.31525362876795
    Total Energy =                       -212.3152536287680618
  Basis Set: 6-31G*
  Basis Set:
  Charge       = 0
  Multiplicity = 1
  Basis Set: 6-31G*
  Basis Set:

    Orbital Energies (a.u.)
    -----------------------

    Doubly Occupied:

       1A    -15.532616     2A    -11.239595     3A    -11.215235
       4A    -11.209846     5A    -11.207532     6A     -1.176762
       7A     -1.058261     8A     -0.955081     9A     -0.855606
      10A     -0.782030    11A     -0.663943    12A     -0.627599
      13A     -0.610000    14A     -0.594472    15A     -0.547100
      16A     -0.520083    17A     -0.516308    18A     -0.467940
      19A     -0.465370    20A     -0.454886    21A     -0.381253

  @DF-RHF Final Energy:  -212.31525391176206

   => Energetics <=

    Nuclear Repulsion Energy =            188.4042519058152152
    One-Electron Energy =                -659.2759752100414516
    Two-Electron Energy =                 258.5564693924641801
    DFT Exchange-Correlation Energy =       0.0000000000000000
    Empirical Dispersion Energy =           0.0000000000000000
    PCM Polarization Energy =               0.0000000000000000
    EFP Energy =                            0.0000000000000000
    Total Energy =                       -212.3152539117620563
    Molecular point group: c1
  Basis Set: 6-31G*
  Basis Set:

  -Total Gradient:
     Atom            X                  Y                   Z
    ------   -----------------  -----------------  -----------------
       1        0.000007962898    -0.000004624809     0.000001236289
       2        0.000011111332     0.000018474808    -0.000004983606
       3       -0.000014110135    -0.000031036293     0.000018475397
       4       -0.000006873561     0.000007210208    -0.000002286011
       5       -0.000706756364    -0.001116421150     0.000633114293
       6        0.000001670746    -0.000004377322    -0.000003810744
       7        0.000007488368     0.000007370606    -0.000001302996
       8       -0.000563992118    -0.000929242219     0.000929493523
       9        0.000679160976     0.001083284904    -0.000681213032
      10        0.000006826694    -0.000002745403    -0.000001718241
      11       -0.000012659311    -0.000006053599     0.000006340376
      12        0.000596568377     0.000964433253    -0.000890191211
      13       -0.000008324419     0.000007019336     0.000001981667
      14        0.000004229228    -0.000001865803     0.000005003949
      15       -0.000007584968     0.000004231884    -0.000008879863
      16        0.000005282258     0.000004341599    -0.000001259791

  **** Optimization is complete! (in 5 steps) ****
    Final optimized geometry and variables:
    Molecular point group: c1

    Geometry (in Angstrom), charge = 0, multiplicity = 1:

    H            3.084744936979    -0.190363251110     0.165463804050
    N            2.233407864847    -0.717636132204     0.191168948572
    C            1.079959696439     0.166509188193     0.275843757215
    H            2.282983252341    -1.309349479907     0.998783896174
    C           -0.213665224985    -0.643042357035     0.219044451589
    H            1.129075519396     0.846208048138    -0.567961836254
    H            1.077986682787     0.784533332833     1.177426325793
    C           -1.487265338437     0.207846153833     0.293187477789
    H           -0.205846678001    -1.226832876799    -0.696970195475
    H           -0.211106124957    -1.353726221205     1.043713017656
    C           -1.798442947878     0.976270942519    -0.993502229464
    H           -1.404395393868     0.914696426889     1.116536565457
    H           -2.329639587109    -0.437685481629     0.526084335589
    H           -1.016334360114     1.686873401816    -1.241209652177
    H           -2.725250846473     1.533611475125    -0.896913621327
    H           -1.906422758718     0.298041807709    -1.835142318328

  Mulliken Charges: (a.u.)
   Center  Symbol    Alpha    Beta     Spin     Total
       1     H     0.33244  0.33244  0.00000  0.33512
       2     N     3.92184  3.92184  0.00000 -0.84367
       3     C     3.06159  3.06159  0.00000 -0.12319
       4     H     0.33538  0.33538  0.00000  0.32923
       5     C     3.15227  3.15227  0.00000 -0.30453
       6     H     0.41955  0.41955  0.00000  0.16091
       7     H     0.43503  0.43503  0.00000  0.12994
       8     C     3.15749  3.15749  0.00000 -0.31499
       9     H     0.41342  0.41342  0.00000  0.17315
      10     H     0.42594  0.42594  0.00000  0.14812
      11     C     3.24031  3.24031  0.00000 -0.48062
      12     H     0.42394  0.42394  0.00000  0.15213
      13     H     0.41952  0.41952  0.00000  0.16095
      14     H     0.42135  0.42135  0.00000  0.15730
      15     H     0.41964  0.41964  0.00000  0.16071
      16     H     0.42028  0.42028  0.00000  0.15944

   Total alpha = 21.00000, Total beta = 21.00000, Total charge = -0.00000
