  ==> Input File <==

--------------------------------------------------------------------------
set {
	reference rhf
	basis 6-31G*
}

set_num_threads( 4 )
memory 2 gb

molecule MOL {
0 1

O	 -2.821601	 1.309235	 -0.001213
C	 -2.668563	 0.129746	 -0.000350
C	 -3.801572	 -0.864014	 -0.000442
O	 -1.481751	 -0.454642	 0.000584
H	 -4.417280	 -0.689587	 -0.874708
H	 -3.443784	 -1.883046	 -0.000565
H	 -4.417179	 -0.689832	 0.873954
C	 -0.334255	 0.388708	 0.000906
C	 0.891947	 -0.504646	 0.000751
H	 -0.365390	 1.025305	 -0.873475
H	 -0.365484	 1.024911	 0.875569
C	 2.191998	 0.301789	 0.000897
H	 0.855148	 -1.151283	 -0.871571
H	 0.855132	 -1.151660	 0.872805
C	 3.239779	 -0.257011	 0.965379
H	 2.607093	 0.322942	 -1.005251
H	 1.978439	 1.336142	 0.264690
C	 4.538739	 0.547706	 0.964496
H	 3.454634	 -1.290481	 0.702985
H	 2.827452	 -0.276707	 1.971693
H	 4.993363	 0.557606	 -0.022030
H	 5.261128	 0.127458	 1.657159
H	 4.361535	 1.578881	 1.256533

	symmetry c1
}
set optking {
	frozen_dihedral = ("
		16 12 9 13
	")
}

ee = optimize('scf')
oeprop('DIPOLE', 'QUADRUPOLE', 'MULLIKEN_CHARGES')
f=open( 'psi4out.xyz', 'w' )
f.write( "23  " )
f.write( str(ee) + "\n" )
f.write( MOL.save_string_xyz() )
f.close()
--------------------------------------------------------------------------

    Molecular point group: c1
  Charge       = 0
  Multiplicity = 1
  Basis Set: 6-31G*
  Basis Set:
  @DF-RHF Final Energy:  -422.97534552640803
    Total Energy =                       -422.9753455264078639
    Molecular point group: c1
  Basis Set: 6-31G*
  Basis Set:
  Basis Set: 6-31G*
  Basis Set:
  @DF-RHF Final Energy:  -422.97555170552562
    Total Energy =                       -422.9755517055255041
  Basis Set: 6-31G*
  Basis Set:
  Basis Set: 6-31G*
  Basis Set:
  @DF-RHF Final Energy:  -422.97559759431891
    Total Energy =                       -422.9755975943189696
  Basis Set: 6-31G*
  Basis Set:
  Basis Set: 6-31G*
  Basis Set:
  @DF-RHF Final Energy:  -422.97550876098148
    Total Energy =                       -422.9755087609812563
  Basis Set: 6-31G*
  Basis Set:
  Basis Set: 6-31G*
  Basis Set:
  @DF-RHF Final Energy:  -422.97562987002055
    Total Energy =                       -422.9756298700201569
  Basis Set: 6-31G*
  Basis Set:
  Charge       = 0
  Multiplicity = 1
  Basis Set: 6-31G*
  Basis Set:

    Orbital Energies (a.u.)
    -----------------------

    Doubly Occupied:

       1A    -20.602862     2A    -20.540511     3A    -11.374097
       4A    -11.281601     5A    -11.232368     6A    -11.224335
       7A    -11.223776     8A    -11.221679     9A    -11.212721
      10A     -1.467925    11A     -1.360721    12A     -1.092697
      13A     -1.042073    14A     -1.002945    15A     -0.930152
      16A     -0.842608    17A     -0.802076    18A     -0.775678
      19A     -0.690103    20A     -0.684883    21A     -0.669930
      22A     -0.641231    23A     -0.610040    24A     -0.586584
      25A     -0.580888    26A     -0.569504    27A     -0.558541
      28A     -0.535436    29A     -0.525135    30A     -0.502444
      31A     -0.493854    32A     -0.478199    33A     -0.468422
      34A     -0.463902    35A     -0.450709    36A     -0.435174

  @DF-RHF Final Energy:  -422.97563026602228

   => Energetics <=

    Nuclear Repulsion Energy =            450.2267081145046745
    One-Electron Energy =               -1468.0530687514774399
    Two-Electron Energy =                 594.8507303709502594
    DFT Exchange-Correlation Energy =       0.0000000000000000
    Empirical Dispersion Energy =           0.0000000000000000
    PCM Polarization Energy =               0.0000000000000000
    EFP Energy =                            0.0000000000000000
    Total Energy =                       -422.9756302660225629
    Molecular point group: c1
  Basis Set: 6-31G*
  Basis Set:

  -Total Gradient:
     Atom            X                  Y                   Z
    ------   -----------------  -----------------  -----------------
       1        0.000018314539     0.000002303646     0.000061015083
       2       -0.000013539698    -0.000032824327    -0.000157255784
       3       -0.000007136731    -0.000000593275     0.000055111661
       4       -0.000110259836     0.000009395168     0.000050379457
       5        0.000007808190     0.000005003730    -0.000001515978
       6        0.000000153652     0.000000724421     0.000001993588
       7       -0.000010606883    -0.000006140132    -0.000001385008
       8        0.000018542457    -0.000085974575    -0.000000188193
       9        0.002237232728    -0.003347776937     0.002176109945
      10        0.000023262793    -0.000003540002     0.000000802231
      11        0.000031943908     0.000003289385    -0.000008348184
      12       -0.002408413622     0.003710528112    -0.001049840250
      13       -0.001500758685     0.002301242463    -0.001640689224
      14       -0.000010140431    -0.000004330267    -0.000011626169
      15       -0.000020898060     0.000036013913    -0.000067912696
      16        0.001697730804    -0.002620459381     0.000611301327
      17        0.000020339090     0.000001055452    -0.000009416698
      18        0.000036943099     0.000015185757     0.000025563951
      19       -0.000009079707     0.000004652507    -0.000015427481
      20       -0.000022643164     0.000007916005    -0.000025687227
      21       -0.000003266559    -0.000001677368     0.000006993451
      22        0.000021139293     0.000010287416     0.000006299244
      23        0.000003332821    -0.000004281712    -0.000006277044

  **** Optimization is complete! (in 6 steps) ****
    Final optimized geometry and variables:
    Molecular point group: c1

    Geometry (in Angstrom), charge = 0, multiplicity = 1:

    O           -2.786683867495     1.233318127257    -0.228909030117
    C           -2.633224025993     0.053891948801    -0.233626559532
    C           -3.765708397605    -0.940000168239    -0.263971241823
    O           -1.446393150846    -0.530175295583    -0.211485197598
    H           -4.363587891515    -0.759322527443    -1.149268790605
    H           -3.407683104742    -1.958953833158    -0.264184303759
    H           -4.399032851932    -0.772286256809     0.598966745690
    C           -0.299311760740     0.312687684727    -0.180793228910
    C            0.929352196845    -0.579114871563    -0.158297775000
    H           -0.309660848230     0.954730880844    -1.051975523718
    H           -0.348812501757     0.943902334039     0.696723786351
    C            2.232355042542     0.244071733357    -0.176811162274
    H            0.880287609198    -1.230253361896    -1.024891894410
    H            0.883686883799    -1.210828700171     0.723130273082
    C            3.310404995147    -0.318502096630     0.753999998330
    H            2.633794541164     0.265719621669    -1.186339543703
    H            2.032472433948     1.276747181047     0.101815571278
    C            4.617381812505     0.470467364113     0.698474088551
    H            3.502254053195    -1.357068991749     0.492779184930
    H            2.933796517355    -0.325390114173     1.774497683703
    H            5.038397810644     0.462598145222    -0.302933510724
    H            5.358377244548     0.051034004181     1.371741404072
    H            4.461854431233     1.507481534537     0.982525262300

  Mulliken Charges: (a.u.)
   Center  Symbol    Alpha    Beta     Spin     Total
       1     O     4.28381  4.28381  0.00000 -0.56762
       2     C     2.61544  2.61544  0.00000  0.76912
       3     C     3.28776  3.28776  0.00000 -0.57551
       4     O     4.31259  4.31259  0.00000 -0.62518
       5     H     0.39751  0.39751  0.00000  0.20498
       6     H     0.39989  0.39989  0.00000  0.20022
       7     H     0.39750  0.39750  0.00000  0.20500
       8     C     2.99982  2.99982  0.00000  0.00037
       9     C     3.16499  3.16499  0.00000 -0.32997
      10     H     0.41035  0.41035  0.00000  0.17931
      11     H     0.41070  0.41070  0.00000  0.17859
      12     C     3.16260  3.16260  0.00000 -0.32519
      13     H     0.41195  0.41195  0.00000  0.17609
      14     H     0.41223  0.41223  0.00000  0.17554
      15     C     3.15318  3.15318  0.00000 -0.30636
      16     H     0.41759  0.41759  0.00000  0.16482
      17     H     0.41917  0.41917  0.00000  0.16167
      18     C     3.24054  3.24054  0.00000 -0.48109
      19     H     0.42101  0.42101  0.00000  0.15798
      20     H     0.42168  0.42168  0.00000  0.15665
      21     H     0.42104  0.42104  0.00000  0.15791
      22     H     0.41791  0.41791  0.00000  0.16418
      23     H     0.42074  0.42074  0.00000  0.15851

   Total alpha = 36.00000, Total beta = 36.00000, Total charge = -0.00000
