  ==> Input File <==

--------------------------------------------------------------------------
set {
	reference rhf
	basis 6-31G*
}

set_num_threads( 4 )
memory 2 gb

molecule MOL {
0 1

H	 -2.679954	 0.074297	 -0.579806
O	 -2.035884	 -0.060112	 0.102722
C	 -0.955155	 0.788182	 -0.092531
C	 0.353668	 0.040312	 -0.004810
H	 -0.985057	 1.290372	 -1.054184
H	 -0.974469	 1.533190	 0.688632
F	 0.394464	 -0.937475	 -0.903053
F	 1.368604	 0.853376	 -0.249821
F	 0.546173	 -0.502608	 1.179981

	symmetry c1
}
set optking {
	frozen_dihedral = ("
		1 2 3 5
	")
}

ee = optimize('scf')
oeprop('DIPOLE', 'QUADRUPOLE', 'MULLIKEN_CHARGES')
f=open( 'psi4out.xyz', 'w' )
f.write( "9  " )
f.write( str(ee) + "\n" )
f.write( MOL.save_string_xyz() )
f.close()
--------------------------------------------------------------------------

    Molecular point group: c1
  Charge       = 0
  Multiplicity = 1
  Basis Set: 6-31G*
  Basis Set:
  @DF-RHF Final Energy:  -450.65857379699878
    Total Energy =                       -450.6585737969986099
    Molecular point group: c1
  Basis Set: 6-31G*
  Basis Set:
  Basis Set: 6-31G*
  Basis Set:
  @DF-RHF Final Energy:  -450.65939041228978
    Total Energy =                       -450.6593904122896674
  Basis Set: 6-31G*
  Basis Set:
  Basis Set: 6-31G*
  Basis Set:
  @DF-RHF Final Energy:  -450.65960383648132
    Total Energy =                       -450.6596038364813808
  Basis Set: 6-31G*
  Basis Set:
  Basis Set: 6-31G*
  Basis Set:
  @DF-RHF Final Energy:  -450.65961059489888
    Total Energy =                       -450.6596105948989361
  Basis Set: 6-31G*
  Basis Set:
  Charge       = 0
  Multiplicity = 1
  Basis Set: 6-31G*
  Basis Set:

    Orbital Energies (a.u.)
    -----------------------

    Doubly Occupied:

       1A    -26.336645     2A    -26.333577     3A    -26.332652
       4A    -20.589009     5A    -11.494913     6A    -11.310038
       7A     -1.733170     8A     -1.631171     9A     -1.629707
      10A     -1.400765    11A     -1.047405    12A     -0.917322
      13A     -0.824550    14A     -0.822784    15A     -0.785717
      16A     -0.737108    17A     -0.705495    18A     -0.695511
      19A     -0.662764    20A     -0.649973    21A     -0.634814
      22A     -0.633764    23A     -0.595343    24A     -0.531947
      25A     -0.478454

  @DF-RHF Final Energy:  -450.65961156789820

   => Energetics <=

    Nuclear Repulsion Energy =            276.8925826526317451
    One-Electron Energy =               -1176.0751907254348225
    Two-Electron Energy =                 448.5229965049049952
    DFT Exchange-Correlation Energy =       0.0000000000000000
    Empirical Dispersion Energy =           0.0000000000000000
    PCM Polarization Energy =               0.0000000000000000
    EFP Energy =                            0.0000000000000000
    Total Energy =                       -450.6596115678980823
    Molecular point group: c1
  Basis Set: 6-31G*
  Basis Set:

  -Total Gradient:
     Atom            X                  Y                   Z
    ------   -----------------  -----------------  -----------------
       1       -0.000451703571     0.000646427154     0.000465631143
       2        0.000696529348    -0.000938757381    -0.000723770138
       3       -0.000669605299     0.000878585186     0.000578809509
       4        0.000050861817     0.000173304055     0.000109469978
       5        0.000399729071    -0.000623210440    -0.000312801915
       6       -0.000003962427    -0.000007525431    -0.000015850820
       7        0.000018198793    -0.000020178079    -0.000027192593
       8       -0.000031640796    -0.000094095181    -0.000034040387
       9       -0.000008406928    -0.000014549884    -0.000040254773

  **** Optimization is complete! (in 5 steps) ****
    Final optimized geometry and variables:
    Molecular point group: c1

    Geometry (in Angstrom), charge = 0, multiplicity = 1:

    H           -2.652407934347     0.010999323847    -0.553577489333
    O           -2.005406365190    -0.066417906126     0.130755835623
    C           -0.941385034562     0.800680336929    -0.098497482277
    C            0.351119995938     0.026200723140    -0.015377786843
    H           -0.975273362932     1.256194755427    -1.081026845398
    H           -0.911571135877     1.583630288050     0.649235635679
    F            0.420179079836    -0.909065163956    -0.945871336314
    F            1.376230241026     0.848642002049    -0.196235511346
    F            0.505587103026    -0.557173801597     1.156221404563

  Mulliken Charges: (a.u.)
   Center  Symbol    Alpha    Beta     Spin     Total
       1     H     0.27077  0.27077  0.00000  0.45845
       2     O     4.36335  4.36335  0.00000 -0.72670
       3     C     3.05563  3.05563  0.00000 -0.11126
       4     C     2.45465  2.45465  0.00000  1.09071
       5     H     0.40989  0.40989  0.00000  0.18023
       6     H     0.40423  0.40423  0.00000  0.19153
       7     F     4.67991  4.67991  0.00000 -0.35982
       8     F     4.68523  4.68523  0.00000 -0.37045
       9     F     4.67635  4.67635  0.00000 -0.35269

   Total alpha = 25.00000, Total beta = 25.00000, Total charge = -0.00000
