  ==> Input File <==

--------------------------------------------------------------------------
set {
	reference rhf
	basis cc-pvtz
}

set_num_threads( 4 )
memory 2 gb

molecule MOL {
0 1

H	 -1.835082	 1.385983	 0.000069
C	 -1.300516	 0.441153	 -0.000028
O	 -0.006604	 0.654344	 -0.000106
O	 -1.828920	 -0.612308	 0.000113
C	 0.852093	 -0.482521	 -0.000161
C	 2.025337	 -0.174145	 -0.899664
H	 0.295678	 -1.340440	 -0.349926
H	 1.168160	 -0.681535	 1.013968
H	 1.693801	 0.026767	 -1.910451
H	 2.699975	 -1.021629	 -0.921792
H	 2.570658	 0.689006	 -0.539714

	symmetry c1
}
set optking {
	frozen_dihedral = ("
		7 5 3 2
	")
}

ee = optimize('scf')
oeprop('DIPOLE', 'QUADRUPOLE', 'MULLIKEN_CHARGES')
f=open( 'psi4out.xyz', 'w' )
f.write( "11  " )
f.write( str(ee) + "\n" )
f.write( MOL.save_string_xyz() )
f.close()
--------------------------------------------------------------------------

    Molecular point group: c1
  Charge       = 0
  Multiplicity = 1
  Basis Set: CC-PVTZ
  Basis Set:
  @DF-RHF Final Energy:  -266.92997804207317
    Total Energy =                       -266.9299780420732304
    Molecular point group: c1
  Basis Set: CC-PVTZ
  Basis Set:
  Basis Set: CC-PVTZ
  Basis Set:
  @DF-RHF Final Energy:  -266.93018763404172
    Total Energy =                       -266.9301876340417152
  Basis Set: CC-PVTZ
  Basis Set:
  Basis Set: CC-PVTZ
  Basis Set:
  @DF-RHF Final Energy:  -266.93032226005965
    Total Energy =                       -266.9303222600594268
  Basis Set: CC-PVTZ
  Basis Set:
  Basis Set: CC-PVTZ
  Basis Set:
  @DF-RHF Final Energy:  -266.93008887729752
    Total Energy =                       -266.9300888772972371
  Basis Set: CC-PVTZ
  Basis Set:
  Basis Set: CC-PVTZ
  Basis Set:
  @DF-RHF Final Energy:  -266.93040572252949
    Total Energy =                       -266.9304057225292581
  Basis Set: CC-PVTZ
  Basis Set:
  Charge       = 0
  Multiplicity = 1
  Basis Set: CC-PVTZ
  Basis Set:

    Orbital Energies (a.u.)
    -----------------------

    Doubly Occupied:

       1A    -20.604941     2A    -20.544982     3A    -11.370975
       4A    -11.289067     5A    -11.225242     6A     -1.477555
       7A     -1.377621     8A     -1.053533     9A     -0.906558
      10A     -0.803258    11A     -0.745053    12A     -0.688597
      13A     -0.677544    14A     -0.602735    15A     -0.573924
      16A     -0.557973    17A     -0.529802    18A     -0.507552
      19A     -0.462430    20A     -0.456069

  @DF-RHF Final Energy:  -266.93040624130651

   => Energetics <=

    Nuclear Repulsion Energy =            179.5833361209842849
    One-Electron Energy =                -720.1166644166025890
    Two-Electron Energy =                 273.6029220543116480
    DFT Exchange-Correlation Energy =       0.0000000000000000
    Empirical Dispersion Energy =           0.0000000000000000
    PCM Polarization Energy =               0.0000000000000000
    EFP Energy =                            0.0000000000000000
    Total Energy =                       -266.9304062413066276
    Molecular point group: c1
  Basis Set: CC-PVTZ
  Basis Set:

  -Total Gradient:
     Atom            X                  Y                   Z
    ------   -----------------  -----------------  -----------------
       1        0.000019360626    -0.000003647505    -0.000001315007
       2       -0.000034065223    -0.000049993277    -0.001177756767
       3       -0.000029032406    -0.000056409264     0.002041734506
       4        0.000002966118     0.000020173487    -0.000000648030
       5        0.000405411706     0.000392404532    -0.002102107363
       6        0.000007246079    -0.000007923157     0.000000601596
       7       -0.000353132681    -0.000304547979     0.001240565859
       8       -0.000016232200     0.000014051026    -0.000003738553
       9       -0.000007168827    -0.000001770170     0.000006138060
      10        0.000009623456     0.000000714486    -0.000003926897
      11       -0.000004976649    -0.000003052179     0.000000452597

  **** Optimization is complete! (in 6 steps) ****
    Final optimized geometry and variables:
    Molecular point group: c1

    Geometry (in Angstrom), charge = 0, multiplicity = 1:

    H           -1.760965722383     1.444536470175     0.178624159942
    C           -1.252761308183     0.485322956877     0.190520218600
    O            0.045955932321     0.672060286577     0.176713096977
    O           -1.814026239041    -0.550558452680     0.213594143220
    C            0.916396999176    -0.457367195249     0.154506685449
    C            2.101633683455    -0.131969570714    -0.724575092838
    H            0.373373972165    -1.319608126995    -0.195565597227
    H            1.227188501120    -0.647602368048     1.173409305197
    H            1.786632259798     0.045711870700    -1.745175289609
    H            2.797818104865    -0.962441806121    -0.720287831748
    H            2.617751686978     0.749556290158    -0.366248626348

  Mulliken Charges: (a.u.)
   Center  Symbol    Alpha    Beta     Spin     Total
       1     H     0.45025  0.45025  0.00000  0.09949
       2     C     2.84166  2.84166  0.00000  0.31668
       3     O     4.14728  4.14728  0.00000 -0.29455
       4     O     4.19572  4.19572  0.00000 -0.39143
       5     C     2.97800  2.97800  0.00000  0.04400
       6     C     3.13223  3.13223  0.00000 -0.26447
       7     H     0.44458  0.44458  0.00000  0.11085
       8     H     0.45448  0.45448  0.00000  0.09104
       9     H     0.45104  0.45104  0.00000  0.09791
      10     H     0.45445  0.45445  0.00000  0.09111
      11     H     0.45031  0.45031  0.00000  0.09938

   Total alpha = 20.00000, Total beta = 20.00000, Total charge = -0.00000
