  ==> Input File <==

--------------------------------------------------------------------------
set {
	reference rhf
	basis 6-31G*
}

set_num_threads( 4 )
memory 2 gb

molecule MOL {
0 1

H	 2.302769	 1.612700	 0.251934
O	 1.374910	 1.647637	 0.434627
C	 0.702312	 0.627605	 -0.264544
C	 -0.714990	 0.596302	 0.266387
H	 1.176091	 -0.334726	 -0.090448
H	 0.699323	 0.824757	 -1.334425
O	 -1.405996	 -0.526611	 -0.195820
H	 -1.257453	 1.468809	 -0.075599
H	 -0.688972	 0.618407	 1.353696
H	 -0.890587	 -1.292708	 0.022039

	symmetry c1
}
set optking {
	frozen_dihedral = ("
		5 3 4 7
	")
}

ee = optimize('scf')
oeprop('DIPOLE', 'QUADRUPOLE', 'MULLIKEN_CHARGES')
f=open( 'psi4out.xyz', 'w' )
f.write( "10  " )
f.write( str(ee) + "\n" )
f.write( MOL.save_string_xyz() )
f.close()
--------------------------------------------------------------------------

    Molecular point group: c1
  Charge       = 0
  Multiplicity = 1
  Basis Set: 6-31G*
  Basis Set:
  @DF-RHF Final Energy:  -228.91998722945630
    Total Energy =                       -228.9199872294562965
    Molecular point group: c1
  Basis Set: 6-31G*
  Basis Set:
  Basis Set: 6-31G*
  Basis Set:
  @DF-RHF Final Energy:  -228.92106647589304
    Total Energy =                       -228.9210664758930704
  Basis Set: 6-31G*
  Basis Set:
  Basis Set: 6-31G*
  Basis Set:
  @DF-RHF Final Energy:  -228.92137838096315
    Total Energy =                       -228.9213783809631195
  Basis Set: 6-31G*
  Basis Set:
  Basis Set: 6-31G*
  Basis Set:
  @DF-RHF Final Energy:  -228.92140682781641
    Total Energy =                       -228.9214068278163268
  Basis Set: 6-31G*
  Basis Set:
  Charge       = 0
  Multiplicity = 1
  Basis Set: 6-31G*
  Basis Set:

    Orbital Energies (a.u.)
    -----------------------

    Doubly Occupied:

       1A    -20.563330     2A    -20.559893     3A    -11.273190
       4A    -11.268876     5A     -1.375676     6A     -1.361898
       7A     -0.997861     8A     -0.846200     9A     -0.723831
      10A     -0.683936    11A     -0.642823    12A     -0.614266
      13A     -0.574377    14A     -0.524661    15A     -0.493440
      16A     -0.444176    17A     -0.439035

  @DF-RHF Final Energy:  -228.92140841593476

   => Energetics <=

    Nuclear Repulsion Energy =            131.3295295529418354
    One-Electron Energy =                -573.7269384876859704
    Two-Electron Energy =                 213.4760005188093146
    DFT Exchange-Correlation Energy =       0.0000000000000000
    Empirical Dispersion Energy =           0.0000000000000000
    PCM Polarization Energy =               0.0000000000000000
    EFP Energy =                            0.0000000000000000
    Total Energy =                       -228.9214084159348204
    Molecular point group: c1
  Basis Set: 6-31G*
  Basis Set:

  -Total Gradient:
     Atom            X                  Y                   Z
    ------   -----------------  -----------------  -----------------
       1       -0.000014046282     0.000001652083     0.000009521547
       2       -0.000078903747    -0.000121691635    -0.000119105628
       3        0.001009356253     0.000492357220     0.002842185852
       4       -0.000820963658     0.001005800246    -0.002109792346
       5       -0.000609716961    -0.000567875087    -0.001875320297
       6        0.000027786959     0.000018390136    -0.000031084267
       7        0.000476150477    -0.000860373570     0.001242749514
       8        0.000007334871     0.000021267602     0.000008227384
       9       -0.000009407670     0.000022695851     0.000024410284
      10        0.000012409761    -0.000012222845     0.000008207957

  **** Optimization is complete! (in 5 steps) ****
    Final optimized geometry and variables:
    Molecular point group: c1

    Geometry (in Angstrom), charge = 0, multiplicity = 1:

    H            2.238724664073     1.190495854577     0.088791012814
    O            1.369174209059     1.057055639620     0.437286358359
    C            0.707355847815     0.063281116670    -0.294855700006
    C           -0.729943791667     0.010348512841     0.194650514631
    H            1.173452475340    -0.912939994481    -0.160787391754
    H            0.718709762194     0.278754379183    -1.360530317832
    O           -1.416019384376    -1.084560672455    -0.349839471384
    H           -1.258630256350     0.901171915124    -0.114170635702
    H           -0.734275922259    -0.016348433500     1.280928198619
    H           -1.125563018253    -1.881304274514     0.071049554414

  Mulliken Charges: (a.u.)
   Center  Symbol    Alpha    Beta     Spin     Total
       1     H     0.27791  0.27791  0.00000  0.44418
       2     O     4.37149  4.37149  0.00000 -0.74297
       3     C     3.00516  3.00516  0.00000 -0.01031
       4     C     3.00392  3.00392  0.00000 -0.00783
       5     H     0.43603  0.43603  0.00000  0.12794
       6     H     0.42383  0.42383  0.00000  0.15235
       7     O     4.37078  4.37078  0.00000 -0.74156
       8     H     0.40915  0.40915  0.00000  0.18169
       9     H     0.42060  0.42060  0.00000  0.15880
      10     H     0.28114  0.28114  0.00000  0.43772

   Total alpha = 17.00000, Total beta = 17.00000, Total charge =  0.00000
