  ==> Input File <==

--------------------------------------------------------------------------
set {
	reference rhf
	basis 6-31G*
}

set_num_threads( 1 )
memory 2 gb

molecule MOL {
0 1

O	 -0.081361	 -0.994599	 -2.864174
C	 -0.671035	 -0.208805	 -2.186496
C	 -0.889235	 -0.467034	 -0.705952
C	 -1.199443	 1.089767	 -2.753834
C	 0.379448	 -0.143569	 0.099626
H	 -1.134954	 -1.516795	 -0.587935
H	 -1.724571	 0.119782	 -0.334620
C	 1.631333	 -0.777471	 -0.511575
H	 0.482768	 0.934507	 0.149241
H	 0.263088	 -0.495696	 1.123449
C	 2.915987	 -0.544314	 0.291766
H	 1.766672	 -0.399098	 -1.523130
H	 1.471257	 -1.849544	 -0.605828
C	 3.373361	 0.914346	 0.347591
H	 3.708709	 -1.142521	 -0.150311
H	 2.780642	 -0.921148	 1.303579
H	 3.506512	 1.320010	 -0.651625
H	 4.322697	 0.999599	 0.867103
H	 2.660624	 1.545032	 0.868198
H	 -2.285975	 1.084481	 -2.727697
H	 -0.865552	 1.210745	 -3.774944
H	 -0.869019	 1.933591	 -2.155013

	symmetry c1
}
set optking {
	frozen_dihedral = ("
		6 3 2 1,
		3 5 8 12,
		12 8 11 15
	")
}

ee = energy('scf')
oeprop('DIPOLE', 'QUADRUPOLE', 'MULLIKEN_CHARGES')
f=open( 'psi4out.xyz', 'w' )
f.write( "22  " )
f.write( str(ee) + "\n" )
f.write( MOL.save_string_xyz() )
f.close()
--------------------------------------------------------------------------

    Molecular point group: c1

    Geometry (in Angstrom), charge = 0, multiplicity = 1:

       Center              X                  Y                   Z               Mass
    ------------   -----------------  -----------------  -----------------  -----------------
           O         -0.777010612243    -0.865695617983    -1.820372592906    15.994914619560
           C         -1.366684612243    -0.079901617983    -1.142694592906    12.000000000000
           C         -1.584884612243    -0.338130617983     0.337849407094    12.000000000000
           C         -1.895092612243     1.218670382017    -1.710032592906    12.000000000000
           C         -0.316201612243    -0.014665617983     1.143427407094    12.000000000000
           H         -1.830603612243    -1.387891617983     0.455866407094     1.007825032070
           H         -2.420220612243     0.248685382017     0.709181407094     1.007825032070
           C          0.935683387757    -0.648567617983     0.532226407094    12.000000000000
           H         -0.212881612243     1.063410382017     1.193042407094     1.007825032070
           H         -0.432561612243    -0.366792617983     2.167250407094     1.007825032070
           C          2.220337387757    -0.415410617983     1.335567407094    12.000000000000
           H          1.071022387757    -0.270194617983    -0.479328592906     1.007825032070
           H          0.775607387757    -1.720640617983     0.437973407094     1.007825032070
           C          2.677711387757     1.043249382017     1.391392407094    12.000000000000
           H          3.013059387757    -1.013617617983     0.893490407094     1.007825032070
           H          2.084992387757    -0.792244617983     2.347380407094     1.007825032070
           H          2.810862387757     1.448913382017     0.392176407094     1.007825032070
           H          3.627047387757     1.128502382017     1.910904407094     1.007825032070
           H          1.964974387757     1.673935382017     1.911999407094     1.007825032070
           H         -2.981624612243     1.213384382017    -1.683895592906     1.007825032070
           H         -1.561201612243     1.339648382017    -2.731142592906     1.007825032070
           H         -1.564668612243     2.062494382017    -1.111211592906     1.007825032070

  Charge       = 0
  Multiplicity = 1
  Basis Set: 6-31G*
  Basis Set:

    Orbital Energies (a.u.)
    -----------------------

    Doubly Occupied:

       1A    -20.548027     2A    -11.325465     3A    -11.229627
       4A    -11.229271     5A    -11.228382     6A    -11.213339
       7A    -11.208815     8A    -11.208118     9A     -1.395434
      10A     -1.092097    11A     -1.041313    12A     -0.999180
      13A     -0.932855    14A     -0.855950    15A     -0.783861
      16A     -0.730411    17A     -0.657682    18A     -0.645993
      19A     -0.626190    20A     -0.612016    21A     -0.597639
      22A     -0.577015    23A     -0.569383    24A     -0.542150
      25A     -0.531317    26A     -0.512804    27A     -0.507974
      28A     -0.485266    29A     -0.461419    30A     -0.454389
      31A     -0.450809    32A     -0.396331

  @DF-RHF Final Energy:  -348.09307221386365

   => Energetics <=

    Nuclear Repulsion Energy =            385.5741739119401359
    One-Electron Energy =               -1236.0334167442815669
    Two-Electron Energy =                 502.3661706184781224
    DFT Exchange-Correlation Energy =       0.0000000000000000
    Empirical Dispersion Energy =           0.0000000000000000
    PCM Polarization Energy =               0.0000000000000000
    EFP Energy =                            0.0000000000000000
    Total Energy =                       -348.0930722138633655

  Mulliken Charges: (a.u.)
   Center  Symbol    Alpha    Beta     Spin     Total
       1     O     4.26126  4.26126  0.00000 -0.52253
       2     C     2.74040  2.74040  0.00000  0.51921
       3     C     3.19821  3.19821  0.00000 -0.39641
       4     C     3.28889  3.28889  0.00000 -0.57778
       5     C     3.16519  3.16519  0.00000 -0.33038
       6     H     0.40127  0.40127  0.00000  0.19747
       7     H     0.41512  0.41512  0.00000  0.16975
       8     C     3.15544  3.15544  0.00000 -0.31089
       9     H     0.41914  0.41914  0.00000  0.16172
      10     H     0.41455  0.41455  0.00000  0.17090
      11     C     3.15320  3.15320  0.00000 -0.30639
      12     H     0.41026  0.41026  0.00000  0.17949
      13     H     0.41476  0.41476  0.00000  0.17047
      14     C     3.24168  3.24168  0.00000 -0.48337
      15     H     0.41870  0.41870  0.00000  0.16261
      16     H     0.42560  0.42560  0.00000  0.14880
      17     H     0.42171  0.42171  0.00000  0.15657
      18     H     0.41884  0.41884  0.00000  0.16232
      19     H     0.42275  0.42275  0.00000  0.15450
      20     H     0.40635  0.40635  0.00000  0.18730
      21     H     0.39721  0.39721  0.00000  0.20557
      22     H     0.40948  0.40948  0.00000  0.18105

   Total alpha = 32.00000, Total beta = 32.00000, Total charge = -0.00000
