  ==> Input File <==

--------------------------------------------------------------------------
set {
	reference rhf
	basis 6-31G*
}

set_num_threads( 4 )
memory 2 gb

molecule MOL {
0 1

H	 3.893188	 0.355400	 -0.101367
N	 3.092854	 -0.246221	 -0.068770
C	 1.865559	 0.531981	 0.018834
H	 3.199514	 -0.826043	 0.741946
C	 0.645745	 -0.382037	 -0.029944
H	 1.841966	 1.207024	 -0.831236
H	 1.815756	 1.155410	 0.915079
C	 -0.679275	 0.379305	 0.025956
H	 0.698998	 -0.976915	 -0.937203
H	 0.693479	 -1.083846	 0.802235
C	 -0.569317	 1.728851	 0.738002
H	 -1.425295	 -0.231589	 0.532030
H	 -1.051294	 0.538189	 -0.985086
C	 -1.896540	 2.484317	 0.795109
H	 -0.199060	 1.572485	 1.748781
H	 0.173622	 2.342518	 0.232919
H	 -2.651812	 1.910435	 1.324769
H	 -1.786290	 3.435934	 1.305866
H	 -2.276077	 2.686581	 -0.202604

	symmetry c1
}
set optking {
	frozen_dihedral = ("
		12 8 5 9
	")
}

ee = optimize('scf')
oeprop('DIPOLE', 'QUADRUPOLE', 'MULLIKEN_CHARGES')
f=open( 'psi4out.xyz', 'w' )
f.write( "19  " )
f.write( str(ee) + "\n" )
f.write( MOL.save_string_xyz() )
f.close()
--------------------------------------------------------------------------

    Molecular point group: c1
  Charge       = 0
  Multiplicity = 1
  Basis Set: 6-31G*
  Basis Set:
  @DF-RHF Final Energy:  -251.34194598736340
    Total Energy =                       -251.3419459873634878
    Molecular point group: c1
  Basis Set: 6-31G*
  Basis Set:
  Basis Set: 6-31G*
  Basis Set:
  @DF-RHF Final Energy:  -251.34259194775959
    Total Energy =                       -251.3425919477593879
  Basis Set: 6-31G*
  Basis Set:
  Basis Set: 6-31G*
  Basis Set:
  @DF-RHF Final Energy:  -251.34486713813277
    Total Energy =                       -251.3448671381329405
  Basis Set: 6-31G*
  Basis Set:
  Basis Set: 6-31G*
  Basis Set:
  @DF-RHF Final Energy:  -251.34514288338235
    Total Energy =                       -251.3451428833823798
  Basis Set: 6-31G*
  Basis Set:
  Basis Set: 6-31G*
  Basis Set:
  @DF-RHF Final Energy:  -251.34516139427376
    Total Energy =                       -251.3451613942738732
  Basis Set: 6-31G*
  Basis Set:
  Basis Set: 6-31G*
  Basis Set:
  @DF-RHF Final Energy:  -251.34517784370050
    Total Energy =                       -251.3451778437003554
  Basis Set: 6-31G*
  Basis Set:
  Basis Set: 6-31G*
  Basis Set:
  @DF-RHF Final Energy:  -251.34518016198913
    Total Energy =                       -251.3451801619892194
  Basis Set: 6-31G*
  Basis Set:
  Charge       = 0
  Multiplicity = 1
  Basis Set: 6-31G*
  Basis Set:

    Orbital Energies (a.u.)
    -----------------------

    Doubly Occupied:

       1A    -15.532007     2A    -11.238814     3A    -11.214884
       4A    -11.213451     5A    -11.209999     6A    -11.208209
       7A     -1.176180     8A     -1.071108     9A     -0.995001
      10A     -0.898969    11A     -0.834252    12A     -0.769411
      13A     -0.657775    14A     -0.642793    15A     -0.625168
      16A     -0.584731    17A     -0.571488    18A     -0.543703
      19A     -0.527627    20A     -0.504466    21A     -0.489136
      22A     -0.460842    23A     -0.452652    24A     -0.448171
      25A     -0.380230

  @DF-RHF Final Energy:  -251.34518007629589

   => Energetics <=

    Nuclear Repulsion Energy =            249.6502290993655038
    One-Electron Energy =                -833.4886790235685794
    Two-Electron Energy =                 332.4932698479070723
    DFT Exchange-Correlation Energy =       0.0000000000000000
    Empirical Dispersion Energy =           0.0000000000000000
    PCM Polarization Energy =               0.0000000000000000
    EFP Energy =                            0.0000000000000000
    Total Energy =                       -251.3451800762960602
    Molecular point group: c1
  Basis Set: 6-31G*
  Basis Set:

  -Total Gradient:
     Atom            X                  Y                   Z
    ------   -----------------  -----------------  -----------------
       1       -0.000002185202    -0.000001523534    -0.000008869088
       2       -0.000007070762    -0.000006773384    -0.000011628630
       3       -0.000007165101     0.000006567130     0.000010081273
       4        0.000001357226     0.000003224558     0.000000504941
       5       -0.002972609590    -0.005018387826     0.004733240955
       6       -0.000005873988     0.000023490445     0.000006180379
       7        0.000000604793    -0.000027026318    -0.000006104365
       8       -0.001173786700    -0.001946991079    -0.007118404035
       9        0.002722075860     0.004542050713    -0.002892288120
      10       -0.000013155162    -0.000015130191     0.000005164538
      11       -0.000025899214    -0.000044741249     0.000074227705
      12        0.001487662419     0.002492966047     0.005254483247
      13       -0.000026274167    -0.000021992867    -0.000008091533
      14        0.000005321936     0.000006289680    -0.000022124811
      15       -0.000011758586     0.000015725805     0.000009469937
      16        0.000023622416    -0.000012583111    -0.000017397849
      17        0.000010473002     0.000002162243     0.000002381713
      18        0.000004213980     0.000003448821    -0.000006952739
      19       -0.000009553156    -0.000000775885    -0.000003873517

  **** Optimization is complete! (in 8 steps) ****
    Final optimized geometry and variables:
    Molecular point group: c1

    Geometry (in Angstrom), charge = 0, multiplicity = 1:

    H            3.511328685833    -0.570851355726    -0.454332395621
    N            2.670202281404    -1.112992227755    -0.405463164285
    C            1.510734050293    -0.248046859982    -0.229318231066
    H            2.769837290574    -1.729207080296     0.379173814047
    C            0.235131605618    -1.092412399241    -0.220634219944
    H            1.485126890254     0.439343022901    -1.069727103971
    H            1.571731851186     0.359591898641     0.673659119702
    C           -1.091396046636    -0.303147932415    -0.220146807640
    H            0.288089841704    -1.698421452527    -1.118883997302
    H            0.268435684281    -1.765425721441     0.633237586011
    C           -1.074094966907     1.047237791320     0.509123418903
    H           -1.845860680628    -0.907510108598     0.277538041813
    H           -1.425434914300    -0.144502453274    -1.241912778158
    C           -2.453005375533     1.706934518903     0.529246205235
    H           -0.730430633230     0.906619093620     1.531835430586
    H           -0.366916789543     1.723686190015     0.037734766688
    H           -3.181387232809     1.080277916640     1.036204057978
    H           -2.424472224364     2.662887050569     1.043187334116
    H           -2.816851542799     1.884508248765    -0.478998801541

  Mulliken Charges: (a.u.)
   Center  Symbol    Alpha    Beta     Spin     Total
       1     H     0.33260  0.33260  0.00000  0.33481
       2     N     3.92235  3.92235  0.00000 -0.84471
       3     C     3.06434  3.06434  0.00000 -0.12868
       4     H     0.33571  0.33571  0.00000  0.32859
       5     C     3.15525  3.15525  0.00000 -0.31050
       6     H     0.42116  0.42116  0.00000  0.15768
       7     H     0.43155  0.43155  0.00000  0.13691
       8     C     3.15507  3.15507  0.00000 -0.31014
       9     H     0.40953  0.40953  0.00000  0.18094
      10     H     0.42630  0.42630  0.00000  0.14740
      11     C     3.15671  3.15671  0.00000 -0.31343
      12     H     0.42165  0.42165  0.00000  0.15671
      13     H     0.42074  0.42074  0.00000  0.15852
      14     C     3.23888  3.23888  0.00000 -0.47777
      15     H     0.42353  0.42353  0.00000  0.15295
      16     H     0.42148  0.42148  0.00000  0.15703
      17     H     0.42197  0.42197  0.00000  0.15605
      18     H     0.41956  0.41956  0.00000  0.16088
      19     H     0.42162  0.42162  0.00000  0.15676

   Total alpha = 25.00000, Total beta = 25.00000, Total charge =  0.00000
