                              Psi4 1.0.54 Driver

  ==> Input File <==

--------------------------------------------------------------------------
set {
	reference rhf
	basis cc-pvtz
}

set_num_threads( 4 )
memory 2 gb

molecule MOL {
0 1

H	 2.347177	 -1.964958	 -0.503488
N	 1.366477	 -1.788686	 -0.511563
C	 1.064548	 -0.610046	 -1.298639
C	 0.856055	 -1.672056	 0.839625
H	 1.438689	 -0.751017	 -2.305365
H	 1.528379	 0.290192	 -0.891146
C	 -0.438757	 -0.404296	 -1.341271
H	 1.079117	 -2.582584	 1.382335
H	 1.306713	 -0.838916	 1.382215
C	 -0.646977	 -1.464915	 0.794192
H	 -0.895569	 -1.233124	 -1.889868
H	 -0.663540	 0.508917	 -1.879447
N	 -0.976577	 -0.298712	 -0.000000
H	 -1.022315	 -1.318595	 1.800090
H	 -1.118134	 -2.366809	 0.392710
C	 -2.391156	 -0.021003	 -0.000000
H	 -2.853954	 -0.458728	 -0.875714
H	 -2.853954	 -0.458728	 0.875714
H	 -2.614037	 1.049773	 -0.000000

	symmetry c1
}
set optking {
	frozen_dihedral = ("
		7 13 16 19
	")
}

ee,wfn = optimize('scf', return_wfn=True)
oeprop( wfn, 'DIPOLE', 'QUADRUPOLE', 'MULLIKEN_CHARGES')
f=open( 'psi4out.xyz', 'w' )
f.write( "19  " )
f.write( str(ee) + "\n" )
f.write( MOL.save_string_xyz() )
f.close()
--------------------------------------------------------------------------

    Molecular point group: c1
  Charge       = 0
  Multiplicity = 1
  Basis Set: CC-PVTZ
  Basis Set:
  @DF-RHF Final Energy:  -305.30484710582658
    Total Energy =                       -305.3048471058270366
    Molecular point group: c1
  Basis Set: CC-PVTZ
  Basis Set:
  Basis Set: CC-PVTZ
  Basis Set:
  @DF-RHF Final Energy:  -305.30555543913528
    Total Energy =                       -305.3055554391351620
  Basis Set: CC-PVTZ
  Basis Set:
  Basis Set: CC-PVTZ
  Basis Set:
  @DF-RHF Final Energy:  -305.30564986315181
    Total Energy =                       -305.3056498631518707
  Basis Set: CC-PVTZ
  Basis Set:
  Basis Set: CC-PVTZ
  Basis Set:
  @DF-RHF Final Energy:  -305.30565330716678
    Total Energy =                       -305.3056533071668355
  Basis Set: CC-PVTZ
  Basis Set:
  Charge       = 0
  Multiplicity = 1
  Basis Set: CC-PVTZ
  Basis Set:

    Orbital Energies (a.u.)
    -----------------------

    Doubly Occupied:

       1A    -15.536145     2A    -15.530856     3A    -11.236852
       4A    -11.236834     5A    -11.235745     6A    -11.235629
       7A    -11.232830     8A     -1.247826     9A     -1.186603
      10A     -1.023344    11A     -0.965261    12A     -0.860998
      13A     -0.858754    14A     -0.758055    15A     -0.692364
      16A     -0.633253    17A     -0.625125    18A     -0.609588
      19A     -0.604206    20A     -0.581225    21A     -0.542917
      22A     -0.534499    23A     -0.510988    24A     -0.489334
      25A     -0.465999    26A     -0.457372    27A     -0.365640
      28A     -0.348040

  @DF-RHF Final Energy:  -305.30565363369936

   => Energetics <=

    Nuclear Repulsion Energy =            340.0749451485106079
    One-Electron Energy =               -1087.5486337072243259
    Two-Electron Energy =                 442.1680349250138988
    DFT Exchange-Correlation Energy =       0.0000000000000000
    Empirical Dispersion Energy =           0.0000000000000000
    PCM Polarization Energy =               0.0000000000000000
    EFP Energy =                            0.0000000000000000
    Total Energy =                       -305.3056536336998761
    Molecular point group: c1
  Basis Set: CC-PVTZ
  Basis Set:

  -Total Gradient:
     Atom            X                  Y                   Z
    ------   -----------------  -----------------  -----------------
       1       -0.000002707567    -0.000001438010     0.000006002433
       2       -0.000010335682     0.000001548792     0.000000309542
       3        0.000014225025    -0.000007048093    -0.000012005192
       4        0.000026457030     0.000003350812     0.000006463208
       5       -0.000001657715     0.000000532277     0.000000043990
       6       -0.000001611197     0.000001377553    -0.000000966728
       7       -0.000722039490    -0.003707037124     0.000026989373
       8       -0.000004016134     0.000000495096    -0.000000649374
       9        0.000000647139     0.000001386163     0.000002478424
      10       -0.000016256583     0.000032924013    -0.000024392556
      11       -0.000006907215    -0.000005742329    -0.000002315753
      12       -0.000001595655    -0.000001187259    -0.000004959112
      13        0.000982137679     0.005074713989     0.001330823553
      14        0.000002643286    -0.000002936964    -0.000001560874
      15       -0.000006891833    -0.000005404333    -0.000001759871
      16       -0.000260972510    -0.001345549382    -0.006397638129
      17        0.000002793357    -0.000009576601     0.000010416444
      18       -0.000011382447    -0.000009208292     0.000012459077
      19        0.000017470509    -0.000021200309     0.005050261545

  **** Optimization is complete! (in 5 steps) ****
    Final optimized geometry and variables:
    Molecular point group: c1

    Geometry (in Angstrom), charge = 0, multiplicity = 1:

    H            2.535125158151    -1.042348084019    -0.317349161304
    N            1.551992496777    -0.879485900750    -0.318117642002
    C            1.228142924535     0.302571266613    -1.090655205073
    C            1.047277161824    -0.784709256641     1.036629299457
    H            1.589928215306     0.174293283551    -2.103748890565
    H            1.687467435416     1.204611424180    -0.681974029449
    C           -0.277629974357     0.490825694085    -1.111081851713
    H            1.282789469815    -1.699293129453     1.567438893165
    H            1.491745439584     0.046740248769     1.587133715192
    C           -0.458410055186    -0.592024751922     1.005496385867
    H           -0.733702396560    -0.343286022228    -1.651134476041
    H           -0.520369209984     1.400630553635    -1.648622592553
    N           -0.802965747041     0.590315200645     0.236996193875
    H           -0.822403553086    -0.468376325680     2.017973798370
    H           -0.922711520348    -1.491975688339     0.592105620017
    C           -2.225262169858     0.868845304592     0.241237554231
    H           -2.749655105612     0.416948632799    -0.599888312035
    H           -2.672978580362     0.482447015617     1.148424506374
    H           -2.405794556302     1.937949185126     0.244861769030

  Mulliken Charges: (a.u.)
   Center  Symbol    Alpha    Beta     Spin     Total
       1     H     0.44001  0.44001  0.00000  0.11997
       2     N     3.64289  3.64289  0.00000 -0.28578
       3     C     3.04121  3.04121  0.00000 -0.08243
       4     C     3.04191  3.04191  0.00000 -0.08382
       5     H     0.45260  0.45260  0.00000  0.09480
       6     H     0.46543  0.46543  0.00000  0.06915
       7     C     3.03594  3.03594  0.00000 -0.07187
       8     H     0.45259  0.45259  0.00000  0.09482
       9     H     0.46563  0.46563  0.00000  0.06875
      10     C     3.03292  3.03292  0.00000 -0.06585
      11     H     0.46756  0.46756  0.00000  0.06489
      12     H     0.45369  0.45369  0.00000  0.09262
      13     N     3.61714  3.61714  0.00000 -0.23428
      14     H     0.45408  0.45408  0.00000  0.09184
      15     H     0.46905  0.46905  0.00000  0.06190
      16     C     3.09511  3.09511  0.00000 -0.19022
      17     H     0.46580  0.46580  0.00000  0.06839
      18     H     0.45661  0.45661  0.00000  0.08678
      19     H     0.44984  0.44984  0.00000  0.10033

   Total alpha = 28.00000, Total beta = 28.00000, Total charge = -0.00000

*** Psi4 exiting successfully. Buy a developer a beer!
