  ==> Input File <==

--------------------------------------------------------------------------
set {
	reference rhf
	basis 6-31G*
}

set_num_threads( 4 )
memory 2 gb

molecule MOL {
0 1

H	 -2.499100	 -0.730091	 -0.745082
O	 -2.347518	 -0.290803	 0.079804
C	 -1.184022	 0.487508	 -0.006784
C	 0.062599	 -0.378592	 0.031606
H	 -1.176523	 1.099369	 -0.904519
H	 -1.187323	 1.153111	 0.844927
O	 0.008767	 -1.159275	 1.183741
H	 0.955368	 0.249842	 0.035552
H	 0.104434	 -0.998458	 -0.862038
C	 1.079848	 -2.035741	 1.337801
H	 2.025777	 -1.500976	 1.400054
H	 0.925141	 -2.582162	 2.257797
H	 1.136564	 -2.742490	 0.512525

	symmetry c1
}
set optking {
	frozen_dihedral = ("
		8 4 3 5
	")
}

ee = optimize('scf')
oeprop('DIPOLE', 'QUADRUPOLE', 'MULLIKEN_CHARGES')
f=open( 'psi4out.xyz', 'w' )
f.write( "13  " )
f.write( str(ee) + "\n" )
f.write( MOL.save_string_xyz() )
f.close()
--------------------------------------------------------------------------

    Molecular point group: c1
  Charge       = 0
  Multiplicity = 1
  Basis Set: 6-31G*
  Basis Set:
  @DF-RHF Final Energy:  -267.94682820728133
    Total Energy =                       -267.9468282072814986
    Molecular point group: c1
  Basis Set: 6-31G*
  Basis Set:
  Basis Set: 6-31G*
  Basis Set:
  @DF-RHF Final Energy:  -267.94742104376240
    Total Energy =                       -267.9474210437623469
  Basis Set: 6-31G*
  Basis Set:
  Basis Set: 6-31G*
  Basis Set:
  @DF-RHF Final Energy:  -267.94760064054020
    Total Energy =                       -267.9476006405400312
  Basis Set: 6-31G*
  Basis Set:
  Basis Set: 6-31G*
  Basis Set:
  @DF-RHF Final Energy:  -267.94769655309943
    Total Energy =                       -267.9476965530993198
  Basis Set: 6-31G*
  Basis Set:
  Basis Set: 6-31G*
  Basis Set:
  @DF-RHF Final Energy:  -267.94771292226471
    Total Energy =                       -267.9477129222648273
  Basis Set: 6-31G*
  Basis Set:
  Basis Set: 6-31G*
  Basis Set:
  @DF-RHF Final Energy:  -267.94771407540941
    Total Energy =                       -267.9477140754095785
  Basis Set: 6-31G*
  Basis Set:
  Charge       = 0
  Multiplicity = 1
  Basis Set: 6-31G*
  Basis Set:

    Orbital Energies (a.u.)
    -----------------------

    Doubly Occupied:

       1A    -20.559859     2A    -20.552005     3A    -11.276178
       4A    -11.270831     5A    -11.269177     6A     -1.389803
       7A     -1.356914     8A     -1.020292     9A     -0.918288
      10A     -0.840373    11A     -0.694659    12A     -0.680057
      13A     -0.665553    14A     -0.627583    15A     -0.606320
      16A     -0.566364    17A     -0.538608    18A     -0.501743
      19A     -0.468463    20A     -0.436039    21A     -0.421632

  @DF-RHF Final Energy:  -267.94771417082018

   => Energetics <=

    Nuclear Repulsion Energy =            193.5571737125158904
    One-Electron Energy =                -749.6882930992788943
    Two-Electron Energy =                 288.1834052159425710
    DFT Exchange-Correlation Energy =       0.0000000000000000
    Empirical Dispersion Energy =           0.0000000000000000
    PCM Polarization Energy =               0.0000000000000000
    EFP Energy =                            0.0000000000000000
    Total Energy =                       -267.9477141708204044
    Molecular point group: c1
  Basis Set: 6-31G*
  Basis Set:

  -Total Gradient:
     Atom            X                  Y                   Z
    ------   -----------------  -----------------  -----------------
       1        0.000000859795     0.000001607371    -0.000000744687
       2        0.000018048480     0.000009293955     0.000012084264
       3        0.001321587960     0.001931723432     0.001886755016
       4       -0.000176701198    -0.000392541974    -0.002995015666
       5       -0.001107014515    -0.001567041942    -0.001132663697
       6       -0.000006091191    -0.000002737338     0.000000258233
       7        0.000009141061     0.000005444489    -0.000017845001
       8       -0.000066597422     0.000026135063     0.002242420344
       9        0.000003167020    -0.000005872444    -0.000001859683
      10       -0.000004070867     0.000000915600     0.000005840084
      11        0.000002554474    -0.000002583910     0.000000253897
      12        0.000003223338    -0.000002648204    -0.000000543625
      13        0.000001893066    -0.000001694097     0.000001060521

  **** Optimization is complete! (in 7 steps) ****
    Final optimized geometry and variables:
    Molecular point group: c1

    Geometry (in Angstrom), charge = 0, multiplicity = 1:

    H           -1.890639451953    -0.186237436967    -1.142145424293
    O           -1.881503239183     0.481001832585    -0.470009920357
    C           -0.672736636068     1.182336919449    -0.513503193345
    C            0.550676834029     0.286589212401    -0.464661037501
    H           -0.615699383528     1.789020822121    -1.417121593344
    H           -0.675356558033     1.842151779620     0.342714421901
    O            0.499228011988    -0.510225010845     0.673999247424
    H            1.444240472621     0.911891383358    -0.446792110121
    H            0.600530791997    -0.335256798394    -1.361627645076
    C            1.587478463743    -1.364684990227     0.823829038011
    H            2.522082636445    -0.811842838566     0.902625576941
    H            1.436146793805    -1.928381932855     1.733759298902
    H            1.667916691848    -2.058733347695    -0.011228475922

  Mulliken Charges: (a.u.)
   Center  Symbol    Alpha    Beta     Spin     Total
       1     H     0.28309  0.28309  0.00000  0.43381
       2     O     4.36314  4.36314  0.00000 -0.72628
       3     C     2.99436  2.99436  0.00000  0.01128
       4     C     3.00674  3.00674  0.00000 -0.01349
       5     H     0.43131  0.43131  0.00000  0.13737
       6     H     0.40920  0.40920  0.00000  0.18159
       7     O     4.29602  4.29602  0.00000 -0.59204
       8     H     0.42956  0.42956  0.00000  0.14087
       9     H     0.43645  0.43645  0.00000  0.12709
      10     C     3.08028  3.08028  0.00000 -0.16056
      11     H     0.42995  0.42995  0.00000  0.14010
      12     H     0.40924  0.40924  0.00000  0.18152
      13     H     0.43064  0.43064  0.00000  0.13873

   Total alpha = 21.00000, Total beta = 21.00000, Total charge =  0.00000
