  ==> Input File <==

--------------------------------------------------------------------------
set {
	reference rhf
	basis 6-31G*
}

set_num_threads( 1 )
memory 2 gb

molecule MOL {
0 1

O	 2.862325	 1.357334	 0.000267
C	 2.843464	 0.164689	 -0.000222
C	 1.546494	 -0.624492	 -0.000609
C	 4.124123	 -0.644674	 -0.000428
C	 0.291004	 0.242674	 0.000989
H	 1.557904	 -1.283758	 -0.867573
H	 1.558622	 -1.285963	 0.864672
C	 -0.108668	 0.698242	 -1.403462
H	 0.456445	 1.106965	 0.636409
H	 -0.523960	 -0.312082	 0.455112
C	 -1.365723	 1.569697	 -1.413980
H	 0.714349	 1.250888	 -1.854319
H	 -0.271451	 -0.173358	 -2.035825
C	 -1.771871	 2.029521	 -2.815272
H	 -1.203880	 2.441664	 -0.782712
H	 -2.189337	 1.017937	 -0.964294
C	 -3.028225	 2.899725	 -2.817550
H	 -0.949804	 2.582212	 -3.265340
H	 -1.935399	 1.158735	 -3.446817
H	 -2.884910	 3.796556	 -2.221475
H	 -3.290344	 3.210288	 -3.824299
H	 -3.877773	 2.362624	 -2.405318
H	 4.165367	 -1.288615	 -0.874074
H	 4.976217	 0.020734	 -0.001915
H	 4.166763	 -1.286207	 0.874930

	symmetry c1
}
set optking {
	frozen_dihedral = ("
		9 5 8 12,
		15 11 8 12,
		15 11 14 18,
		1 2 3 6
	")
}

ee = energy('scf')
oeprop('DIPOLE', 'QUADRUPOLE', 'MULLIKEN_CHARGES')
f=open( 'psi4out.xyz', 'w' )
f.write( "25  " )
f.write( str(ee) + "\n" )
f.write( MOL.save_string_xyz() )
f.close()
--------------------------------------------------------------------------

    Molecular point group: c1

    Geometry (in Angstrom), charge = 0, multiplicity = 1:

       Center              X                  Y                   Z               Mass
    ------------   -----------------  -----------------  -----------------  -----------------
           O          2.264274511562     0.489727348587     0.946794630121    15.994914619560
           C          2.245413511562    -0.702917651413     0.946305630121    12.000000000000
           C          0.948443511562    -1.492098651413     0.945918630121    12.000000000000
           C          3.526072511562    -1.512280651413     0.946099630121    12.000000000000
           C         -0.307046488438    -0.624932651413     0.947516630121    12.000000000000
           H          0.959853511562    -2.151364651413     0.078954630121     1.007825032070
           H          0.960571511562    -2.153569651413     1.811199630121     1.007825032070
           C         -0.706718488438    -0.169364651413    -0.456934369879    12.000000000000
           H         -0.141605488438     0.239358348587     1.582936630121     1.007825032070
           H         -1.122010488438    -1.179688651413     1.401639630121     1.007825032070
           C         -1.963773488438     0.702090348587    -0.467452369879    12.000000000000
           H          0.116298511562     0.383281348587    -0.907791369879     1.007825032070
           H         -0.869501488438    -1.040964651413    -1.089297369879     1.007825032070
           C         -2.369921488438     1.161914348587    -1.868744369879    12.000000000000
           H         -1.801930488438     1.574057348587     0.163815630121     1.007825032070
           H         -2.787387488438     0.150330348587    -0.017766369879     1.007825032070
           C         -3.626275488438     2.032118348587    -1.871022369879    12.000000000000
           H         -1.547854488438     1.714605348587    -2.318812369879     1.007825032070
           H         -2.533449488438     0.291128348587    -2.500289369879     1.007825032070
           H         -3.482960488438     2.928949348587    -1.274947369879     1.007825032070
           H         -3.888394488438     2.342681348587    -2.877771369879     1.007825032070
           H         -4.475823488438     1.495017348587    -1.458790369879     1.007825032070
           H          3.567316511562    -2.156221651413     0.072453630121     1.007825032070
           H          4.378166511562    -0.846872651413     0.944612630121     1.007825032070
           H          3.568712511562    -2.153813651413     1.821457630121     1.007825032070

  Charge       = 0
  Multiplicity = 1
  Basis Set: 6-31G*
  Basis Set:

    Orbital Energies (a.u.)
    -----------------------

    Doubly Occupied:

       1A    -20.551561     2A    -11.327261     3A    -11.231459
       4A    -11.229031     5A    -11.215636     6A    -11.211621
       7A    -11.210971     8A    -11.209290     9A    -11.205443
      10A     -1.397159    11A     -1.090678    12A     -1.054489
      13A     -1.013604    14A     -0.966961    15A     -0.888100
      16A     -0.814676    17A     -0.787468    18A     -0.728831
      19A     -0.668777    20A     -0.636764    21A     -0.633400
      22A     -0.621970    23A     -0.589794    24A     -0.584302
      25A     -0.574541    26A     -0.555945    27A     -0.532520
      28A     -0.524937    29A     -0.514511    30A     -0.498018
      31A     -0.482689    32A     -0.472625    33A     -0.460835
      34A     -0.457448    35A     -0.439179    36A     -0.401873

  @DF-RHF Final Energy:  -387.13518135221892

   => Energetics <=

    Nuclear Repulsion Energy =            447.0305921286248463
    One-Electron Energy =               -1410.7631123205105723
    Two-Electron Energy =                 576.5973388396663495
    DFT Exchange-Correlation Energy =       0.0000000000000000
    Empirical Dispersion Energy =           0.0000000000000000
    PCM Polarization Energy =               0.0000000000000000
    EFP Energy =                            0.0000000000000000
    Total Energy =                       -387.1351813522193197

  Mulliken Charges: (a.u.)
   Center  Symbol    Alpha    Beta     Spin     Total
       1     O     4.26163  4.26163  0.00000 -0.52326
       2     C     2.73643  2.73643  0.00000  0.52714
       3     C     3.21294  3.21294  0.00000 -0.42588
       4     C     3.28675  3.28675  0.00000 -0.57350
       5     C     3.15239  3.15239  0.00000 -0.30479
       6     H     0.40904  0.40904  0.00000  0.18192
       7     H     0.40712  0.40712  0.00000  0.18576
       8     C     3.15588  3.15588  0.00000 -0.31175
       9     H     0.40453  0.40453  0.00000  0.19094
      10     H     0.42102  0.42102  0.00000  0.15797
      11     C     3.15150  3.15150  0.00000 -0.30299
      12     H     0.41257  0.41257  0.00000  0.17485
      13     H     0.42768  0.42768  0.00000  0.14463
      14     C     3.15165  3.15165  0.00000 -0.30330
      15     H     0.42053  0.42053  0.00000  0.15895
      16     H     0.42590  0.42590  0.00000  0.14821
      17     C     3.23926  3.23926  0.00000 -0.47853
      18     H     0.42162  0.42162  0.00000  0.15676
      19     H     0.42460  0.42460  0.00000  0.15079
      20     H     0.42111  0.42111  0.00000  0.15778
      21     H     0.41992  0.41992  0.00000  0.16016
      22     H     0.42262  0.42262  0.00000  0.15477
      23     H     0.40837  0.40837  0.00000  0.18326
      24     H     0.39644  0.39644  0.00000  0.20712
      25     H     0.40850  0.40850  0.00000  0.18300

   Total alpha = 36.00000, Total beta = 36.00000, Total charge =  0.00000
