  ==> Input File <==

--------------------------------------------------------------------------
set {
	reference rhf
	basis 6-31G*
}

set_num_threads( 1 )
memory 2 gb

molecule MOL {
0 1

H	 2.176868	 -0.646004	 -0.217325
O	 1.337496	 -0.537251	 0.205931
C	 0.702312	 0.627605	 -0.264544
C	 -0.714990	 0.596302	 0.266387
H	 0.682322	 0.642550	 -1.350929
H	 1.215941	 1.520383	 0.085680
O	 -1.405996	 -0.526611	 -0.195820
H	 -1.257453	 1.468809	 -0.075599
H	 -0.688972	 0.618407	 1.353696
H	 -0.806652	 -1.261800	 -0.178536

	symmetry c1
}
set optking {
	frozen_dihedral = ("
		5 3 4 7
	")
}

ee = energy('scf')
oeprop('DIPOLE', 'QUADRUPOLE', 'MULLIKEN_CHARGES')
f=open( 'psi4out.xyz', 'w' )
f.write( "10  " )
f.write( str(ee) + "\n" )
f.write( MOL.save_string_xyz() )
f.close()
--------------------------------------------------------------------------

    Molecular point group: c1

    Geometry (in Angstrom), charge = 0, multiplicity = 1:

       Center              X                  Y                   Z               Mass
    ------------   -----------------  -----------------  -----------------  -----------------
           H          2.175504108059    -0.646506541686    -0.214066134708     1.007825032070
           O          1.336132108059    -0.537753541686     0.209189865292    15.994914619560
           C          0.700948108059     0.627102458314    -0.261285134708    12.000000000000
           C         -0.716353891941     0.595799458314     0.269645865292    12.000000000000
           H          0.680958108059     0.642047458314    -1.347670134708     1.007825032070
           H          1.214577108059     1.519880458314     0.088938865292     1.007825032070
           O         -1.407359891941    -0.527113541686    -0.192561134708    15.994914619560
           H         -1.258816891941     1.468306458314    -0.072340134708     1.007825032070
           H         -0.690335891941     0.617904458314     1.356954865292     1.007825032070
           H         -0.808015891941    -1.262302541686    -0.175277134708     1.007825032070

  Charge       = 0
  Multiplicity = 1
  Basis Set: 6-31G*
  Basis Set:

    Orbital Energies (a.u.)
    -----------------------

    Doubly Occupied:

       1A    -20.572804     2A    -20.546859     3A    -11.279133
       4A    -11.267739     5A     -1.385150     6A     -1.350360
       7A     -1.002923     8A     -0.845464     9A     -0.730259
      10A     -0.672732    11A     -0.656469    12A     -0.603750
      13A     -0.573850    14A     -0.537066    15A     -0.486254
      16A     -0.457145    17A     -0.431890

  @DF-RHF Final Energy:  -228.92495135254256

   => Energetics <=

    Nuclear Repulsion Energy =            134.7391525574535081
    One-Electron Energy =                -580.5285811246849335
    Two-Electron Energy =                 216.8644772146888897
    DFT Exchange-Correlation Energy =       0.0000000000000000
    Empirical Dispersion Energy =           0.0000000000000000
    PCM Polarization Energy =               0.0000000000000000
    EFP Energy =                            0.0000000000000000
    Total Energy =                       -228.9249513525425357

  Mulliken Charges: (a.u.)
   Center  Symbol    Alpha    Beta     Spin     Total
       1     H     0.27601  0.27601  0.00000  0.44798
       2     O     4.37658  4.37658  0.00000 -0.75317
       3     C     3.02004  3.02004  0.00000 -0.04009
       4     C     2.98973  2.98973  0.00000  0.02054
       5     H     0.42268  0.42268  0.00000  0.15464
       6     H     0.42597  0.42597  0.00000  0.14807
       7     O     4.37569  4.37569  0.00000 -0.75139
       8     H     0.41840  0.41840  0.00000  0.16319
       9     H     0.42296  0.42296  0.00000  0.15408
      10     H     0.27193  0.27193  0.00000  0.45614

   Total alpha = 17.00000, Total beta = 17.00000, Total charge =  0.00000
