  ==> Input File <==

--------------------------------------------------------------------------
set {
	reference rhf
	basis 6-31G*
}

set_num_threads( 4 )
memory 2 gb

molecule MOL {
0 1

H	 -2.130425	 -1.153358	 0.404236
O	 -2.347518	 -0.290803	 0.079804
C	 -1.184022	 0.487508	 -0.006784
C	 0.062599	 -0.378592	 0.031606
H	 -1.176523	 1.099369	 -0.904519
H	 -1.187323	 1.153111	 0.844927
O	 1.171513	 0.459272	 -0.058250
H	 0.050699	 -1.089204	 -0.797170
H	 0.078739	 -0.954914	 0.954740
C	 2.397842	 -0.198080	 -0.002151
H	 2.508049	 -0.905315	 -0.822092
H	 3.173794	 0.550865	 -0.078850
H	 2.517602	 -0.735921	 0.936026

	symmetry c1
}
set optking {
	frozen_dihedral = ("
		1 2 3 5
	")
}

ee = optimize('scf')
oeprop('DIPOLE', 'QUADRUPOLE', 'MULLIKEN_CHARGES')
f=open( 'psi4out.xyz', 'w' )
f.write( "13  " )
f.write( str(ee) + "\n" )
f.write( MOL.save_string_xyz() )
f.close()
--------------------------------------------------------------------------

    Molecular point group: c1
  Charge       = 0
  Multiplicity = 1
  Basis Set: 6-31G*
  Basis Set:
  @DF-RHF Final Energy:  -267.94578555359055
    Total Energy =                       -267.9457855535907242
    Molecular point group: c1
  Basis Set: 6-31G*
  Basis Set:
  Basis Set: 6-31G*
  Basis Set:
  @DF-RHF Final Energy:  -267.94684947063047
    Total Energy =                       -267.9468494706306387
  Basis Set: 6-31G*
  Basis Set:
  Basis Set: 6-31G*
  Basis Set:
  @DF-RHF Final Energy:  -267.94707261648705
    Total Energy =                       -267.9470726164871621
  Basis Set: 6-31G*
  Basis Set:
  Basis Set: 6-31G*
  Basis Set:
  @DF-RHF Final Energy:  -267.94707554168485
    Total Energy =                       -267.9470755416849670
  Basis Set: 6-31G*
  Basis Set:
  Charge       = 0
  Multiplicity = 1
  Basis Set: 6-31G*
  Basis Set:

    Orbital Energies (a.u.)
    -----------------------

    Doubly Occupied:

       1A    -20.568119     2A    -20.557542     3A    -11.280018
       4A    -11.274377     5A    -11.268575     6A     -1.394597
       7A     -1.363072     8A     -1.022240     9A     -0.916129
      10A     -0.851281    11A     -0.697356    12A     -0.684511
      13A     -0.670470    14A     -0.627319    15A     -0.606432
      16A     -0.578147    17A     -0.546694    18A     -0.497989
      19A     -0.471980    20A     -0.440176    21A     -0.427672

  @DF-RHF Final Energy:  -267.94707573159457

   => Energetics <=

    Nuclear Repulsion Energy =            190.4123327929602851
    One-Electron Energy =                -743.2294257310231842
    Two-Electron Energy =                 284.8700172064683329
    DFT Exchange-Correlation Energy =       0.0000000000000000
    Empirical Dispersion Energy =           0.0000000000000000
    PCM Polarization Energy =               0.0000000000000000
    EFP Energy =                            0.0000000000000000
    Total Energy =                       -267.9470757315945093
    Molecular point group: c1
  Basis Set: 6-31G*
  Basis Set:

  -Total Gradient:
     Atom            X                  Y                   Z
    ------   -----------------  -----------------  -----------------
       1        0.000496511796    -0.000932760804    -0.002440044634
       2       -0.000382923207     0.000715066108     0.002796783413
       3       -0.001211639751     0.001951514429     0.000684679296
       4       -0.000015411114    -0.000006368699    -0.000022885580
       5        0.001110205785    -0.001728589631    -0.001020038550
       6       -0.000001792683    -0.000007967675    -0.000006038911
       7        0.000021847230     0.000014302765     0.000001896733
       8       -0.000003463148    -0.000011834322     0.000001160533
       9        0.000002165533     0.000012360273    -0.000006906306
      10       -0.000016652730    -0.000007873566     0.000018242647
      11       -0.000001629380     0.000002452649    -0.000004482991
      12       -0.000007970659     0.000003815546    -0.000002911138
      13        0.000010752331    -0.000004117073     0.000000545489

  **** Optimization is complete! (in 5 steps) ****
    Final optimized geometry and variables:
    Molecular point group: c1

    Geometry (in Angstrom), charge = 0, multiplicity = 1:

    H           -2.185444725151    -1.139656956433     0.395740845893
    O           -2.361405457888    -0.283239578936     0.033952952381
    C           -1.187762310733     0.487363047663    -0.017688861279
    C            0.063019782353    -0.373867140513     0.023336761302
    H           -1.194096917476     1.037255549059    -0.949518102454
    H           -1.162456983661     1.197572663349     0.801856904597
    O            1.168295890301     0.467265144667    -0.038375527445
    H            0.056983165692    -1.071821569742    -0.813950179401
    H            0.081682853543    -0.963034634560     0.943223340092
    C            2.396648906403    -0.190442519952    -0.025680622833
    H            2.496795001225    -0.860212793304    -0.877208164095
    H            3.169522892163     0.563338429387    -0.078640881654
    H            2.528158024731    -0.767869823556     0.887211911235

  Mulliken Charges: (a.u.)
   Center  Symbol    Alpha    Beta     Spin     Total
       1     H     0.28067  0.28067  0.00000  0.43865
       2     O     4.37734  4.37734  0.00000 -0.75469
       3     C     2.98336  2.98336  0.00000  0.03328
       4     C     3.01393  3.01393  0.00000 -0.02787
       5     H     0.41295  0.41295  0.00000  0.17410
       6     H     0.41939  0.41939  0.00000  0.16122
       7     O     4.30506  4.30506  0.00000 -0.61011
       8     H     0.42626  0.42626  0.00000  0.14749
       9     H     0.43496  0.43496  0.00000  0.13008
      10     C     3.08142  3.08142  0.00000 -0.16284
      11     H     0.42747  0.42747  0.00000  0.14505
      12     H     0.40901  0.40901  0.00000  0.18198
      13     H     0.42818  0.42818  0.00000  0.14365

   Total alpha = 21.00000, Total beta = 21.00000, Total charge = -0.00000
