  ==> Input File <==

--------------------------------------------------------------------------
set {
	reference rhf
	basis 6-31G*
}

set_num_threads( 4 )
memory 2 gb

molecule MOL {
0 1

O	 -2.821601	 1.309235	 -0.001213
C	 -2.668563	 0.129746	 -0.000350
C	 -3.801572	 -0.864014	 -0.000442
O	 -1.481751	 -0.454642	 0.000584
H	 -4.417280	 -0.689587	 -0.874708
H	 -3.443784	 -1.883046	 -0.000565
H	 -4.417179	 -0.689832	 0.873954
C	 -0.334255	 0.388708	 0.000906
C	 0.891947	 -0.504646	 0.000751
H	 -0.365390	 1.025305	 -0.873475
H	 -0.365484	 1.024911	 0.875569
C	 2.191998	 0.301789	 0.000897
H	 0.855148	 -1.151283	 -0.871571
H	 0.855132	 -1.151660	 0.872805
C	 2.189941	 1.435418	 1.028130
H	 3.031519	 -0.361493	 0.201764
H	 2.362183	 0.717737	 -0.990620
C	 3.488976	 2.240013	 1.029161
H	 2.020352	 1.021483	 2.019579
H	 1.352984	 2.100485	 0.827483
H	 4.341659	 1.607983	 1.260431
H	 3.457282	 3.035412	 1.767112
H	 3.669104	 2.695363	 0.059512

	symmetry c1
}
set optking {
	frozen_dihedral = ("
		16 12 9 13
	")
}

ee = optimize('scf')
oeprop('DIPOLE', 'QUADRUPOLE', 'MULLIKEN_CHARGES')
f=open( 'psi4out.xyz', 'w' )
f.write( "23  " )
f.write( str(ee) + "\n" )
f.write( MOL.save_string_xyz() )
f.close()
--------------------------------------------------------------------------

    Molecular point group: c1
  Charge       = 0
  Multiplicity = 1
  Basis Set: 6-31G*
  Basis Set:
  @DF-RHF Final Energy:  -422.97484118098424
    Total Energy =                       -422.9748411809835034
    Molecular point group: c1
  Basis Set: 6-31G*
  Basis Set:
  Basis Set: 6-31G*
  Basis Set:
  @DF-RHF Final Energy:  -422.97569702227042
    Total Energy =                       -422.9756970222701966
  Basis Set: 6-31G*
  Basis Set:
  Basis Set: 6-31G*
  Basis Set:
  @DF-RHF Final Energy:  -422.97672878950300
    Total Energy =                       -422.9767287895029995
  Basis Set: 6-31G*
  Basis Set:
  Basis Set: 6-31G*
  Basis Set:
  @DF-RHF Final Energy:  -422.97680449543583
    Total Energy =                       -422.9768044954359993
  Basis Set: 6-31G*
  Basis Set:
  Basis Set: 6-31G*
  Basis Set:
  @DF-RHF Final Energy:  -422.97682141945506
    Total Energy =                       -422.9768214194555185
  Basis Set: 6-31G*
  Basis Set:
  Basis Set: 6-31G*
  Basis Set:
  @DF-RHF Final Energy:  -422.97682710612850
    Total Energy =                       -422.9768271061275300
  Basis Set: 6-31G*
  Basis Set:
  Basis Set: 6-31G*
  Basis Set:
  @DF-RHF Final Energy:  -422.97682856618871
    Total Energy =                       -422.9768285661882601
  Basis Set: 6-31G*
  Basis Set:
  Charge       = 0
  Multiplicity = 1
  Basis Set: 6-31G*
  Basis Set:

    Orbital Energies (a.u.)
    -----------------------

    Doubly Occupied:

       1A    -20.602707     2A    -20.540364     3A    -11.373906
       4A    -11.280701     5A    -11.232257     6A    -11.224585
       7A    -11.223907     8A    -11.221850     9A    -11.213068
      10A     -1.467668    11A     -1.360510    12A     -1.093905
      13A     -1.040043    14A     -1.002304    15A     -0.931300
      16A     -0.851364    17A     -0.789280    18A     -0.779417
      19A     -0.690218    20A     -0.684404    21A     -0.668985
      22A     -0.640170    23A     -0.609795    24A     -0.587515
      25A     -0.577897    26A     -0.572198    27A     -0.563983
      28A     -0.528596    29A     -0.526901    30A     -0.511174
      31A     -0.496172    32A     -0.475079    33A     -0.468062
      34A     -0.460203    35A     -0.449968    36A     -0.435603

  @DF-RHF Final Energy:  -422.97682889019819

   => Energetics <=

    Nuclear Repulsion Energy =            456.7942500805252735
    One-Electron Energy =               -1481.1900445987844250
    Two-Electron Energy =                 601.4189656280601639
    DFT Exchange-Correlation Energy =       0.0000000000000000
    Empirical Dispersion Energy =           0.0000000000000000
    PCM Polarization Energy =               0.0000000000000000
    EFP Energy =                            0.0000000000000000
    Total Energy =                       -422.9768288901990445
    Molecular point group: c1
  Basis Set: 6-31G*
  Basis Set:

  -Total Gradient:
     Atom            X                  Y                   Z
    ------   -----------------  -----------------  -----------------
       1       -0.000004050096     0.000001091000    -0.000002145687
       2        0.000004201094     0.000004945915     0.000004694525
       3        0.000002134358     0.000000525098    -0.000000211649
       4        0.000008074340     0.000000432096    -0.000002488565
       5        0.000000896904     0.000001366777    -0.000000780500
       6        0.000000368892    -0.000000298383     0.000000535605
       7        0.000000610497    -0.000000355853    -0.000000598208
       8       -0.000006301352     0.000001214804     0.000007996109
       9        0.002058973076    -0.003016097169     0.003020828997
      10       -0.000003951368    -0.000003778595    -0.000002164693
      11       -0.000007019865    -0.000000432433    -0.000001178543
      12       -0.000154316693    -0.000233375493    -0.004675426355
      13       -0.001704155538     0.002560646741    -0.001843308033
      14       -0.000002512900     0.000000946775     0.000001582378
      15        0.000006582529    -0.000005554591     0.000009091608
      16       -0.000201595591     0.000678432974     0.003490355984
      17        0.000002911417     0.000002003978    -0.000003164144
      18       -0.000002625182     0.000004918544    -0.000003329998
      19       -0.000003026664     0.000008201145     0.000006544842
      20        0.000005998880    -0.000004497471    -0.000006788864
      21       -0.000001786342    -0.000003047859    -0.000007390851
      22        0.000002759124    -0.000003807806     0.000004823571
      23       -0.000002169510     0.000006519810     0.000002522474

  **** Optimization is complete! (in 8 steps) ****
    Final optimized geometry and variables:
    Molecular point group: c1

    Geometry (in Angstrom), charge = 0, multiplicity = 1:

    O           -2.634243122938     0.800307261816    -0.199069399712
    C           -2.433623630615    -0.371100506825    -0.247714377694
    C           -3.525292567195    -1.406787432067    -0.331163717087
    O           -1.225050369715    -0.908613996406    -0.234958903520
    H           -4.120054527196    -1.214913587403    -1.216208284636
    H           -3.127048265322    -2.410078585718    -0.366641644561
    H           -4.174289079544    -1.298302113945     0.529605412016
    C           -0.112491625219    -0.021910429770    -0.155032516709
    C            1.141941010560    -0.880241983516    -0.144141221665
    H           -0.132256493255     0.644185692526    -1.008422282648
    H           -0.212815304663     0.578010734928     0.737468820886
    C            2.444207118626    -0.072214196723    -0.227507135945
    H            1.079527982245    -1.540833889456    -1.003611146791
    H            1.137132369660    -1.500671097251     0.747030694835
    C            2.564607614882     1.074062393707     0.783999132654
    H            3.271179287669    -0.754851106023    -0.048663751258
    H            2.568326017734     0.321853268339    -1.233587553899
    C            3.942958641727     1.733738139071     0.753509603896
    H            2.368411916711     0.694584501088     1.785051550990
    H            1.808913459232     1.830077693183     0.588951904485
    H            4.725444416570     1.019352783516     0.992971359283
    H            4.005165470068     2.546141139631     1.470557204575
    H            4.159235942648     2.142974526718    -0.229310025398

  Mulliken Charges: (a.u.)
   Center  Symbol    Alpha    Beta     Spin     Total
       1     O     4.28409  4.28409  0.00000 -0.56817
       2     C     2.61539  2.61539  0.00000  0.76923
       3     C     3.28778  3.28778  0.00000 -0.57556
       4     O     4.31316  4.31316  0.00000 -0.62633
       5     H     0.39755  0.39755  0.00000  0.20491
       6     H     0.39989  0.39989  0.00000  0.20022
       7     H     0.39756  0.39756  0.00000  0.20489
       8     C     2.99907  2.99907  0.00000  0.00187
       9     C     3.16502  3.16502  0.00000 -0.33005
      10     H     0.41163  0.41163  0.00000  0.17673
      11     H     0.40807  0.40807  0.00000  0.18386
      12     C     3.15913  3.15913  0.00000 -0.31826
      13     H     0.41186  0.41186  0.00000  0.17628
      14     H     0.41448  0.41448  0.00000  0.17104
      15     C     3.15905  3.15905  0.00000 -0.31810
      16     H     0.41784  0.41784  0.00000  0.16432
      17     H     0.41986  0.41986  0.00000  0.16028
      18     C     3.23925  3.23925  0.00000 -0.47849
      19     H     0.42145  0.42145  0.00000  0.15710
      20     H     0.41867  0.41867  0.00000  0.16266
      21     H     0.42119  0.42119  0.00000  0.15762
      22     H     0.41735  0.41735  0.00000  0.16531
      23     H     0.42068  0.42068  0.00000  0.15863

   Total alpha = 36.00000, Total beta = 36.00000, Total charge = -0.00000
