  ==> Input File <==

--------------------------------------------------------------------------
set {
	reference rhf
	basis 6-31G*
}

set_num_threads( 4 )
memory 2 gb

molecule MOL {
0 1

H	 -3.261111	 -0.295142	 1.469456
C	 -3.306842	 -0.277400	 0.373456
C	 -2.660244	 0.921717	 -0.272021
O	 -3.838538	 -1.161155	 -0.216482
C	 -1.321180	 0.579989	 -0.940142
H	 -3.361257	 1.348846	 -0.979730
H	 -2.490852	 1.655940	 0.514667
C	 -1.462268	 -0.343207	 -2.153032
H	 -0.842920	 1.505965	 -1.245296
H	 -0.657587	 0.124086	 -0.206961
C	 -0.121457	 -0.665957	 -2.815508
H	 -2.123764	 0.123142	 -2.880211
H	 -1.947956	 -1.270871	 -1.856239
C	 -0.267852	 -1.576366	 -4.037667
H	 0.363501	 0.264336	 -3.100292
H	 0.534191	 -1.143421	 -2.088501
C	 1.056867	 -1.994334	 -4.686122
H	 -0.891529	 -1.083091	 -4.781576
H	 -0.804713	 -2.474633	 -3.739994
C	 1.842198	 -0.847140	 -5.323946
H	 0.845010	 -2.737993	 -5.450345
H	 1.679830	 -2.490874	 -3.944983
H	 1.237758	 -0.321572	 -6.058588
H	 2.172811	 -0.122118	 -4.587731
H	 2.726350	 -1.221195	 -5.831245

	symmetry c1
}
set optking {
	frozen_dihedral = ("
		6 3 2 4
	")
}

ee = optimize('scf')
oeprop('DIPOLE', 'QUADRUPOLE', 'MULLIKEN_CHARGES')
f=open( 'psi4out.xyz', 'w' )
f.write( "25  " )
f.write( str(ee) + "\n" )
f.write( MOL.save_string_xyz() )
f.close()
--------------------------------------------------------------------------

    Molecular point group: c1
  Charge       = 0
  Multiplicity = 1
  Basis Set: 6-31G*
  Basis Set:
  @DF-RHF Final Energy:  -387.11923729463473
    Total Energy =                       -387.1192372946343312
    Molecular point group: c1
  Basis Set: 6-31G*
  Basis Set:
  Basis Set: 6-31G*
  Basis Set:
  @DF-RHF Final Energy:  -387.11884065332862
    Total Energy =                       -387.1188406533287889
  Basis Set: 6-31G*
  Basis Set:
  Basis Set: 6-31G*
  Basis Set:
  @DF-RHF Final Energy:  -387.11941961153258
    Total Energy =                       -387.1194196115326349
  Basis Set: 6-31G*
  Basis Set:
  Basis Set: 6-31G*
  Basis Set:
  @DF-RHF Final Energy:  -387.11973993780424
    Total Energy =                       -387.1197399378048658
  Basis Set: 6-31G*
  Basis Set:
  Basis Set: 6-31G*
  Basis Set:
  @DF-RHF Final Energy:  -387.11973695654399
    Total Energy =                       -387.1197369565441022
  Basis Set: 6-31G*
  Basis Set:
  Basis Set: 6-31G*
  Basis Set:
  @DF-RHF Final Energy:  -387.11974497448887
    Total Energy =                       -387.1197449744894357
  Basis Set: 6-31G*
  Basis Set:
  Basis Set: 6-31G*
  Basis Set:
  @DF-RHF Final Energy:  -387.11974616947316
    Total Energy =                       -387.1197461694723643
  Basis Set: 6-31G*
  Basis Set:
  Charge       = 0
  Multiplicity = 1
  Basis Set: 6-31G*
  Basis Set:

    Orbital Energies (a.u.)
    -----------------------

    Doubly Occupied:

       1A    -20.563544     2A    -11.327763     3A    -11.235347
       4A    -11.232628     5A    -11.214003     6A    -11.213711
       7A    -11.213081     8A    -11.211783     9A    -11.207482
      10A     -1.403484    11A     -1.096967    12A     -1.064585
      13A     -1.009371    14A     -0.940394    15A     -0.873652
      16A     -0.813931    17A     -0.782676    18A     -0.774414
      19A     -0.678153    20A     -0.658703    21A     -0.629427
      22A     -0.614752    23A     -0.592435    24A     -0.589876
      25A     -0.572210    26A     -0.551695    27A     -0.536952
      28A     -0.514049    29A     -0.506937    30A     -0.495046
      31A     -0.484808    32A     -0.473527    33A     -0.459234
      34A     -0.454097    35A     -0.437263    36A     -0.406980

  @DF-RHF Final Energy:  -387.11974608787028

   => Energetics <=

    Nuclear Repulsion Energy =            442.7268847657468882
    One-Electron Energy =               -1402.0233394893004970
    Two-Electron Energy =                 572.1767086356835534
    DFT Exchange-Correlation Energy =       0.0000000000000000
    Empirical Dispersion Energy =           0.0000000000000000
    PCM Polarization Energy =               0.0000000000000000
    EFP Energy =                            0.0000000000000000
    Total Energy =                       -387.1197460878699985
    Molecular point group: c1
  Basis Set: 6-31G*
  Basis Set:

  -Total Gradient:
     Atom            X                  Y                   Z
    ------   -----------------  -----------------  -----------------
       1        0.000042768904     0.000073473873     0.000007338940
       2       -0.002085617220     0.001257570220     0.000180097899
       3        0.001368934926    -0.001621331851    -0.001333375586
       4        0.001442873120    -0.000604893785    -0.000074786239
       5       -0.000072640523     0.000049180387     0.000063397268
       6       -0.000569446198     0.000790075469     0.000971713351
       7        0.000061677084     0.000055852911     0.000074852733
       8       -0.000091034450     0.000254395373    -0.000038413338
       9       -0.000007278606     0.000032953132     0.000057115167
      10       -0.000055269276    -0.000041398501     0.000023339932
      11        0.000021369521    -0.000116232720     0.000120134669
      12       -0.000064013990    -0.000053048466     0.000007411806
      13        0.000048160795    -0.000068366890    -0.000051684683
      14       -0.000016972834     0.000021077944    -0.000049274097
      15       -0.000047040371    -0.000012889427     0.000027185072
      16        0.000044641813    -0.000006368871     0.000023043144
      17       -0.000001596066     0.000006664351    -0.000008407956
      18       -0.000022954096    -0.000019451335    -0.000008236053
      19        0.000025889301    -0.000003740220    -0.000005404857
      20       -0.000011895923    -0.000001234254     0.000001795658
      21       -0.000001630646     0.000007492822    -0.000002737478
      22       -0.000002553254    -0.000003134710     0.000000125789
      23       -0.000000065249     0.000001628377    -0.000002308867
      24       -0.000007001352     0.000003499276     0.000013333879
      25        0.000000694591    -0.000001773102     0.000003743843

  **** Optimization is complete! (in 8 steps) ****
    Final optimized geometry and variables:
    Molecular point group: c1

    Geometry (in Angstrom), charge = 0, multiplicity = 1:

    H           -2.113897768222     0.396631881556     3.780730115806
    C           -2.175489120447     0.356138961708     2.687511695025
    C           -1.560360409426     1.520556959353     1.944489104654
    O           -2.681673764705    -0.581343806046     2.159036500994
    C           -0.226358733561     1.158584028894     1.264546216002
    H           -2.277096346183     1.869363231586     1.207021236588
    H           -1.396830923569     2.331209833802     2.648645988144
    C           -0.367058209713     0.251472182438     0.040560876038
    H            0.255838664925     2.086707847281     0.969742594576
    H            0.434678404689     0.693583961526     1.993719754355
    C            0.981146363762    -0.070572054035    -0.608024668849
    H           -1.010939544850     0.740291538602    -0.688375096729
    H           -0.868288696421    -0.668805902625     0.319108381251
    C            0.842646140769    -0.957166930397    -1.848650488843
    H            1.482380762345     0.858460120777    -0.868648667110
    H            1.620560847462    -0.570132667201     0.118725543800
    C            2.171454291202    -1.382990852288    -2.483344221695
    H            0.238961162307    -0.441488846862    -2.593889049608
    H            0.287503084513    -1.851975087050    -1.575975860504
    C            2.986296022315    -0.235689245375    -3.083404726652
    H            1.961794537506    -2.107755823662    -3.266177379664
    H            2.773352010483    -1.904319891265    -1.741683206107
    H            2.404897715925     0.311873046508    -3.820502503386
    H            3.311491641545     0.471067678267    -2.327129620205
    H            3.875503075536    -0.612698778893    -3.579378532237

  Mulliken Charges: (a.u.)
   Center  Symbol    Alpha    Beta     Spin     Total
       1     H     0.42753  0.42753  0.00000  0.14495
       2     C     2.84364  2.84364  0.00000  0.31273
       3     C     3.20253  3.20253  0.00000 -0.40505
       4     O     4.23521  4.23521  0.00000 -0.47042
       5     C     3.16077  3.16077  0.00000 -0.32154
       6     H     0.40048  0.40048  0.00000  0.19904
       7     H     0.41463  0.41463  0.00000  0.17073
       8     C     3.15558  3.15558  0.00000 -0.31116
       9     H     0.41506  0.41506  0.00000  0.16987
      10     H     0.41899  0.41899  0.00000  0.16202
      11     C     3.15519  3.15519  0.00000 -0.31038
      12     H     0.42295  0.42295  0.00000  0.15411
      13     H     0.40310  0.40310  0.00000  0.19381
      14     C     3.15275  3.15275  0.00000 -0.30550
      15     H     0.42318  0.42318  0.00000  0.15363
      16     H     0.42440  0.42440  0.00000  0.15121
      17     C     3.15248  3.15248  0.00000 -0.30495
      18     H     0.42410  0.42410  0.00000  0.15181
      19     H     0.41964  0.41964  0.00000  0.16072
      20     C     3.24106  3.24106  0.00000 -0.48212
      21     H     0.42068  0.42068  0.00000  0.15864
      22     H     0.42348  0.42348  0.00000  0.15305
      23     H     0.42243  0.42243  0.00000  0.15514
      24     H     0.42076  0.42076  0.00000  0.15848
      25     H     0.41940  0.41940  0.00000  0.16121

   Total alpha = 36.00000, Total beta = 36.00000, Total charge =  0.00000
