  ==> Input File <==

--------------------------------------------------------------------------
set {
	reference rhf
	basis 6-31G*
}

set_num_threads( 4 )
memory 2 gb

molecule MOL {
0 1

H	 -2.646374	 -0.642757	 1.268656
C	 -2.083525	 -0.384536	 0.393091
O	 -0.807605	 -0.127164	 0.768327
F	 -2.118945	 -1.383102	 -0.486752
F	 -2.621877	 0.670592	 -0.209486
C	 0.084052	 0.273579	 -0.209957
C	 1.353033	 -0.546803	 -0.018071
Cl	 0.433844	 2.004619	 -0.074457
H	 -0.288836	 0.092657	 -1.202930
F	 1.961047	 -0.198938	 1.096132
F	 2.170742	 -0.304896	 -1.023193
F	 1.109174	 -1.834123	 0.018160

	symmetry c1
}
set optking {
	frozen_dihedral = ("
		10 7 6 9
	")
}

ee = optimize('scf')
oeprop('DIPOLE', 'QUADRUPOLE', 'MULLIKEN_CHARGES')
f=open( 'psi4out.xyz', 'w' )
f.write( "12  " )
f.write( str(ee) + "\n" )
f.write( MOL.save_string_xyz() )
f.close()
--------------------------------------------------------------------------

    Molecular point group: c1
  Charge       = 0
  Multiplicity = 1
  Basis Set: 6-31G*
  Basis Set:
  @DF-RHF Final Energy: -1146.31317384393742
    Total Energy =                      -1146.3131738439371929
    Molecular point group: c1
  Basis Set: 6-31G*
  Basis Set:
  Basis Set: 6-31G*
  Basis Set:
  @DF-RHF Final Energy: -1146.31373127436086
    Total Energy =                      -1146.3137312743615439
  Basis Set: 6-31G*
  Basis Set:
  Basis Set: 6-31G*
  Basis Set:
  @DF-RHF Final Energy: -1146.31387709215346
    Total Energy =                      -1146.3138770921514151
  Basis Set: 6-31G*
  Basis Set:
  Basis Set: 6-31G*
  Basis Set:
  @DF-RHF Final Energy: -1146.31388659222284
    Total Energy =                      -1146.3138865922230707
  Basis Set: 6-31G*
  Basis Set:
  Basis Set: 6-31G*
  Basis Set:
  @DF-RHF Final Energy: -1146.31388787151127
    Total Energy =                      -1146.3138878715105875
  Basis Set: 6-31G*
  Basis Set:
  Charge       = 0
  Multiplicity = 1
  Basis Set: 6-31G*
  Basis Set:

    Orbital Energies (a.u.)
    -----------------------

    Doubly Occupied:

       1A   -104.843080     2A    -26.359291     3A    -26.358771
       4A    -26.357770     5A    -26.346876     6A    -26.346406
       7A    -20.650139     8A    -11.527556     9A    -11.490073
      10A    -11.400876    11A    -10.577801    12A     -8.047156
      13A     -8.043628    14A     -8.043516    15A     -1.760987
      16A     -1.718242    17A     -1.657073    18A     -1.656343
      19A     -1.638864    20A     -1.486786    21A     -1.179384
      22A     -1.051121    23A     -0.987185    24A     -0.919741
      25A     -0.859622    26A     -0.852626    27A     -0.845437
      28A     -0.824229    29A     -0.811784    30A     -0.789844
      31A     -0.728175    32A     -0.726423    33A     -0.705884
      34A     -0.701687    35A     -0.678827    36A     -0.674290
      37A     -0.658293    38A     -0.657365    39A     -0.645867
      40A     -0.633898    41A     -0.597484    42A     -0.580647
      43A     -0.523693    44A     -0.476576    45A     -0.468190

  @DF-RHF Final Energy: -1146.31388843267905

   => Energetics <=

    Nuclear Repulsion Energy =            737.8136013854609701
    One-Electron Energy =               -3058.4759744936345669
    Two-Electron Energy =                1174.3484846754947739
    DFT Exchange-Correlation Energy =       0.0000000000000000
    Empirical Dispersion Energy =           0.0000000000000000
    PCM Polarization Energy =               0.0000000000000000
    EFP Energy =                            0.0000000000000000
    Total Energy =                      -1146.3138884326788229
    Molecular point group: c1
  Basis Set: 6-31G*
  Basis Set:

  -Total Gradient:
     Atom            X                  Y                   Z
    ------   -----------------  -----------------  -----------------
       1        0.000009923683     0.000010858906     0.000003018238
       2       -0.000019937868     0.000012874152    -0.000009426267
       3        0.000027914859    -0.000020901708    -0.000031103044
       4        0.000000095795    -0.000011644699    -0.000005638970
       5        0.000056847507     0.000017625942     0.000012993298
       6       -0.001606824617    -0.002285045499     0.000839662065
       7       -0.001308292946    -0.001719997172     0.001552574295
       8       -0.000021684337    -0.000017629384    -0.000018026900
       9        0.001631974977     0.002362084179    -0.001010810835
      10        0.001274367224     0.001778144607    -0.001359401302
      11       -0.000014378881     0.000029408412     0.000013995643
      12       -0.000030005394    -0.000155777774     0.000012163788

  **** Optimization is complete! (in 6 steps) ****
    Final optimized geometry and variables:
    Molecular point group: c1

    Geometry (in Angstrom), charge = 0, multiplicity = 1:

    H           -2.655535051021    -0.646412775941     1.268118241880
    C           -2.087728448267    -0.396368054652     0.393484901440
    O           -0.817538782778    -0.120248336663     0.775195480850
    F           -2.105171024543    -1.408819820145    -0.470680703735
    F           -2.630555170331     0.644031118229    -0.230184646911
    C            0.076820331570     0.271761393396    -0.201430095450
    C            1.354531018141    -0.538744047459    -0.013034781942
    CL           0.425195396815     2.006367060105    -0.077873268067
    H           -0.285016595543     0.100944506459    -1.200190840411
    F            1.984493252851    -0.237057374167     1.095949088679
    F            2.169677616678    -0.321029591022    -1.025819483836
    F            1.057803485251    -1.820917339486     0.004749141840

  Mulliken Charges: (a.u.)
   Center  Symbol    Alpha    Beta     Spin     Total
       1     H     0.40108  0.40108  0.00000  0.19785
       2     C     2.56510  2.56510  0.00000  0.86980
       3     O     4.29754  4.29754  0.00000 -0.59509
       4     F     4.68632  4.68632  0.00000 -0.37264
       5     F     4.68437  4.68437  0.00000 -0.36875
       6     C     3.04795  3.04795  0.00000 -0.09590
       7     C     2.43369  2.43369  0.00000  1.13262
       8    CL     8.50008  8.50008  0.00000 -0.00015
       9     H     0.36613  0.36613  0.00000  0.26773
      10     F     4.66767  4.66767  0.00000 -0.33534
      11     F     4.67572  4.67572  0.00000 -0.35143
      12     F     4.67435  4.67435  0.00000 -0.34870

   Total alpha = 45.00000, Total beta = 45.00000, Total charge = -0.00000
