  ==> Input File <==

--------------------------------------------------------------------------
set {
	reference rhf
	basis 6-31G*
}

set_num_threads( 4 )
memory 2 gb

molecule MOL {
0 1

H	 3.729471	 -0.928294	 -0.070608
O	 2.826016	 -1.159218	 0.122261
C	 2.077727	 -0.067559	 -0.035091
C	 0.624473	 -0.343591	 0.253101
O	 2.542965	 0.974826	 -0.363729
C	 -0.265902	 0.883932	 0.072916
H	 0.324016	 -1.163849	 -0.390541
H	 0.565024	 -0.726111	 1.268924
C	 -1.728698	 0.646073	 0.462102
H	 -0.209144	 1.219470	 -0.958188
H	 0.135059	 1.692851	 0.673903
C	 -2.482460	 -0.343073	 -0.431425
H	 -2.245265	 1.602650	 0.432430
H	 -1.779332	 0.308348	 1.496285
C	 -3.395327	 0.354435	 -1.439707
H	 -1.764451	 -0.963727	 -0.963681
H	 -3.079718	 -1.018069	 0.176067
H	 -3.919424	 -0.366154	 -2.059697
H	 -2.827238	 1.006093	 -2.097313
H	 -4.141788	 0.962916	 -0.936930

	symmetry c1
}
set optking {
	frozen_dihedral = ("
		16 12 9 6
	")
}

ee = optimize('scf')
oeprop('DIPOLE', 'QUADRUPOLE', 'MULLIKEN_CHARGES')
f=open( 'psi4out.xyz', 'w' )
f.write( "20  " )
f.write( str(ee) + "\n" )
f.write( MOL.save_string_xyz() )
f.close()
--------------------------------------------------------------------------

    Molecular point group: c1
  Charge       = 0
  Multiplicity = 1
  Basis Set: 6-31G*
  Basis Set:
  @DF-RHF Final Energy:  -383.94356193017251
    Total Energy =                       -383.9435619301724500
    Molecular point group: c1
  Basis Set: 6-31G*
  Basis Set:
  Basis Set: 6-31G*
  Basis Set:
  @DF-RHF Final Energy:  -383.94389525825193
    Total Energy =                       -383.9438952582521551
  Basis Set: 6-31G*
  Basis Set:
  Basis Set: 6-31G*
  Basis Set:
  @DF-RHF Final Energy:  -383.94419157076828
    Total Energy =                       -383.9441915707685666
  Basis Set: 6-31G*
  Basis Set:
  Basis Set: 6-31G*
  Basis Set:
  @DF-RHF Final Energy:  -383.94420217793930
    Total Energy =                       -383.9442021779394736
  Basis Set: 6-31G*
  Basis Set:
  Basis Set: 6-31G*
  Basis Set:
  @DF-RHF Final Energy:  -383.94420967700432
    Total Energy =                       -383.9442096770044373
  Basis Set: 6-31G*
  Basis Set:
  Basis Set: 6-31G*
  Basis Set:
  @DF-RHF Final Energy:  -383.94420747580477
    Total Energy =                       -383.9442074758043759
  Basis Set: 6-31G*
  Basis Set:
  Basis Set: 6-31G*
  Basis Set:
  @DF-RHF Final Energy:  -383.94421716324553
    Total Energy =                       -383.9442171632455825
  Basis Set: 6-31G*
  Basis Set:
  Charge       = 0
  Multiplicity = 1
  Basis Set: 6-31G*
  Basis Set:

    Orbital Energies (a.u.)
    -----------------------

    Doubly Occupied:

       1A    -20.612642     2A    -20.551730     3A    -11.381313
       4A    -11.240372     5A    -11.223402     6A    -11.220474
       7A    -11.219917     8A    -11.211666     9A     -1.474708
      10A     -1.365756    11A     -1.095485    12A     -1.039230
      13A     -0.959449    14A     -0.871464    15A     -0.815912
      16A     -0.774665    17A     -0.699655    18A     -0.690043
      19A     -0.666497    20A     -0.628216    21A     -0.610978
      22A     -0.588957    23A     -0.575166    24A     -0.565779
      25A     -0.522625    26A     -0.512863    27A     -0.507227
      28A     -0.479336    29A     -0.468477    30A     -0.461760
      31A     -0.457782    32A     -0.443568

  @DF-RHF Final Energy:  -383.94421712819644

   => Energetics <=

    Nuclear Repulsion Energy =            377.7464105795959313
    One-Electron Energy =               -1271.5070274201759730
    Two-Electron Energy =                 509.8163997123833724
    DFT Exchange-Correlation Energy =       0.0000000000000000
    Empirical Dispersion Energy =           0.0000000000000000
    PCM Polarization Energy =               0.0000000000000000
    EFP Energy =                            0.0000000000000000
    Total Energy =                       -383.9442171281966694
    Molecular point group: c1
  Basis Set: 6-31G*
  Basis Set:

  -Total Gradient:
     Atom            X                  Y                   Z
    ------   -----------------  -----------------  -----------------
       1        0.000000855400     0.000000757165     0.000002717411
       2        0.000006995200     0.000009335644     0.000018842913
       3       -0.000018268070    -0.000024010104    -0.000091999580
       4       -0.000004487725    -0.000000251602    -0.000037075117
       5        0.000020807213     0.000015813088     0.000042026999
       6        0.000568557346    -0.001496150858     0.001110085483
       7        0.000003349376    -0.000013326262     0.000007531342
       8       -0.000021563612     0.000015636388     0.000012422695
       9       -0.000764648767     0.002596683418    -0.001970089046
      10        0.000000527600    -0.000022960875     0.000015377200
      11        0.000000470667     0.000015571026    -0.000001911225
      12        0.000160707171    -0.002904699511     0.002789655205
      13        0.000029606881     0.000019992923     0.000023476391
      14       -0.000000576021    -0.000001021374    -0.000017506817
      15        0.000022757447    -0.000002152661    -0.000026182560
      16       -0.000007028382     0.001815002821    -0.001879412163
      17        0.000005664128    -0.000014733903     0.000007791358
      18        0.000019863013     0.000000279402    -0.000013566878
      19       -0.000011646925     0.000024810251     0.000003596393
      20       -0.000011941945    -0.000034574972     0.000004219995

  **** Optimization is complete! (in 8 steps) ****
    Final optimized geometry and variables:
    Molecular point group: c1

    Geometry (in Angstrom), charge = 0, multiplicity = 1:

    H            3.664617629074    -1.021603197104     0.104732850229
    O            2.776495425386    -1.234645538801     0.374200573276
    C            2.004344715084    -0.176950130307     0.126561051112
    C            0.573302452991    -0.427023260353     0.527067650251
    O            2.435239851116     0.821394768887    -0.351671655101
    C           -0.342387165328     0.766301914349     0.265074530442
    H            0.245352207045    -1.317910199297     0.000645672371
    H            0.575597124702    -0.691702044329     1.581157901899
    C           -1.799013671252     0.504146262698     0.667708240614
    H           -0.288357996126     1.039212703676    -0.784494381023
    H            0.037900793260     1.619895159971     0.816150491434
    C           -2.563370584252    -0.448749430973    -0.276664497178
    H           -2.323068906868     1.454515256227     0.714643330650
    H           -1.812112730953     0.109950496847     1.681406090417
    C           -3.472780588168     0.294545987476    -1.258161757611
    H           -1.861133445122    -1.041426674802    -0.856640259622
    H           -3.159675845687    -1.150449288732     0.298312347922
    H           -3.960775678187    -0.393739004796    -1.941486911458
    H           -2.908121492658     1.006673270103    -1.853697830096
    H           -4.247134973775     0.845646010110    -0.732495931911

  Mulliken Charges: (a.u.)
   Center  Symbol    Alpha    Beta     Spin     Total
       1     H     0.26784  0.26784  0.00000  0.46431
       2     O     4.35147  4.35147  0.00000 -0.70294
       3     C     2.62272  2.62272  0.00000  0.75455
       4     C     3.21161  3.21161  0.00000 -0.42322
       5     O     4.27923  4.27923  0.00000 -0.55847
       6     C     3.15559  3.15559  0.00000 -0.31117
       7     H     0.39730  0.39730  0.00000  0.20539
       8     H     0.39872  0.39872  0.00000  0.20257
       9     C     3.16068  3.16068  0.00000 -0.32137
      10     H     0.41087  0.41087  0.00000  0.17825
      11     H     0.40974  0.40974  0.00000  0.18052
      12     C     3.15595  3.15595  0.00000 -0.31189
      13     H     0.41514  0.41514  0.00000  0.16972
      14     H     0.42152  0.42152  0.00000  0.15697
      15     C     3.24014  3.24014  0.00000 -0.48028
      16     H     0.42240  0.42240  0.00000  0.15520
      17     H     0.41845  0.41845  0.00000  0.16309
      18     H     0.41949  0.41949  0.00000  0.16102
      19     H     0.42033  0.42033  0.00000  0.15935
      20     H     0.42081  0.42081  0.00000  0.15839

   Total alpha = 32.00000, Total beta = 32.00000, Total charge =  0.00000
