  ==> Input File <==

--------------------------------------------------------------------------
set {
	reference rhf
	basis 6-31G*
}

set_num_threads( 4 )
memory 2 gb

molecule MOL {
0 1

H	 -0.821032	 -1.655889	 0.000000
O	 -1.037828	 -0.728600	 0.000000
C	 0.100509	 -0.036935	 0.000000
C	 0.452571	 0.460238	 -1.372871
O	 0.734070	 0.144296	 0.987410
H	 0.550995	 -0.379826	 -2.050602
H	 1.378190	 1.013956	 -1.330715
H	 -0.343962	 1.093088	 -1.746704

	symmetry c1
}
set optking {
	frozen_dihedral = ("
		4 3 2 1
	")
}

ee = optimize('scf')
oeprop('DIPOLE', 'QUADRUPOLE', 'MULLIKEN_CHARGES')
f=open( 'psi4out.xyz', 'w' )
f.write( "8  " )
f.write( str(ee) + "\n" )
f.write( MOL.save_string_xyz() )
f.close()
--------------------------------------------------------------------------

    Molecular point group: c1
  Charge       = 0
  Multiplicity = 1
  Basis Set: 6-31G*
  Basis Set:
  @DF-RHF Final Energy:  -227.78811350697060
    Total Energy =                       -227.7881135069706033
    Molecular point group: c1
  Basis Set: 6-31G*
  Basis Set:
  Basis Set: 6-31G*
  Basis Set:
  @DF-RHF Final Energy:  -227.78922590445899
    Total Energy =                       -227.7892259044589878
  Basis Set: 6-31G*
  Basis Set:
  Basis Set: 6-31G*
  Basis Set:
  @DF-RHF Final Energy:  -227.78853296202760
    Total Energy =                       -227.7885329620276025
  Basis Set: 6-31G*
  Basis Set:
  Basis Set: 6-31G*
  Basis Set:
  @DF-RHF Final Energy:  -227.78954309529593
    Total Energy =                       -227.7895430952959259
  Basis Set: 6-31G*
  Basis Set:
  Basis Set: 6-31G*
  Basis Set:
  @DF-RHF Final Energy:  -227.78955823521210
    Total Energy =                       -227.7895582352120414
  Basis Set: 6-31G*
  Basis Set:
  Basis Set: 6-31G*
  Basis Set:
  @DF-RHF Final Energy:  -227.78956157689203
    Total Energy =                       -227.7895615768920550
  Basis Set: 6-31G*
  Basis Set:
  Charge       = 0
  Multiplicity = 1
  Basis Set: 6-31G*
  Basis Set:

    Orbital Energies (a.u.)
    -----------------------

    Doubly Occupied:

       1A    -20.596256     2A    -20.564360     3A    -11.386527
       4A    -11.242193     5A     -1.462830     6A     -1.369251
       7A     -1.023158     8A     -0.825707     9A     -0.707718
      10A     -0.671295    11A     -0.659827    12A     -0.588683
      13A     -0.577674    14A     -0.513092    15A     -0.498215
      16A     -0.450395

  @DF-RHF Final Energy:  -227.78956182558642

   => Energetics <=

    Nuclear Repulsion Energy =            121.7075289662224122
    One-Electron Energy =                -552.7198179156063134
    Two-Electron Energy =                 203.2227271237974549
    DFT Exchange-Correlation Energy =       0.0000000000000000
    Empirical Dispersion Energy =           0.0000000000000000
    PCM Polarization Energy =               0.0000000000000000
    EFP Energy =                            0.0000000000000000
    Total Energy =                       -227.7895618255864463
    Molecular point group: c1
  Basis Set: 6-31G*
  Basis Set:

  -Total Gradient:
     Atom            X                  Y                   Z
    ------   -----------------  -----------------  -----------------
       1       -0.000099644724     0.000012089309    -0.005716740374
       2        0.000874199246    -0.001357064721     0.006829921309
       3       -0.002505473573     0.004426787598    -0.000411055310
       4        0.001806907435    -0.003170318310    -0.000696082479
       5       -0.000062931181     0.000029775608    -0.000034373814
       6       -0.000022210008     0.000000982574    -0.000001373310
       7       -0.000010591861     0.000011950596     0.000006194374
       8        0.000019744664     0.000045797344     0.000023509603

  **** Optimization is complete! (in 7 steps) ****
    Final optimized geometry and variables:
    Molecular point group: c1

    Geometry (in Angstrom), charge = 0, multiplicity = 1:

    H           -0.942503662777    -1.599603026496     0.115876568518
    O           -1.104225061210    -0.663788187984     0.120928147341
    C            0.062900494973     0.037560102061     0.094931035023
    C            0.411429265683     0.548237032060    -1.275927842730
    O            0.715916125509     0.200063623113     1.063420723655
    H            0.547685295873    -0.294762886962    -1.945636664461
    H            1.315974962272     1.136827335377    -1.236735230577
    H           -0.406175196645     1.142197819829    -1.668054051619

  Mulliken Charges: (a.u.)
   Center  Symbol    Alpha    Beta     Spin     Total
       1     H     0.26500  0.26500  0.00000  0.46999
       2     O     4.36472  4.36472  0.00000 -0.72945
       3     C     2.64451  2.64451  0.00000  0.71098
       4     C     3.28362  3.28362  0.00000 -0.56725
       5     O     4.24281  4.24281  0.00000 -0.48562
       6     H     0.40644  0.40644  0.00000  0.18712
       7     H     0.39609  0.39609  0.00000  0.20782
       8     H     0.39680  0.39680  0.00000  0.20640

   Total alpha = 16.00000, Total beta = 16.00000, Total charge = -0.00000
