  ==> Input File <==

--------------------------------------------------------------------------
set {
	reference rhf
	basis 6-31G*
}

set_num_threads( 4 )
memory 2 gb

molecule MOL {
0 1

H	 -0.367348	 2.047014	 -0.308205
C	 0.352277	 1.337084	 0.083769
N	 -0.000016	 0.000074	 -0.335546
H	 1.328359	 1.600444	 -0.307950
H	 0.381933	 1.450534	 1.172486
C	 0.206984	 -0.193458	 -1.752573
C	 0.673459	 -1.007774	 0.451113
H	 -0.133970	 -1.180902	 -2.042499
H	 -0.368684	 0.535811	 -2.311354
H	 1.256503	 -0.096421	 -2.049180
H	 0.438258	 -0.873097	 1.500835
H	 0.331707	 -1.993579	 0.156441
H	 1.762553	 -0.979546	 0.341545

	symmetry c1
}
set optking {
	frozen_dihedral = ("
		6 3 2 1
	")
}

ee = optimize('scf')
oeprop('DIPOLE', 'QUADRUPOLE', 'MULLIKEN_CHARGES')
f=open( 'psi4out.xyz', 'w' )
f.write( "13  " )
f.write( str(ee) + "\n" )
f.write( MOL.save_string_xyz() )
f.close()
--------------------------------------------------------------------------

    Molecular point group: c1
  Charge       = 0
  Multiplicity = 1
  Basis Set: 6-31G*
  Basis Set:
  @DF-RHF Final Energy:  -173.26744103700375
    Total Energy =                       -173.2674410370036640
    Molecular point group: c1
  Basis Set: 6-31G*
  Basis Set:
  Basis Set: 6-31G*
  Basis Set:
  @DF-RHF Final Energy:  -173.26842545432137
    Total Energy =                       -173.2684254543212887
  Basis Set: 6-31G*
  Basis Set:
  Basis Set: 6-31G*
  Basis Set:
  @DF-RHF Final Energy:  -173.26855280509122
    Total Energy =                       -173.2685528050911898
  Basis Set: 6-31G*
  Basis Set:
  Charge       = 0
  Multiplicity = 1
  Basis Set: 6-31G*
  Basis Set:

    Orbital Energies (a.u.)
    -----------------------

    Doubly Occupied:

       1A    -15.544244     2A    -11.235811     3A    -11.235697
       4A    -11.235631     5A     -1.225276     6A     -0.951621
       7A     -0.950913     8A     -0.806911     9A     -0.642225
      10A     -0.630394    11A     -0.629082    12A     -0.547008
      13A     -0.543480    14A     -0.516189    15A     -0.500900
      16A     -0.499345    17A     -0.348289

  @DF-RHF Final Energy:  -173.26855466025543

   => Energetics <=

    Nuclear Repulsion Energy =            139.2955807498519505
    One-Electron Energy =                -509.0422385167395873
    Two-Electron Energy =                 196.4781031066321191
    DFT Exchange-Correlation Energy =       0.0000000000000000
    Empirical Dispersion Energy =           0.0000000000000000
    PCM Polarization Energy =               0.0000000000000000
    EFP Energy =                            0.0000000000000000
    Total Energy =                       -173.2685546602555462
    Molecular point group: c1
  Basis Set: 6-31G*
  Basis Set:

  -Total Gradient:
     Atom            X                  Y                   Z
    ------   -----------------  -----------------  -----------------
       1       -0.001717523646    -0.000278568450     0.002553056800
       2        0.002863266485     0.000049419332    -0.003169913865
       3       -0.003284602104     0.000883854123     0.000075177780
       4        0.000028893510    -0.000015013701    -0.000014348752
       5       -0.000008098004    -0.000040211692    -0.000013195814
       6        0.002171348003    -0.000550593073     0.000562223619
       7       -0.000114686828     0.000035997026    -0.000044325094
       8       -0.000000466678     0.000000070108     0.000067008098
       9       -0.000014826817     0.000014496461    -0.000049698756
      10        0.000016615745    -0.000025332912    -0.000008203314
      11        0.000028592067    -0.000021952142     0.000010164903
      12        0.000028617670    -0.000050771044     0.000025317656
      13        0.000002870598    -0.000001394035     0.000006736738

  **** Optimization is complete! (in 4 steps) ****
    Final optimized geometry and variables:
    Molecular point group: c1

    Geometry (in Angstrom), charge = 0, multiplicity = 1:

    H           -0.679617972163     2.020275959065     0.065741382324
    C            0.032950265457     1.305575568805     0.463434489476
    N           -0.336430658092    -0.034988083518     0.063388653879
    H            1.038584137045     1.589820761435     0.140665967084
    H           -0.006193676185     1.386119593651     1.543792584736
    C           -0.133260662701    -0.237405763804    -1.353659499303
    C            0.352930622066    -1.041613455056     0.841111498401
    H           -0.490605321408    -1.219641255330    -1.641583711048
    H           -0.695692842816     0.500157039140    -1.915724811971
    H            0.918150386523    -0.157299818182    -1.647509995510
    H            0.128177166124    -0.912969366545     1.893644675898
    H            0.013361370599    -2.028126831339     0.546142961663
    H            1.440416417818    -1.008401303529     0.718872953400

  Mulliken Charges: (a.u.)
   Center  Symbol    Alpha    Beta     Spin     Total
       1     H     0.41554  0.41554  0.00000  0.16893
       2     C     3.14384  3.14384  0.00000 -0.28767
       3     N     3.76515  3.76515  0.00000 -0.53030
       4     H     0.43388  0.43388  0.00000  0.13224
       5     H     0.41790  0.41790  0.00000  0.16420
       6     C     3.14382  3.14382  0.00000 -0.28763
       7     C     3.14353  3.14353  0.00000 -0.28706
       8     H     0.41652  0.41652  0.00000  0.16696
       9     H     0.41662  0.41662  0.00000  0.16675
      10     H     0.43478  0.43478  0.00000  0.13043
      11     H     0.41641  0.41641  0.00000  0.16717
      12     H     0.41683  0.41683  0.00000  0.16633
      13     H     0.43518  0.43518  0.00000  0.12965

   Total alpha = 17.00000, Total beta = 17.00000, Total charge = -0.00000
