  ==> Input File <==

--------------------------------------------------------------------------
set {
	reference rhf
	basis 6-31G*
}

set_num_threads( 4 )
memory 2 gb

molecule MOL {
0 1

H	 -1.770135	 -0.277693	 0.702751
N	 -1.172117	 -0.314371	 -0.100254
C	 -0.024542	 0.565565	 0.069209
H	 -0.872938	 -1.266440	 -0.195820
C	 1.271298	 -0.229563	 -0.014192
H	 -0.049409	 1.297310	 -0.731596
H	 -0.046881	 1.125219	 1.006750
H	 1.332152	 -0.753033	 -0.961461
H	 2.134169	 0.422483	 0.080702
H	 1.326077	 -0.968298	 0.781395

	symmetry c1
}
set optking {
	frozen_dihedral = ("
		1 2 3 6
	")
}

ee = optimize('scf')
oeprop('DIPOLE', 'QUADRUPOLE', 'MULLIKEN_CHARGES')
f=open( 'psi4out.xyz', 'w' )
f.write( "10  " )
f.write( str(ee) + "\n" )
f.write( MOL.save_string_xyz() )
f.close()
--------------------------------------------------------------------------

    Molecular point group: c1
  Charge       = 0
  Multiplicity = 1
  Basis Set: 6-31G*
  Basis Set:
  @DF-RHF Final Energy:  -134.24228691604168
    Total Energy =                       -134.2422869160415644
    Molecular point group: c1
  Basis Set: 6-31G*
  Basis Set:
  Basis Set: 6-31G*
  Basis Set:
  @DF-RHF Final Energy:  -134.24305615761355
    Total Energy =                       -134.2430561576136370
  Basis Set: 6-31G*
  Basis Set:
  Basis Set: 6-31G*
  Basis Set:
  @DF-RHF Final Energy:  -134.24321227905210
    Total Energy =                       -134.2432122790521021
  Basis Set: 6-31G*
  Basis Set:
  Basis Set: 6-31G*
  Basis Set:
  @DF-RHF Final Energy:  -134.24322140921788
    Total Energy =                       -134.2432214092178526
  Basis Set: 6-31G*
  Basis Set:
  Charge       = 0
  Multiplicity = 1
  Basis Set: 6-31G*
  Basis Set:

    Orbital Energies (a.u.)
    -----------------------

    Doubly Occupied:

       1A    -15.529236     2A    -11.242437     3A    -11.213544
       4A     -1.172555     5A     -0.989663     6A     -0.830939
       7A     -0.664277     8A     -0.610377     9A     -0.594159
      10A     -0.533657    11A     -0.506672    12A     -0.490093
      13A     -0.374872

  @DF-RHF Final Energy:  -134.24322291981269

   => Energetics <=

    Nuclear Repulsion Energy =             83.2304681058113260
    One-Electron Energy =                -345.4424218768962191
    Two-Electron Energy =                 127.9687308512722268
    DFT Exchange-Correlation Energy =       0.0000000000000000
    Empirical Dispersion Energy =           0.0000000000000000
    PCM Polarization Energy =               0.0000000000000000
    EFP Energy =                            0.0000000000000000
    Total Energy =                       -134.2432229198126663
    Molecular point group: c1
  Basis Set: 6-31G*
  Basis Set:

  -Total Gradient:
     Atom            X                  Y                   Z
    ------   -----------------  -----------------  -----------------
       1       -0.000337179420     0.000516040441    -0.000248141183
       2        0.000185027653    -0.000636402392     0.000347376140
       3        0.000486322785    -0.000350756502    -0.000425394536
       4        0.000032547148     0.000013977305    -0.000016983081
       5       -0.000104344725     0.000032048497    -0.000001721659
       6       -0.000291584225     0.000307548252     0.000366073282
       7        0.000036014038     0.000046257877     0.000016196606
       8       -0.000003223802    -0.000014242229     0.000011646265
       9        0.000030583083     0.000037753991    -0.000000130072
      10       -0.000034162535     0.000047774760    -0.000048921762

  **** Optimization is complete! (in 5 steps) ****
    Final optimized geometry and variables:
    Molecular point group: c1

    Geometry (in Angstrom), charge = 0, multiplicity = 1:

    H           -1.791702050389    -0.259231481511     0.725903811025
    N           -1.210502795233    -0.287096738945    -0.086120011177
    C           -0.032227125619     0.566946886966     0.056670939945
    H           -0.959361045004    -1.241924948063    -0.245267817049
    C            1.279503794818    -0.207683175437    -0.011470803667
    H           -0.041744330853     1.320915521760    -0.725171021448
    H           -0.078892110393     1.106357302074     0.998918465170
    H            1.354631708985    -0.754572787457    -0.947512751583
    H            2.131446388456     0.462483616650     0.048382095943
    H            1.353661655628    -0.922696037095     0.803138539206

  Mulliken Charges: (a.u.)
   Center  Symbol    Alpha    Beta     Spin     Total
       1     H     0.33116  0.33116  0.00000  0.33768
       2     N     3.93058  3.93058  0.00000 -0.86117
       3     C     3.04996  3.04996  0.00000 -0.09992
       4     H     0.33132  0.33132  0.00000  0.33735
       5     C     3.25261  3.25261  0.00000 -0.50522
       6     H     0.41918  0.41918  0.00000  0.16164
       7     H     0.42671  0.42671  0.00000  0.14657
       8     H     0.41819  0.41819  0.00000  0.16362
       9     H     0.41795  0.41795  0.00000  0.16411
      10     H     0.42233  0.42233  0.00000  0.15534

   Total alpha = 13.00000, Total beta = 13.00000, Total charge =  0.00000
