  ==> Input File <==

--------------------------------------------------------------------------
set {
	reference rhf
	basis 6-31G*
}

set_num_threads( 1 )
memory 2 gb

molecule MOL {
0 1

H	 3.893188	 0.355400	 -0.101367
N	 3.092854	 -0.246221	 -0.068770
C	 1.865559	 0.531981	 0.018834
H	 3.199514	 -0.826043	 0.741946
C	 0.645745	 -0.382037	 -0.029944
H	 1.841966	 1.207024	 -0.831236
H	 1.815756	 1.155410	 0.915079
C	 -0.679275	 0.379305	 0.025956
H	 0.698998	 -0.976915	 -0.937203
H	 0.693479	 -1.083846	 0.802235
C	 -1.253244	 0.692392	 -1.357124
H	 -0.537617	 1.310312	 0.572773
H	 -1.407962	 -0.198389	 0.592640
C	 -2.575192	 1.456782	 -1.296521
H	 -0.527470	 1.270643	 -1.924654
H	 -1.398333	 -0.236304	 -1.904964
H	 -2.455401	 2.407081	 -0.783785
H	 -2.956111	 1.664157	 -2.291760
H	 -3.332919	 0.888519	 -0.764244

	symmetry c1
}
set optking {
	frozen_dihedral = ("
		6 3 5 9,
		12 8 11 15,
		1 2 3 6
	")
}

ee = energy('scf')
oeprop('DIPOLE', 'QUADRUPOLE', 'MULLIKEN_CHARGES')
f=open( 'psi4out.xyz', 'w' )
f.write( "19  " )
f.write( str(ee) + "\n" )
f.write( MOL.save_string_xyz() )
f.close()
--------------------------------------------------------------------------

    Molecular point group: c1

    Geometry (in Angstrom), charge = 0, multiplicity = 1:

       Center              X                  Y                   Z               Mass
    ------------   -----------------  -----------------  -----------------  -----------------
           H          3.676483903076    -0.054273829494     0.341655670630     1.007825032070
           N          2.876149903076    -0.655894829494     0.374252670630    14.003074004780
           C          1.648854903076     0.122307170506     0.461856670630    12.000000000000
           H          2.982809903076    -1.235716829494     1.184968670630     1.007825032070
           C          0.429040903076    -0.791710829494     0.413078670630    12.000000000000
           H          1.625261903076     0.797350170506    -0.388213329370     1.007825032070
           H          1.599051903076     0.745736170506     1.358101670630     1.007825032070
           C         -0.895979096924    -0.030368829494     0.468978670630    12.000000000000
           H          0.482293903076    -1.386588829494    -0.494180329370     1.007825032070
           H          0.476774903076    -1.493519829494     1.245257670630     1.007825032070
           C         -1.469948096924     0.282718170506    -0.914101329370    12.000000000000
           H         -0.754321096924     0.900638170506     1.015795670630     1.007825032070
           H         -1.624666096924    -0.608062829494     1.035662670630     1.007825032070
           C         -2.791896096924     1.047108170506    -0.853498329370    12.000000000000
           H         -0.744174096924     0.860969170506    -1.481631329370     1.007825032070
           H         -1.615037096924    -0.645977829494    -1.461941329370     1.007825032070
           H         -2.672105096924     1.997407170506    -0.340762329370     1.007825032070
           H         -3.172815096924     1.254483170506    -1.848737329370     1.007825032070
           H         -3.549623096924     0.478845170506    -0.321221329370     1.007825032070

  Charge       = 0
  Multiplicity = 1
  Basis Set: 6-31G*
  Basis Set:

    Orbital Energies (a.u.)
    -----------------------

    Doubly Occupied:

       1A    -15.532449     2A    -11.239953     3A    -11.213387
       4A    -11.211726     5A    -11.208490     6A    -11.207008
       7A     -1.176673     8A     -1.073069     9A     -0.997138
      10A     -0.899061    11A     -0.821788    12A     -0.782834
      13A     -0.661389    14A     -0.634616    15A     -0.622811
      16A     -0.589362    17A     -0.569884    18A     -0.548638
      19A     -0.526525    20A     -0.498339    21A     -0.487851
      22A     -0.465596    23A     -0.453416    24A     -0.446693
      25A     -0.381365

  @DF-RHF Final Energy:  -251.34821603455245

   => Energetics <=

    Nuclear Repulsion Energy =            248.1654066741585041
    One-Electron Energy =                -830.5271153554878083
    Two-Electron Energy =                 331.0134926467765695
    DFT Exchange-Correlation Energy =       0.0000000000000000
    Empirical Dispersion Energy =           0.0000000000000000
    PCM Polarization Energy =               0.0000000000000000
    EFP Energy =                            0.0000000000000000
    Total Energy =                       -251.3482160345527632

  Mulliken Charges: (a.u.)
   Center  Symbol    Alpha    Beta     Spin     Total
       1     H     0.33259  0.33259  0.00000  0.33481
       2     N     3.92198  3.92198  0.00000 -0.84396
       3     C     3.06166  3.06166  0.00000 -0.12331
       4     H     0.33530  0.33530  0.00000  0.32941
       5     C     3.15445  3.15445  0.00000 -0.30890
       6     H     0.42061  0.42061  0.00000  0.15878
       7     H     0.43419  0.43419  0.00000  0.13162
       8     C     3.15798  3.15798  0.00000 -0.31597
       9     H     0.41163  0.41163  0.00000  0.17673
      10     H     0.42535  0.42535  0.00000  0.14930
      11     C     3.15214  3.15214  0.00000 -0.30427
      12     H     0.42388  0.42388  0.00000  0.15224
      13     H     0.42093  0.42093  0.00000  0.15814
      14     C     3.23947  3.23947  0.00000 -0.47894
      15     H     0.42267  0.42267  0.00000  0.15466
      16     H     0.42139  0.42139  0.00000  0.15723
      17     H     0.42241  0.42241  0.00000  0.15519
      18     H     0.41944  0.41944  0.00000  0.16111
      19     H     0.42194  0.42194  0.00000  0.15612

   Total alpha = 25.00000, Total beta = 25.00000, Total charge = -0.00000
