  ==> Input File <==

--------------------------------------------------------------------------
set {
	reference rhf
	basis 6-31G*
}

set_num_threads( 4 )
memory 2 gb

molecule MOL {
0 1

O	 -0.988096	 -1.408613	 0.050699
C	 -0.676749	 -0.249230	 -0.009274
C	 -1.746085	 0.827156	 -0.009539
N	 0.623947	 0.147590	 -0.102813
H	 -1.701500	 1.431508	 -0.908902
H	 -2.703425	 0.330732	 0.036390
H	 -1.647323	 1.487769	 0.845106
C	 1.667331	 -0.835070	 0.115375
C	 1.054714	 1.527795	 -0.061359
H	 2.484431	 -0.653419	 -0.574094
H	 1.271363	 -1.821556	 -0.051941
H	 2.056331	 -0.779681	 1.129787
H	 1.947539	 1.638589	 -0.665202
H	 0.304735	 2.190059	 -0.463693
H	 1.292650	 1.848930	 0.951099

	symmetry c1
}
set optking {
	frozen_dihedral = ("
		8 4 2 3
	")
}

ee = optimize('scf')
oeprop('DIPOLE', 'QUADRUPOLE', 'MULLIKEN_CHARGES')
f=open( 'psi4out.xyz', 'w' )
f.write( "15  " )
f.write( str(ee) + "\n" )
f.write( MOL.save_string_xyz() )
f.close()
--------------------------------------------------------------------------

    Molecular point group: c1
  Charge       = 0
  Multiplicity = 1
  Basis Set: 6-31G*
  Basis Set:
  @DF-RHF Final Energy:  -286.02952110054559
    Total Energy =                       -286.0295211005455371
    Molecular point group: c1
  Basis Set: 6-31G*
  Basis Set:
  Basis Set: 6-31G*
  Basis Set:
  @DF-RHF Final Energy:  -286.02898269784725
    Total Energy =                       -286.0289826978472547
  Basis Set: 6-31G*
  Basis Set:
  Basis Set: 6-31G*
  Basis Set:
  @DF-RHF Final Energy:  -286.02963307604148
    Total Energy =                       -286.0296330760414776
  Basis Set: 6-31G*
  Basis Set:
  Basis Set: 6-31G*
  Basis Set:
  @DF-RHF Final Energy:  -286.02965549182204
    Total Energy =                       -286.0296554918220409
  Basis Set: 6-31G*
  Basis Set:
  @DF-RHF Final Energy:  -286.02966076201437
    Total Energy =                       -286.0296607620144869
  Basis Set: 6-31G*
  Basis Set:
  @DF-RHF Final Energy:  -286.02966482542604
    Total Energy =                       -286.0296648254261527
  Basis Set: 6-31G*
  Basis Set:
  Basis Set: 6-31G*
  Basis Set:
  @DF-RHF Final Energy:  -286.02966657563178
    Total Energy =                       -286.0296665756317225
  Basis Set: 6-31G*
  Basis Set:
  Basis Set: 6-31G*
  Basis Set:
  @DF-RHF Final Energy:  -286.02966758074638
    Total Energy =                       -286.0296675807464339
  Basis Set: 6-31G*
  Basis Set:
  Charge       = 0
  Multiplicity = 1
  Basis Set: 6-31G*
  Basis Set:

    Orbital Energies (a.u.)
    -----------------------

    Doubly Occupied:

       1A    -20.514895     2A    -15.583737     3A    -11.341737
       4A    -11.266201     5A    -11.247939     6A    -11.228488
       7A     -1.384662     8A     -1.243730     9A     -1.014318
      10A     -0.972245    11A     -0.918988    12A     -0.737665
      13A     -0.681212    14A     -0.659383    15A     -0.651178
      16A     -0.588738    17A     -0.575986    18A     -0.567955
      19A     -0.562190    20A     -0.546816    21A     -0.529384
      22A     -0.503989    23A     -0.410590    24A     -0.367052

  @DF-RHF Final Energy:  -286.02966786591247

   => Energetics <=

    Nuclear Repulsion Energy =            252.4676143203718652
    One-Electron Energy =                -888.7964045192669573
    Two-Electron Energy =                 350.2991223329826198
    DFT Exchange-Correlation Energy =       0.0000000000000000
    Empirical Dispersion Energy =           0.0000000000000000
    PCM Polarization Energy =               0.0000000000000000
    EFP Energy =                            0.0000000000000000
    Total Energy =                       -286.0296678659125291
    Molecular point group: c1
  Basis Set: 6-31G*
  Basis Set:

  -Total Gradient:
     Atom            X                  Y                   Z
    ------   -----------------  -----------------  -----------------
       1       -0.000023636565     0.000014240144     0.000022749509
       2       -0.000135471120    -0.000003098456    -0.001335663098
       3        0.000084098265     0.000091322154     0.001262494952
       4        0.000030077059    -0.000450072827    -0.001275563458
       5       -0.000010005639    -0.000007363556     0.000014593751
       6       -0.000008036461     0.000004316772     0.000003056291
       7        0.000006434793    -0.000000994818     0.000008057980
       8        0.000037854975     0.000339411741     0.001283534591
       9        0.000000828260     0.000003060704     0.000020842543
      10        0.000013989317    -0.000013508282    -0.000002202152
      11       -0.000003758467     0.000011325094     0.000003213357
      12       -0.000001608335     0.000015772397    -0.000000875136
      13       -0.000000640558    -0.000009357572     0.000003330937
      14        0.000010060469    -0.000003458115    -0.000005577350
      15       -0.000000185989     0.000008404621    -0.000001992717

  **** Optimization is complete! (in 9 steps) ****
    Final optimized geometry and variables:
    Molecular point group: c1

    Geometry (in Angstrom), charge = 0, multiplicity = 1:

    O           -0.983287347462    -1.411013386474     0.097825576841
    C           -0.674510374395    -0.254917573700    -0.011387338224
    C           -1.742886856488     0.822064545669    -0.020346251458
    N            0.625725357361     0.140003388035    -0.135316485501
    H           -1.733088364186     1.387063444296    -0.946064676270
    H           -2.698430129448     0.330816190038     0.083061858143
    H           -1.609177218141     1.519194111235     0.799815181973
    C            1.668689412691    -0.842218923864     0.090843384956
    C            1.051351072982     1.520655426487    -0.052560487167
    H            2.495133956696    -0.654905040247    -0.585499411413
    H            1.277556248977    -1.828321689394    -0.089587507212
    H            2.042368262610    -0.792382510841     1.111453153430
    H            1.972649146394     1.636977089853    -0.609920008784
    H            0.322397529940     2.186544565741    -0.487328022740
    H            1.238505651423     1.832615074542     0.973659695138

  Mulliken Charges: (a.u.)
   Center  Symbol    Alpha    Beta     Spin     Total
       1     O     4.30387  4.30387  0.00000 -0.60775
       2     C     2.62392  2.62392  0.00000  0.75216
       3     C     3.29861  3.29861  0.00000 -0.59722
       4     N     3.82272  3.82272  0.00000 -0.64544
       5     H     0.40628  0.40628  0.00000  0.18745
       6     H     0.39053  0.39053  0.00000  0.21894
       7     H     0.40782  0.40782  0.00000  0.18437
       8     C     3.14613  3.14613  0.00000 -0.29226
       9     C     3.14239  3.14239  0.00000 -0.28477
      10     H     0.41825  0.41825  0.00000  0.16351
      11     H     0.38452  0.38452  0.00000  0.23096
      12     H     0.42030  0.42030  0.00000  0.15940
      13     H     0.40971  0.40971  0.00000  0.18057
      14     H     0.40748  0.40748  0.00000  0.18504
      15     H     0.41747  0.41747  0.00000  0.16506

   Total alpha = 24.00000, Total beta = 24.00000, Total charge = -0.00000
