  ==> Input File <==

--------------------------------------------------------------------------
set {
	reference rhf
	basis 6-31G*
}

set_num_threads( 1 )
memory 2 gb

molecule MOL {
0 1

O	 -2.821601	 1.309235	 -0.001213
C	 -2.668563	 0.129746	 -0.000350
C	 -3.801572	 -0.864014	 -0.000442
O	 -1.481751	 -0.454642	 0.000584
H	 -4.417280	 -0.689587	 -0.874708
H	 -3.443784	 -1.883046	 -0.000565
H	 -4.417179	 -0.689832	 0.873954
C	 -0.334255	 0.388708	 0.000906
C	 0.891947	 -0.504646	 0.000751
H	 -0.365390	 1.025305	 -0.873475
H	 -0.365484	 1.024911	 0.875569
C	 2.191998	 0.301789	 0.000897
H	 0.855148	 -1.151283	 -0.871571
H	 0.855132	 -1.151660	 0.872805
C	 3.239779	 -0.257011	 0.965379
H	 2.607093	 0.322942	 -1.005251
H	 1.978439	 1.336142	 0.264690
C	 4.538739	 0.547706	 0.964496
H	 3.454634	 -1.290481	 0.702985
H	 2.827452	 -0.276707	 1.971693
H	 4.993363	 0.557606	 -0.022030
H	 5.261128	 0.127458	 1.657159
H	 4.361535	 1.578881	 1.256533

	symmetry c1
}
set optking {
	frozen_dihedral = ("
		13 9 8 10,
		2 4 8 10,
		19 15 12 16,
		1 2 4 8
	")
}

ee = energy('scf')
oeprop('DIPOLE', 'QUADRUPOLE', 'MULLIKEN_CHARGES')
f=open( 'psi4out.xyz', 'w' )
f.write( "23  " )
f.write( str(ee) + "\n" )
f.write( MOL.save_string_xyz() )
f.close()
--------------------------------------------------------------------------

    Molecular point group: c1

    Geometry (in Angstrom), charge = 0, multiplicity = 1:

       Center              X                  Y                   Z               Mass
    ------------   -----------------  -----------------  -----------------  -----------------
           O         -2.776719400547     1.236920626686    -0.216703257231    15.994914619560
           C         -2.623681400547     0.057431626686    -0.215840257231    12.000000000000
           C         -3.756690400547    -0.936328373314    -0.215932257231    12.000000000000
           O         -1.436869400547    -0.526956373314    -0.214906257231    15.994914619560
           H         -4.372398400547    -0.761901373314    -1.090198257231     1.007825032070
           H         -3.398902400547    -1.955360373314    -0.216055257231     1.007825032070
           H         -4.372297400547    -0.762146373314     0.658463742769     1.007825032070
           C         -0.289373400547     0.316393626686    -0.214584257231    12.000000000000
           C          0.936828599453    -0.576960373314    -0.214739257231    12.000000000000
           H         -0.320508400547     0.952990626686    -1.088965257231     1.007825032070
           H         -0.320602400547     0.952596626686     0.660078742769     1.007825032070
           C          2.236879599453     0.229474626686    -0.214593257231    12.000000000000
           H          0.900029599453    -1.223597373314    -1.087061257231     1.007825032070
           H          0.900013599453    -1.223974373314     0.657314742769     1.007825032070
           C          3.284660599453    -0.329325373314     0.749888742769    12.000000000000
           H          2.651974599453     0.250627626686    -1.220741257231     1.007825032070
           H          2.023320599453     1.263827626686     0.049199742769     1.007825032070
           C          4.583620599453     0.475391626686     0.749005742769    12.000000000000
           H          3.499515599453    -1.362795373314     0.487494742769     1.007825032070
           H          2.872333599453    -0.349021373314     1.756202742769     1.007825032070
           H          5.038244599453     0.485291626686    -0.237520257231     1.007825032070
           H          5.306009599453     0.055143626686     1.441668742769     1.007825032070
           H          4.406416599453     1.506566626686     1.041042742769     1.007825032070

  Charge       = 0
  Multiplicity = 1
  Basis Set: 6-31G*
  Basis Set:

    Orbital Energies (a.u.)
    -----------------------

    Doubly Occupied:

       1A    -20.602794     2A    -20.540498     3A    -11.374034
       4A    -11.281961     5A    -11.232346     6A    -11.223263
       7A    -11.222678     8A    -11.221810     9A    -11.212502
      10A     -1.467916    11A     -1.360702    12A     -1.094474
      13A     -1.041894    14A     -1.003232    15A     -0.930733
      16A     -0.842401    17A     -0.802282    18A     -0.775622
      19A     -0.690205    20A     -0.684952    21A     -0.670378
      22A     -0.641242    23A     -0.609823    24A     -0.586978
      25A     -0.581469    26A     -0.569737    27A     -0.559308
      28A     -0.534732    29A     -0.524518    30A     -0.502722
      31A     -0.494287    32A     -0.478825    33A     -0.468146
      34A     -0.463595    35A     -0.450574    36A     -0.435274

  @DF-RHF Final Energy:  -422.97534549951143

   => Energetics <=

    Nuclear Repulsion Energy =            450.8604020658875129
    One-Electron Energy =               -1469.3157563643137564
    Two-Electron Energy =                 595.4800087989128770
    DFT Exchange-Correlation Energy =       0.0000000000000000
    Empirical Dispersion Energy =           0.0000000000000000
    PCM Polarization Energy =               0.0000000000000000
    EFP Energy =                            0.0000000000000000
    Total Energy =                       -422.9753454995134234

  Mulliken Charges: (a.u.)
   Center  Symbol    Alpha    Beta     Spin     Total
       1     O     4.28394  4.28394  0.00000 -0.56787
       2     C     2.61546  2.61546  0.00000  0.76908
       3     C     3.28778  3.28778  0.00000 -0.57555
       4     O     4.31247  4.31247  0.00000 -0.62494
       5     H     0.39751  0.39751  0.00000  0.20498
       6     H     0.39985  0.39985  0.00000  0.20030
       7     H     0.39754  0.39754  0.00000  0.20492
       8     C     3.00004  3.00004  0.00000 -0.00007
       9     C     3.16482  3.16482  0.00000 -0.32964
      10     H     0.41009  0.41009  0.00000  0.17981
      11     H     0.41044  0.41044  0.00000  0.17912
      12     C     3.16240  3.16240  0.00000 -0.32481
      13     H     0.41222  0.41222  0.00000  0.17557
      14     H     0.41229  0.41229  0.00000  0.17542
      15     C     3.15362  3.15362  0.00000 -0.30723
      16     H     0.41758  0.41758  0.00000  0.16485
      17     H     0.41956  0.41956  0.00000  0.16088
      18     C     3.24047  3.24047  0.00000 -0.48093
      19     H     0.42079  0.42079  0.00000  0.15841
      20     H     0.42139  0.42139  0.00000  0.15723
      21     H     0.42101  0.42101  0.00000  0.15799
      22     H     0.41811  0.41811  0.00000  0.16378
      23     H     0.42065  0.42065  0.00000  0.15870

   Total alpha = 36.00000, Total beta = 36.00000, Total charge =  0.00000
