                              Psi4 1.0.54 Driver

  ==> Input File <==

--------------------------------------------------------------------------
set {
	reference rhf
	basis cc-pvtz
}

set_num_threads( 4 )
memory 2 gb

molecule MOL {
0 1

H	 -3.436473	 1.252944	 -1.023892
O	 -3.458596	 0.315260	 -0.960865
C	 -3.176635	 -0.080824	 0.355601
C	 -1.763371	 0.265266	 0.799691
H	 -3.321825	 -1.153438	 0.379502
H	 -3.895468	 0.357385	 1.043382
C	 -0.673390	 -0.426948	 -0.013392
H	 -1.631049	 1.344913	 0.747560
H	 -1.664587	 -0.001624	 1.849167
C	 0.737842	 -0.043159	 0.423759
H	 -0.806103	 -0.190518	 -1.063345
H	 -0.797221	 -1.503753	 0.074146
C	 1.824000	 -0.743224	 -0.390623
H	 0.850588	 1.033777	 0.343840
H	 0.868587	 -0.286314	 1.476203
C	 3.255957	 -0.453067	 0.062319
H	 1.718250	 -0.470599	 -1.438164
H	 1.658105	 -1.815850	 -0.339904
C	 3.421795	 0.831290	 0.871064
H	 3.888439	 -0.392839	 -0.818087
H	 3.625695	 -1.294334	 0.642822
H	 3.054612	 1.689719	 0.317572
H	 4.466425	 1.009383	 1.099696
H	 2.885966	 0.790735	 1.811727

	symmetry c1
}
set optking {
	frozen_dihedral = ("
		20 16 13 17
	")
}

ee,wfn = optimize('scf', return_wfn=True)
oeprop( wfn, 'DIPOLE', 'QUADRUPOLE', 'MULLIKEN_CHARGES')
f=open( 'psi4out.xyz', 'w' )
f.write( "24  " )
f.write( str(ee) + "\n" )
f.write( MOL.save_string_xyz() )
f.close()
--------------------------------------------------------------------------

    Molecular point group: c1
  Charge       = 0
  Multiplicity = 1
  Basis Set: CC-PVTZ
  Basis Set:
  @DF-RHF Final Energy:  -349.37303875445258
    Total Energy =                       -349.3730387544525797
    Molecular point group: c1
  Basis Set: CC-PVTZ
  Basis Set:
  Basis Set: CC-PVTZ
  Basis Set:
  @DF-RHF Final Energy:  -349.30919409583265
    Total Energy =                       -349.3091940958328792
  Basis Set: CC-PVTZ
  Basis Set:
  Basis Set: CC-PVTZ
  Basis Set:
  @DF-RHF Final Energy:  -349.37039343226280
    Total Energy =                       -349.3703934322626878
  Basis Set: CC-PVTZ
  Basis Set:
  Basis Set: CC-PVTZ
  Basis Set:
  @DF-RHF Final Energy:  -349.37422036915018
    Total Energy =                       -349.3742203691500094
  Basis Set: CC-PVTZ
  Basis Set:
  Basis Set: CC-PVTZ
  Basis Set:
  @DF-RHF Final Energy:  -349.37443077378828
    Total Energy =                       -349.3744307737880490
  Basis Set: CC-PVTZ
  Basis Set:
  Basis Set: CC-PVTZ
  Basis Set:
  @DF-RHF Final Energy:  -349.37444021556462
    Total Energy =                       -349.3744402155649595
  Basis Set: CC-PVTZ
  Basis Set:
  Basis Set: CC-PVTZ
  Basis Set:
  @DF-RHF Final Energy:  -349.37445399903493
    Total Energy =                       -349.3744539990345288
  Basis Set: CC-PVTZ
  Basis Set:
  Charge       = 0
  Multiplicity = 1
  Basis Set: CC-PVTZ
  Basis Set:

    Orbital Energies (a.u.)
    -----------------------

    Doubly Occupied:

       1A    -20.546252     2A    -11.265488     3A    -11.215123
       4A    -11.212421     5A    -11.210459     6A    -11.209396
       7A    -11.208888     8A    -11.204846     9A     -1.364138
      10A     -1.088613    11A     -1.047446    12A     -0.986218
      13A     -0.916023    14A     -0.854664    15A     -0.802783
      16A     -0.769799    17A     -0.681879    18A     -0.656554
      19A     -0.629904    20A     -0.619432    21A     -0.593238
      22A     -0.587573    23A     -0.555617    24A     -0.544696
      25A     -0.514547    26A     -0.509216    27A     -0.503233
      28A     -0.473057    29A     -0.468582    30A     -0.459814
      31A     -0.452324    32A     -0.447613    33A     -0.421595

  @DF-RHF Final Energy:  -349.37445393506590

   => Energetics <=

    Nuclear Repulsion Energy =            385.5790770056653969
    One-Electron Energy =               -1237.8642071863778256
    Two-Electron Energy =                 502.9106762456460729
    DFT Exchange-Correlation Energy =       0.0000000000000000
    Empirical Dispersion Energy =           0.0000000000000000
    PCM Polarization Energy =               0.0000000000000000
    EFP Energy =                            0.0000000000000000
    Total Energy =                       -349.3744539350664127
    Molecular point group: c1
  Basis Set: CC-PVTZ
  Basis Set:

  -Total Gradient:
     Atom            X                  Y                   Z
    ------   -----------------  -----------------  -----------------
       1        0.000000401965    -0.000028461167     0.000020527230
       2        0.000012661686     0.000021396383     0.000025511590
       3       -0.000010434109    -0.000006538472    -0.000004267059
       4        0.000006264009    -0.000000907734     0.000014712333
       5        0.000002203622     0.000015980141    -0.000017746396
       6        0.000000148966    -0.000000815392    -0.000006432039
       7       -0.000007592287    -0.000004551031     0.000001749805
       8       -0.000001409646    -0.000023418516     0.000001367981
       9       -0.000008518954     0.000003237239    -0.000014350275
      10       -0.000015896006     0.000040784226    -0.000028667568
      11        0.000009072224     0.000014210144     0.000017995338
      12        0.000000907920     0.000010966489    -0.000010283217
      13       -0.002025267060     0.008335041917    -0.001212474823
      14       -0.000024638767    -0.000041956178     0.000007578102
      15       -0.000005850780     0.000008413076    -0.000018769668
      16        0.001452475627    -0.007904834279     0.003203699641
      17        0.001487347313    -0.005821740772     0.000570999403
      18       -0.000001005185     0.000022288189    -0.000017603681
      19        0.000010062653     0.000007835445    -0.000025832038
      20       -0.000902634515     0.005381548219    -0.002499751277
      21        0.000012275131    -0.000003036701    -0.000020854041
      22        0.000045473591    -0.000011866721     0.000024409008
      23       -0.000030523619    -0.000002925765     0.000009772042
      24       -0.000005523786    -0.000010648739    -0.000021290392

  **** Optimization is complete! (in 8 steps) ****
    Final optimized geometry and variables:
    Molecular point group: c1

    Geometry (in Angstrom), charge = 0, multiplicity = 1:

    H           -3.403168793930     0.777458914983    -1.556009763321
    O           -3.412746950593    -0.093427562947    -1.202328477980
    C           -3.167318213204    -0.049539281851     0.178588079736
    C           -1.774549840865     0.453246264465     0.527566652601
    H           -3.296615168876    -1.063915277175     0.534151925460
    H           -3.914715468309     0.564118145690     0.675198035067
    C           -0.648470804914    -0.430769389253    -0.000516111160
    H           -1.657910512227     1.465573789985     0.143691954892
    H           -1.705099703245     0.529946052871     1.609989927217
    C            0.741617487254     0.104565368273     0.333239026725
    H           -0.749840984814    -0.535197197157    -1.075078429426
    H           -0.759638590656    -1.429744435856     0.414223323680
    C            1.855149856597    -0.795633845769    -0.194494665053
    H            0.842364184567     1.104630633196    -0.076145164580
    H            0.836428609797     0.205735605456     1.411823201430
    C            3.307670476152    -0.396006192988     0.147477046270
    H            1.759192528890    -0.920978677758    -1.269072783709
    H            1.688961093535    -1.794905944492     0.200122078524
    C            3.553720024656     1.095236378054     0.385886888637
    H            3.941338660086    -0.679201455458    -0.686023346978
    H            3.646994667454    -0.948194207196     1.016517383083
    H            3.268454917612     1.687984948033    -0.476747157099
    H            4.607207509803     1.273837846317     0.569547357801
    H            3.005359683659     1.470661867069     1.241040392562

  Mulliken Charges: (a.u.)
   Center  Symbol    Alpha    Beta     Spin     Total
       1     H     0.39533  0.39533  0.00000  0.20935
       2     O     4.20375  4.20375  0.00000 -0.40750
       3     C     2.97786  2.97786  0.00000  0.04428
       4     C     3.10176  3.10176  0.00000 -0.20352
       5     H     0.45885  0.45885  0.00000  0.08230
       6     H     0.46029  0.46029  0.00000  0.07942
       7     C     3.08849  3.08849  0.00000 -0.17698
       8     H     0.45918  0.45918  0.00000  0.08163
       9     H     0.45355  0.45355  0.00000  0.09290
      10     C     3.09033  3.09033  0.00000 -0.18066
      11     H     0.44650  0.44650  0.00000  0.10701
      12     H     0.45500  0.45500  0.00000  0.09001
      13     C     3.09775  3.09775  0.00000 -0.19550
      14     H     0.45162  0.45162  0.00000  0.09675
      15     H     0.45469  0.45469  0.00000  0.09062
      16     C     3.08761  3.08761  0.00000 -0.17523
      17     H     0.45134  0.45134  0.00000  0.09732
      18     H     0.45291  0.45291  0.00000  0.09418
      19     C     3.15813  3.15813  0.00000 -0.31626
      20     H     0.45122  0.45122  0.00000  0.09757
      21     H     0.45179  0.45179  0.00000  0.09642
      22     H     0.45399  0.45399  0.00000  0.09202
      23     H     0.44523  0.44523  0.00000  0.10954
      24     H     0.45282  0.45282  0.00000  0.09435

   Total alpha = 33.00000, Total beta = 33.00000, Total charge =  0.00000

*** Psi4 exiting successfully. Buy a developer a beer!
