  ==> Input File <==

--------------------------------------------------------------------------
set {
	reference rhf
	basis 6-31G*
}

set_num_threads( 1 )
memory 2 gb

molecule MOL {
0 1

O	 3.225979	 0.970355	 -0.599647
C	 2.701189	 0.057885	 -0.047330
C	 1.245376	 -0.013843	 0.345420
O	 3.347903	 -1.046386	 0.304773
C	 0.455112	 1.231400	 -0.050772
H	 0.838542	 -0.913825	 -0.103701
H	 1.208210	 -0.175333	 1.419774
C	 -0.998893	 1.219485	 0.433193
H	 0.482531	 1.345121	 -1.130325
H	 0.957290	 2.103070	 0.354729
C	 -1.883438	 0.145884	 -0.207175
H	 -1.431207	 2.195402	 0.224832
H	 -1.019646	 1.105716	 1.516076
C	 -2.957635	 0.730637	 -1.126503
H	 -1.257941	 -0.540256	 -0.776196
H	 -2.367321	 -0.449651	 0.563647
C	 -3.850898	 -0.332756	 -1.767915
H	 -2.480463	 1.317727	 -1.909361
H	 -3.576805	 1.425013	 -0.560668
C	 -4.918485	 0.259215	 -2.687442
H	 -3.233668	 -1.028059	 -2.332913
H	 -4.332121	 -0.917812	 -0.986944
H	 -5.535268	 -0.518776	 -3.126665
H	 -4.467721	 0.821991	 -3.500024
H	 -5.574190	 0.933533	 -2.143731
C	 4.728119	 -1.109107	 -0.004993
H	 4.882018	 -1.033965	 -1.071845
H	 5.068212	 -2.067527	 0.355250
H	 5.265056	 -0.311663	 0.488280

	symmetry c1
}
set optking {
	frozen_dihedral = ("
		21 17 14 11,
		17 14 11 15,
		6 3 5 9,
		11 8 5 9,
		2 4 26 27,
		1 2 4 26,
		6 3 2 1
	")
}

ee = energy('scf')
oeprop('DIPOLE', 'QUADRUPOLE', 'MULLIKEN_CHARGES')
f=open( 'psi4out.xyz', 'w' )
f.write( "29  " )
f.write( str(ee) + "\n" )
f.write( MOL.save_string_xyz() )
f.close()
--------------------------------------------------------------------------

    Molecular point group: c1

    Geometry (in Angstrom), charge = 0, multiplicity = 1:

       Center              X                  Y                   Z               Mass
    ------------   -----------------  -----------------  -----------------  -----------------
           O          3.082490984872     0.790972058249    -0.100705199012    15.994914619560
           C          2.557700984872    -0.121497941751     0.451611800988    12.000000000000
           C          1.101887984872    -0.193225941751     0.844361800988    12.000000000000
           O          3.204414984872    -1.225768941751     0.803714800988    15.994914619560
           C          0.311623984872     1.052017058249     0.448169800988    12.000000000000
           H          0.695053984872    -1.093207941751     0.395240800988     1.007825032070
           H          1.064721984872    -0.354715941751     1.918715800988     1.007825032070
           C         -1.142381015128     1.040102058249     0.932134800988    12.000000000000
           H          0.339042984872     1.165738058249    -0.631383199012     1.007825032070
           H          0.813801984872     1.923687058249     0.853670800988     1.007825032070
           C         -2.026926015128    -0.033498941751     0.291766800988    12.000000000000
           H         -1.574695015128     2.016019058249     0.723773800988     1.007825032070
           H         -1.163134015128     0.926333058249     2.015017800988     1.007825032070
           C         -3.101123015128     0.551254058249    -0.627561199012    12.000000000000
           H         -1.401429015128    -0.719638941751    -0.277254199012     1.007825032070
           H         -2.510809015128    -0.629033941751     1.062588800988     1.007825032070
           C         -3.994386015128    -0.512138941751    -1.268973199012    12.000000000000
           H         -2.623951015128     1.138344058249    -1.410419199012     1.007825032070
           H         -3.720293015128     1.245630058249    -0.061726199012     1.007825032070
           C         -5.061973015128     0.079832058249    -2.188500199012    12.000000000000
           H         -3.377156015128    -1.207441941751    -1.833971199012     1.007825032070
           H         -4.475609015128    -1.097194941751    -0.488002199012     1.007825032070
           H         -5.678756015128    -0.698158941751    -2.627723199012     1.007825032070
           H         -4.611209015128     0.642608058249    -3.001082199012     1.007825032070
           H         -5.717678015128     0.754150058249    -1.644789199012     1.007825032070
           C          4.584630984872    -1.288489941751     0.493948800988    12.000000000000
           H          4.738529984872    -1.213347941751    -0.572903199012     1.007825032070
           H          4.924723984872    -2.246909941751     0.854191800988     1.007825032070
           H          5.121567984872    -0.491045941751     0.987221800988     1.007825032070

  Charge       = 0
  Multiplicity = 1
  Basis Set: 6-31G*
  Basis Set:

    Orbital Energies (a.u.)
    -----------------------

    Doubly Occupied:

       1A    -20.603534     2A    -20.545386     3A    -11.372258
       4A    -11.280789     5A    -11.234919     6A    -11.219412
       7A    -11.216058     8A    -11.215131     9A    -11.214623
      10A    -11.214033    11A    -11.208516    12A     -1.469244
      13A     -1.362694    14A     -1.098514    15A     -1.066199
      16A     -1.019236    17A     -0.976746    18A     -0.927917
      19A     -0.863170    20A     -0.801458    21A     -0.788494
      22A     -0.762534    23A     -0.700460    24A     -0.682986
      25A     -0.671664    26A     -0.650620    27A     -0.628446
      28A     -0.606578    29A     -0.593719    30A     -0.576138
      31A     -0.565744    32A     -0.557303    33A     -0.531699
      34A     -0.526437    35A     -0.521220    36A     -0.511568
      37A     -0.494031    38A     -0.477176    39A     -0.472798
      40A     -0.459249    41A     -0.456386    42A     -0.454235
      43A     -0.440714    44A     -0.435200

  @DF-RHF Final Energy:  -501.03861944872051

   => Energetics <=

    Nuclear Repulsion Energy =            613.7415374182512551
    One-Electron Energy =               -1898.6099761764849063
    Two-Electron Energy =                 783.8298193095171200
    DFT Exchange-Correlation Energy =       0.0000000000000000
    Empirical Dispersion Energy =           0.0000000000000000
    PCM Polarization Energy =               0.0000000000000000
    EFP Energy =                            0.0000000000000000
    Total Energy =                       -501.0386194487165312

  Mulliken Charges: (a.u.)
   Center  Symbol    Alpha    Beta     Spin     Total
       1     O     4.28581  4.28581  0.00000 -0.57162
       2     C     2.60538  2.60538  0.00000  0.78924
       3     C     3.20866  3.20866  0.00000 -0.41733
       4     O     4.30738  4.30738  0.00000 -0.61475
       5     C     3.15530  3.15530  0.00000 -0.31060
       6     H     0.39911  0.39911  0.00000  0.20179
       7     H     0.40099  0.40099  0.00000  0.19803
       8     C     3.16059  3.16059  0.00000 -0.32119
       9     H     0.41343  0.41343  0.00000  0.17313
      10     H     0.40910  0.40910  0.00000  0.18180
      11     C     3.15542  3.15542  0.00000 -0.31084
      12     H     0.41547  0.41547  0.00000  0.16906
      13     H     0.42155  0.42155  0.00000  0.15690
      14     C     3.15312  3.15312  0.00000 -0.30625
      15     H     0.42303  0.42303  0.00000  0.15394
      16     H     0.42029  0.42029  0.00000  0.15942
      17     C     3.15195  3.15195  0.00000 -0.30391
      18     H     0.42286  0.42286  0.00000  0.15429
      19     H     0.42298  0.42298  0.00000  0.15404
      20     C     3.23933  3.23933  0.00000 -0.47865
      21     H     0.42325  0.42325  0.00000  0.15351
      22     H     0.42326  0.42326  0.00000  0.15348
      23     H     0.41938  0.41938  0.00000  0.16124
      24     H     0.42149  0.42149  0.00000  0.15702
      25     H     0.42180  0.42180  0.00000  0.15640
      26     C     3.09239  3.09239  0.00000 -0.18478
      27     H     0.40911  0.40911  0.00000  0.18178
      28     H     0.40847  0.40847  0.00000  0.18305
      29     H     0.40909  0.40909  0.00000  0.18182

   Total alpha = 44.00000, Total beta = 44.00000, Total charge = -0.00000
