  ==> Input File <==

--------------------------------------------------------------------------
set {
	reference rhf
	basis 6-31G*
}

set_num_threads( 1 )
memory 2 gb

molecule MOL {
0 1

H	 -2.798360	 -0.862255	 -0.071053
N	 -1.863561	 -0.715187	 0.256814
C	 -1.344686	 0.554728	 -0.219830
H	 -1.300452	 -1.461917	 -0.101532
C	 0.081427	 0.741154	 0.254071
H	 -1.362155	 0.656231	 -1.305829
H	 -1.952773	 1.354456	 0.191809
O	 0.874168	 -0.245412	 -0.342030
H	 0.444037	 1.730782	 -0.023037
H	 0.121165	 0.653424	 1.337565
C	 1.424227	 0.122252	 -1.566705
H	 2.009499	 -0.712666	 -1.927353
H	 0.650801	 0.350916	 -2.297804
H	 2.072239	 0.990537	 -1.466857

	symmetry c1
}
set optking {
	frozen_dihedral = ("
		8 5 3 6,
		6 3 2 4,
		5 8 11 13
	")
}

ee = energy('scf')
oeprop('DIPOLE', 'QUADRUPOLE', 'MULLIKEN_CHARGES')
f=open( 'psi4out.xyz', 'w' )
f.write( "14  " )
f.write( str(ee) + "\n" )
f.write( MOL.save_string_xyz() )
f.close()
--------------------------------------------------------------------------

    Molecular point group: c1

    Geometry (in Angstrom), charge = 0, multiplicity = 1:

       Center              X                  Y                   Z               Mass
    ------------   -----------------  -----------------  -----------------  -----------------
           H         -2.634319224520    -0.939492268774     0.274931876192     1.007825032070
           N         -1.699520224520    -0.792424268774     0.602798876192    14.003074004780
           C         -1.180645224520     0.477490731226     0.126154876192    12.000000000000
           H         -1.136411224520    -1.539154268774     0.244452876192     1.007825032070
           C          0.245467775480     0.663916731226     0.600055876192    12.000000000000
           H         -1.198114224520     0.578993731226    -0.959844123808     1.007825032070
           H         -1.788732224520     1.277218731226     0.537793876192     1.007825032070
           O          1.038208775480    -0.322649268774     0.003954876192    15.994914619560
           H          0.608077775480     1.653544731226     0.322947876192     1.007825032070
           H          0.285205775480     0.576186731226     1.683549876192     1.007825032070
           C          1.588267775480     0.045014731226    -1.220720123808    12.000000000000
           H          2.173539775480    -0.789903268774    -1.581368123808     1.007825032070
           H          0.814841775480     0.273678731226    -1.951819123808     1.007825032070
           H          2.236279775480     0.913299731226    -1.120872123808     1.007825032070

  Charge       = 0
  Multiplicity = 1
  Basis Set: 6-31G*
  Basis Set:

    Orbital Energies (a.u.)
    -----------------------

    Doubly Occupied:

       1A    -20.556978     2A    -15.529474     3A    -11.268749
       4A    -11.266245     5A    -11.240022     6A     -1.383046
       7A     -1.174142     8A     -0.996942     9A     -0.917696
      10A     -0.811022    11A     -0.687702    12A     -0.677428
      13A     -0.641045    14A     -0.618851    15A     -0.598408
      16A     -0.541077    17A     -0.534449    18A     -0.508868
      19A     -0.469473    20A     -0.417706    21A     -0.377972

  @DF-RHF Final Energy:  -248.12041689178926

   => Energetics <=

    Nuclear Repulsion Energy =            197.1472716264818246
    One-Electron Energy =                -728.1006753548596180
    Two-Electron Energy =                 282.8329868365889865
    DFT Exchange-Correlation Energy =       0.0000000000000000
    Empirical Dispersion Energy =           0.0000000000000000
    PCM Polarization Energy =               0.0000000000000000
    EFP Energy =                            0.0000000000000000
    Total Energy =                       -248.1204168917888069

  Mulliken Charges: (a.u.)
   Center  Symbol    Alpha    Beta     Spin     Total
       1     H     0.33295  0.33295  0.00000  0.33410
       2     N     3.92308  3.92308  0.00000 -0.84617
       3     C     3.06794  3.06794  0.00000 -0.13589
       4     H     0.32487  0.32487  0.00000  0.35025
       5     C     3.00110  3.00110  0.00000 -0.00220
       6     H     0.43340  0.43340  0.00000  0.13320
       7     H     0.42217  0.42217  0.00000  0.15565
       8     O     4.30636  4.30636  0.00000 -0.61272
       9     H     0.43004  0.43004  0.00000  0.13992
      10     H     0.40658  0.40658  0.00000  0.18684
      11     C     3.08218  3.08218  0.00000 -0.16436
      12     H     0.41129  0.41129  0.00000  0.17742
      13     H     0.43068  0.43068  0.00000  0.13864
      14     H     0.42735  0.42735  0.00000  0.14530

   Total alpha = 21.00000, Total beta = 21.00000, Total charge = -0.00000
