  ==> Input File <==

--------------------------------------------------------------------------
set {
	reference rhf
	basis 6-31G*
}

set_num_threads( 1 )
memory 2 gb

molecule MOL {
0 1

O	 -2.042549	 -1.228399	 -0.269030
C	 -1.653912	 -0.146171	 0.050137
C	 -0.332303	 0.024011	 0.778412
C	 -2.438579	 1.106236	 -0.272369
C	 0.845713	 -0.001731	 -0.208243
H	 -0.323783	 0.953829	 1.340327
H	 -0.235459	 -0.796807	 1.480410
C	 0.470186	 -0.615443	 -1.557823
H	 1.674019	 -0.561873	 0.222142
H	 1.199052	 1.014936	 -0.352052
C	 1.637365	 -0.634146	 -2.544002
H	 0.108537	 -1.630068	 -1.405602
H	 -0.357580	 -0.056006	 -1.987243
H	 2.469395	 -1.215457	 -2.156887
H	 1.999550	 0.370548	 -2.741119
H	 1.341474	 -1.071494	 -3.492265
H	 -3.277823	 0.863061	 -0.908988
H	 -1.806773	 1.843019	 -0.759671
H	 -2.802853	 1.554979	 0.648059

	symmetry c1
}
set optking {
	frozen_dihedral = ("
		11 8 5 9,
		5 3 2 4
	")
}

ee = energy('scf')
oeprop('DIPOLE', 'QUADRUPOLE', 'MULLIKEN_CHARGES')
f=open( 'psi4out.xyz', 'w' )
f.write( "19  " )
f.write( str(ee) + "\n" )
f.write( MOL.save_string_xyz() )
f.close()
--------------------------------------------------------------------------

    Molecular point group: c1

    Geometry (in Angstrom), charge = 0, multiplicity = 1:

       Center              X                  Y                   Z               Mass
    ------------   -----------------  -----------------  -----------------  -----------------
           O         -1.539584741019    -1.012825753750     0.325859554425    15.994914619560
           C         -1.150947741019     0.069402246250     0.645026554425    12.000000000000
           C          0.170661258981     0.239584246250     1.373301554425    12.000000000000
           C         -1.935614741019     1.321809246250     0.322520554425    12.000000000000
           C          1.348677258981     0.213842246250     0.386646554425    12.000000000000
           H          0.179181258981     1.169402246250     1.935216554425     1.007825032070
           H          0.267505258981    -0.581233753750     2.075299554425     1.007825032070
           C          0.973150258981    -0.399869753750    -0.962933445575    12.000000000000
           H          2.176983258981    -0.346299753750     0.817031554425     1.007825032070
           H          1.702016258981     1.230509246250     0.242837554425     1.007825032070
           C          2.140329258981    -0.418572753750    -1.949112445575    12.000000000000
           H          0.611501258981    -1.414494753750    -0.810712445575     1.007825032070
           H          0.145384258981     0.159567246250    -1.392353445575     1.007825032070
           H          2.972359258981    -0.999883753750    -1.561997445575     1.007825032070
           H          2.502514258981     0.586121246250    -2.146229445575     1.007825032070
           H          1.844438258981    -0.855920753750    -2.897375445575     1.007825032070
           H         -2.774858741019     1.078634246250    -0.314098445575     1.007825032070
           H         -1.303808741019     2.058592246250    -0.164781445575     1.007825032070
           H         -2.299888741019     1.770552246250     1.242948554425     1.007825032070

  Charge       = 0
  Multiplicity = 1
  Basis Set: 6-31G*
  Basis Set:

    Orbital Energies (a.u.)
    -----------------------

    Doubly Occupied:

       1A    -20.546160     2A    -11.324756     3A    -11.228881
       4A    -11.228680     5A    -11.228083     6A    -11.215538
       7A    -11.209165     8A     -1.394134     9A     -1.090501
      10A     -1.025082    11A     -0.983278    12A     -0.886545
      13A     -0.810482    14A     -0.726168    15A     -0.659378
      16A     -0.643527    17A     -0.623102    18A     -0.613687
      19A     -0.578465    20A     -0.572378    21A     -0.561950
      22A     -0.539774    23A     -0.508346    24A     -0.491175
      25A     -0.479763    26A     -0.464930    27A     -0.462027
      28A     -0.396332

  @DF-RHF Final Energy:  -309.05421176979411

   => Energetics <=

    Nuclear Repulsion Energy =            314.0820286970618440
    One-Electron Energy =               -1041.2878994404950390
    Two-Electron Energy =                 418.1516589736385185
    DFT Exchange-Correlation Energy =       0.0000000000000000
    Empirical Dispersion Energy =           0.0000000000000000
    PCM Polarization Energy =               0.0000000000000000
    EFP Energy =                            0.0000000000000000
    Total Energy =                       -309.0542117697947333

  Mulliken Charges: (a.u.)
   Center  Symbol    Alpha    Beta     Spin     Total
       1     O     4.26368  4.26368  0.00000 -0.52735
       2     C     2.74140  2.74140  0.00000  0.51720
       3     C     3.19777  3.19777  0.00000 -0.39553
       4     C     3.28816  3.28816  0.00000 -0.57632
       5     C     3.15952  3.15952  0.00000 -0.31904
       6     H     0.41448  0.41448  0.00000  0.17104
       7     H     0.39967  0.39967  0.00000  0.20067
       8     C     3.16445  3.16445  0.00000 -0.32889
       9     H     0.41330  0.41330  0.00000  0.17340
      10     H     0.41930  0.41930  0.00000  0.16141
      11     C     3.23878  3.23878  0.00000 -0.47757
      12     H     0.40067  0.40067  0.00000  0.19867
      13     H     0.42241  0.42241  0.00000  0.15517
      14     H     0.42159  0.42159  0.00000  0.15683
      15     H     0.42404  0.42404  0.00000  0.15193
      16     H     0.41683  0.41683  0.00000  0.16634
      17     H     0.39716  0.39716  0.00000  0.20568
      18     H     0.41054  0.41054  0.00000  0.17893
      19     H     0.40627  0.40627  0.00000  0.18746

   Total alpha = 28.00000, Total beta = 28.00000, Total charge = -0.00000
