  ==> Input File <==

--------------------------------------------------------------------------
set {
	reference rhf
	basis 6-31G*
}

set_num_threads( 4 )
memory 2 gb

molecule MOL {
0 1

H	 -4.236494	 0.538104	 0.039757
O	 -3.517110	 -0.026191	 -0.205115
C	 -2.306886	 0.532354	 0.237577
C	 -1.177863	 -0.397191	 -0.171080
H	 -2.156308	 1.517575	 -0.201710
H	 -2.315015	 0.655684	 1.319734
C	 0.198102	 0.111031	 0.262842
H	 -1.208843	 -0.518759	 -1.250427
H	 -1.368741	 -1.376554	 0.258909
C	 1.331804	 -0.827780	 -0.158768
H	 0.361943	 1.100838	 -0.156218
H	 0.217265	 0.229072	 1.345532
C	 2.723619	 -0.410569	 0.329459
H	 1.342964	 -0.912588	 -1.244120
H	 1.116806	 -1.824343	 0.220779
C	 3.022600	 1.083899	 0.197133
H	 3.467084	 -0.965877	 -0.237093
H	 2.846196	 -0.713130	 1.367533
H	 2.895719	 1.417729	 -0.829268
H	 2.372531	 1.685784	 0.823489
H	 4.045745	 1.299432	 0.489492

	symmetry c1
}
set optking {
	frozen_dihedral = ("
		16 13 10 14
	")
}

ee = optimize('scf')
oeprop('DIPOLE', 'QUADRUPOLE', 'MULLIKEN_CHARGES')
f=open( 'psi4out.xyz', 'w' )
f.write( "21  " )
f.write( str(ee) + "\n" )
f.write( MOL.save_string_xyz() )
f.close()
--------------------------------------------------------------------------

    Molecular point group: c1
  Charge       = 0
  Multiplicity = 1
  Basis Set: 6-31G*
  Basis Set:
  @DF-RHF Final Energy:  -310.21064901691528
    Total Energy =                       -310.2106490169155677
    Molecular point group: c1
  Basis Set: 6-31G*
  Basis Set:
  Basis Set: 6-31G*
  Basis Set:
  @DF-RHF Final Energy:  -310.21080025575571
    Total Energy =                       -310.2108002557556574
  Basis Set: 6-31G*
  Basis Set:
  Basis Set: 6-31G*
  Basis Set:
  @DF-RHF Final Energy:  -310.21103748743360
    Total Energy =                       -310.2110374874336571
  Basis Set: 6-31G*
  Basis Set:
  Basis Set: 6-31G*
  Basis Set:
  @DF-RHF Final Energy:  -310.21105579211394
    Total Energy =                       -310.2110557921141094
  Basis Set: 6-31G*
  Basis Set:
  Basis Set: 6-31G*
  Basis Set:
  @DF-RHF Final Energy:  -310.21106317742959
    Total Energy =                       -310.2110631774295939
  Basis Set: 6-31G*
  Basis Set:
  Basis Set: 6-31G*
  Basis Set:
  @DF-RHF Final Energy:  -310.21106479234294
    Total Energy =                       -310.2110647923431088
  Basis Set: 6-31G*
  Basis Set:
  Charge       = 0
  Multiplicity = 1
  Basis Set: 6-31G*
  Basis Set:

    Orbital Energies (a.u.)
    -----------------------

    Doubly Occupied:

       1A    -20.551900     2A    -11.267113     3A    -11.216081
       4A    -11.215282     5A    -11.213542     6A    -11.210765
       7A    -11.208117     8A     -1.358732     9A     -1.085988
      10A     -1.032583    11A     -0.953958    12A     -0.878324
      13A     -0.808649    14A     -0.775010    15A     -0.692387
      16A     -0.661893    17A     -0.625777    18A     -0.601955
      19A     -0.585756    20A     -0.572680    21A     -0.534834
      22A     -0.522796    23A     -0.509237    24A     -0.486482
      25A     -0.481671    26A     -0.457132    27A     -0.454058
      28A     -0.444631    29A     -0.434009

  @DF-RHF Final Energy:  -310.21106546902530

   => Energetics <=

    Nuclear Repulsion Energy =            313.0968843540735520
    One-Electron Energy =               -1040.9332163277986183
    Two-Electron Energy =                 417.6252665046997095
    DFT Exchange-Correlation Energy =       0.0000000000000000
    Empirical Dispersion Energy =           0.0000000000000000
    PCM Polarization Energy =               0.0000000000000000
    EFP Energy =                            0.0000000000000000
    Total Energy =                       -310.2110654690253000
    Molecular point group: c1
  Basis Set: 6-31G*
  Basis Set:

  -Total Gradient:
     Atom            X                  Y                   Z
    ------   -----------------  -----------------  -----------------
       1        0.000006500410     0.000002658233     0.000002273893
       2        0.000013155125    -0.000010522481    -0.000001499313
       3        0.000003149961     0.000014300354     0.000000019472
       4       -0.000000696646    -0.000007982095    -0.000002277770
       5        0.000000780752     0.000001402003     0.000000485213
       6       -0.000000467584    -0.000002296388    -0.000000563104
       7       -0.000030232870     0.000018306574     0.000024222030
       8       -0.000003191106    -0.000001635920    -0.000004782522
       9       -0.000001073446    -0.000004633334    -0.000000242737
      10       -0.001900036663     0.005751096325     0.000828903211
      11       -0.000000630121     0.000004910006     0.000002628487
      12       -0.000008756085     0.000003489213     0.000004490234
      13        0.002132302777    -0.001905722866    -0.004375708749
      14        0.001091028633    -0.004453545884     0.000417933524
      15        0.000021504385     0.000004484663    -0.000012601337
      16       -0.001312549234     0.000593883467     0.003122543973
      17        0.000009752541    -0.000027699555     0.000009058579
      18       -0.000021655701     0.000017828074    -0.000013373499
      19       -0.000000423253    -0.000003676344    -0.000000093264
      20        0.000005762295     0.000018298796     0.000000563400
      21       -0.000004224170    -0.000012942840    -0.000001979718

  **** Optimization is complete! (in 7 steps) ****
    Final optimized geometry and variables:
    Molecular point group: c1

    Geometry (in Angstrom), charge = 0, multiplicity = 1:

    H           -4.224461182036     0.466443126560    -0.012376949850
    O           -3.498732377660    -0.090264994830    -0.255904655577
    C           -2.293541762535     0.491429329271     0.170332190802
    C           -1.154246394502    -0.426384553404    -0.236307115051
    H           -2.161085466323     1.473377358912    -0.281894245531
    H           -2.294983340920     0.627639183688     1.250991691454
    C            0.217058355390     0.106841380914     0.181970034147
    H           -1.190831085146    -0.560101636882    -1.314061222881
    H           -1.328015084103    -1.403556392186     0.205542607796
    C            1.357834385330    -0.816164719570    -0.249135283484
    H            0.360772080572     1.097087937585    -0.242670748127
    H            0.244179785080     0.229768689366     1.264129756536
    C            2.756183120161    -0.431840750865     0.259422191355
    H            1.377389333943    -0.909525393384    -1.333510195736
    H            1.141608626331    -1.820484519282     0.110825959062
    C            3.116699088773     1.049668111597     0.131897025304
    H            3.493068089160    -1.031247654793    -0.268113947656
    H            2.835985408094    -0.710998416544     1.308251196124
    H            3.015201889435     1.398690689596    -0.892666098769
    H            2.486105331970     1.671719889963     0.757527581297
    H            4.145329938216     1.218708040409     0.435323570144

  Mulliken Charges: (a.u.)
   Center  Symbol    Alpha    Beta     Spin     Total
       1     H     0.28116  0.28116  0.00000  0.43767
       2     O     4.37180  4.37180  0.00000 -0.74361
       3     C     2.98968  2.98968  0.00000  0.02065
       4     C     3.15914  3.15914  0.00000 -0.31829
       5     H     0.43287  0.43287  0.00000  0.13426
       6     H     0.43293  0.43293  0.00000  0.13414
       7     C     3.16286  3.16286  0.00000 -0.32572
       8     H     0.41469  0.41469  0.00000  0.17063
       9     H     0.41464  0.41464  0.00000  0.17072
      10     C     3.15258  3.15258  0.00000 -0.30516
      11     H     0.42053  0.42053  0.00000  0.15893
      12     H     0.42389  0.42389  0.00000  0.15221
      13     C     3.15157  3.15157  0.00000 -0.30315
      14     H     0.42237  0.42237  0.00000  0.15526
      15     H     0.42143  0.42143  0.00000  0.15713
      16     C     3.24242  3.24242  0.00000 -0.48484
      17     H     0.42029  0.42029  0.00000  0.15942
      18     H     0.42354  0.42354  0.00000  0.15292
      19     H     0.42241  0.42241  0.00000  0.15517
      20     H     0.41989  0.41989  0.00000  0.16021
      21     H     0.41928  0.41928  0.00000  0.16143

   Total alpha = 29.00000, Total beta = 29.00000, Total charge =  0.00000
