  ==> Input File <==

--------------------------------------------------------------------------
set {
	reference rhf
	basis 6-31G*
}

set_num_threads( 4 )
memory 2 gb

molecule MOL {
0 1

H	 2.720640	 1.818852	 0.725355
O	 3.461414	 1.492322	 0.235761
C	 3.630520	 0.121089	 0.491062
C	 2.569257	 -0.749334	 -0.172876
H	 4.607797	 -0.132590	 0.100870
H	 3.652166	 -0.066944	 1.563887
C	 1.149719	 -0.502926	 0.343904
H	 2.602475	 -0.575832	 -1.245331
H	 2.836811	 -1.792324	 -0.011775
C	 0.115918	 -1.429151	 -0.302766
H	 0.876499	 0.531962	 0.157566
H	 1.128402	 -0.643292	 1.424730
C	 -1.309753	 -1.282496	 0.241564
H	 0.109302	 -1.262597	 -1.378434
H	 0.435424	 -2.459025	 -0.157936
C	 -2.037799	 -0.007733	 -0.193645
H	 -1.890610	 -2.142323	 -0.085726
H	 -1.285946	 -1.330893	 1.329189
C	 -3.489788	 0.042957	 0.286558
H	 -2.017067	 0.064384	 -1.280144
H	 -1.513726	 0.868678	 0.179924
C	 -4.216917	 1.317354	 -0.141063
H	 -4.025645	 -0.823308	 -0.095450
H	 -3.513059	 -0.038752	 1.371301
H	 -4.239342	 1.411634	 -1.223113
H	 -5.243387	 1.322503	 0.212445
H	 -3.726170	 2.201406	 0.256408

	symmetry c1
}
set optking {
	frozen_dihedral = ("
		14 10 13 16
	")
}

ee = optimize('scf')
oeprop('DIPOLE', 'QUADRUPOLE', 'MULLIKEN_CHARGES')
f=open( 'psi4out.xyz', 'w' )
f.write( "27  " )
f.write( str(ee) + "\n" )
f.write( MOL.save_string_xyz() )
f.close()
--------------------------------------------------------------------------

    Molecular point group: c1
  Charge       = 0
  Multiplicity = 1
  Basis Set: 6-31G*
  Basis Set:
  @DF-RHF Final Energy:  -388.28158312030945
    Total Energy =                       -388.2815831203090511
    Molecular point group: c1
  Basis Set: 6-31G*
  Basis Set:
  Basis Set: 6-31G*
  Basis Set:
  @DF-RHF Final Energy:  -388.28152877609773
    Total Energy =                       -388.2815287760976162
  Basis Set: 6-31G*
  Basis Set:
  Basis Set: 6-31G*
  Basis Set:
  @DF-RHF Final Energy:  -388.28163856467512
    Total Energy =                       -388.2816385646749495
  Basis Set: 6-31G*
  Basis Set:
  Basis Set: 6-31G*
  Basis Set:
  @DF-RHF Final Energy:  -388.28163742944832
    Total Energy =                       -388.2816374294488924
  Basis Set: 6-31G*
  Basis Set:
  Basis Set: 6-31G*
  Basis Set:
  @DF-RHF Final Energy:  -388.28164213892290
    Total Energy =                       -388.2816421389230754
  Basis Set: 6-31G*
  Basis Set:
  Charge       = 0
  Multiplicity = 1
  Basis Set: 6-31G*
  Basis Set:

    Orbital Energies (a.u.)
    -----------------------

    Doubly Occupied:

       1A    -20.552307     2A    -11.267057     3A    -11.219822
       4A    -11.217284     5A    -11.216086     6A    -11.215656
       7A    -11.215211     8A    -11.214307     9A    -11.209337
      10A     -1.359062    11A     -1.095145    12A     -1.061621
      13A     -1.011520    14A     -0.948666    15A     -0.887390
      16A     -0.820032    17A     -0.800378    18A     -0.780037
      19A     -0.693791    20A     -0.650239    21A     -0.640008
      22A     -0.614444    23A     -0.600192    24A     -0.582515
      25A     -0.580453    26A     -0.552486    27A     -0.542053
      28A     -0.530288    29A     -0.505436    30A     -0.493193
      31A     -0.485259    32A     -0.474400    33A     -0.469597
      34A     -0.462192    35A     -0.451539    36A     -0.441841
      37A     -0.422771

  @DF-RHF Final Energy:  -388.28164224316657

   => Energetics <=

    Nuclear Repulsion Energy =            459.3478850160739171
    One-Electron Energy =               -1436.6918246085581359
    Two-Electron Energy =                 589.0622973493168502
    DFT Exchange-Correlation Energy =       0.0000000000000000
    Empirical Dispersion Energy =           0.0000000000000000
    PCM Polarization Energy =               0.0000000000000000
    EFP Energy =                            0.0000000000000000
    Total Energy =                       -388.2816422431674255
    Molecular point group: c1
  Basis Set: 6-31G*
  Basis Set:

  -Total Gradient:
     Atom            X                  Y                   Z
    ------   -----------------  -----------------  -----------------
       1       -0.000011410775     0.000006190363    -0.000000902682
       2       -0.000016358676     0.000004826100     0.000015450904
       3        0.000015951104    -0.000001422968    -0.000044385080
       4        0.000001853156    -0.000010042978     0.000015029331
       5        0.000004210906    -0.000005679369    -0.000000146961
       6       -0.000006079084    -0.000002637315    -0.000005310676
       7       -0.000004768282     0.000006327947     0.000018725567
       8        0.000013451594    -0.000003741603     0.000001438588
       9        0.000003691485    -0.000000386329     0.000006565339
      10       -0.000316563712    -0.001296680868    -0.000424967441
      11        0.000010263364     0.000005281400     0.000002843883
      12       -0.000007435779    -0.000009523429     0.000009085417
      13        0.000403067202     0.000701507609     0.000828015570
      14        0.000148395612     0.000947408076     0.000155753745
      15       -0.000011565760    -0.000004892211    -0.000003859129
      16       -0.000251824883    -0.000335971551    -0.000582984729
      17        0.000002008716    -0.000017724295     0.000004595239
      18        0.000019680144     0.000015124521    -0.000009756573
      19        0.000008865390     0.000006823302     0.000012309078
      20        0.000006462469     0.000010249695    -0.000012239610
      21       -0.000007875804    -0.000011581543     0.000019532055
      22       -0.000006098102    -0.000008330454    -0.000012438789
      23        0.000004924450    -0.000002421774     0.000008166501
      24       -0.000001262577     0.000008752014     0.000003754622
      25        0.000000819983     0.000004398567    -0.000003725748
      26       -0.000001331028    -0.000001592781    -0.000004000184
      27       -0.000001071120    -0.000004260127     0.000003451764

  **** Optimization is complete! (in 6 steps) ****
    Final optimized geometry and variables:
    Molecular point group: c1

    Geometry (in Angstrom), charge = 0, multiplicity = 1:

    H            2.645603307868     1.884135011865     0.675530694312
    O            3.386731547179     1.584352182322     0.169602815410
    C            3.586059857467     0.211192976795     0.390286402065
    C            2.533479709418    -0.664235065889    -0.280805074351
    H            4.562997383005    -0.013605887701    -0.017999697957
    H            3.625289115161    -0.001445942248     1.457998618246
    C            1.115718974793    -0.455227482645     0.256697256117
    H            2.551440725894    -0.467296395472    -1.349544832873
    H            2.821742510336    -1.705372121964    -0.145188600299
    C            0.091046970376    -1.389288980184    -0.394287554696
    H            0.819997189016     0.577634919519     0.093488728853
    H            1.109837266728    -0.616224709398     1.334707042643
    C           -1.338267138028    -1.236727338693     0.140436454426
    H            0.092440736396    -1.221397755704    -1.469651042081
    H            0.414419880109    -2.416719368632    -0.243174090422
    C           -2.051857942489     0.043806388671    -0.301884014545
    H           -1.924896233289    -2.089305313583    -0.195410230802
    H           -1.324853732292    -1.289916566979     1.227867947291
    C           -3.493794715602     0.129156417894     0.202835627499
    H           -2.049207859561     0.095814193016    -1.389504848663
    H           -1.505192644506     0.917388408985     0.045782418835
    C           -4.210123018594     1.402297331407    -0.246246482226
    H           -4.049037114667    -0.738985444225    -0.145903623194
    H           -3.498509745382     0.077001813369     1.289620211829
    H           -4.251305985503     1.467504436261    -1.329869333011
    H           -5.229649345832     1.432469647590     0.125610691208
    H           -3.699200209796     2.289286229493     0.117822938338

  Mulliken Charges: (a.u.)
   Center  Symbol    Alpha    Beta     Spin     Total
       1     H     0.27989  0.27989  0.00000  0.44022
       2     O     4.37094  4.37094  0.00000 -0.74188
       3     C     2.99738  2.99738  0.00000  0.00524
       4     C     3.16094  3.16094  0.00000 -0.32188
       5     H     0.41444  0.41444  0.00000  0.17113
       6     H     0.43204  0.43204  0.00000  0.13593
       7     C     3.16308  3.16308  0.00000 -0.32617
       8     H     0.41498  0.41498  0.00000  0.17004
       9     H     0.42434  0.42434  0.00000  0.15131
      10     C     3.15239  3.15239  0.00000 -0.30479
      11     H     0.42328  0.42328  0.00000  0.15344
      12     H     0.42533  0.42533  0.00000  0.14935
      13     C     3.15407  3.15407  0.00000 -0.30814
      14     H     0.42151  0.42151  0.00000  0.15697
      15     H     0.42118  0.42118  0.00000  0.15763
      16     C     3.15206  3.15206  0.00000 -0.30411
      17     H     0.42116  0.42116  0.00000  0.15768
      18     H     0.42418  0.42418  0.00000  0.15163
      19     C     3.15127  3.15127  0.00000 -0.30254
      20     H     0.42335  0.42335  0.00000  0.15329
      21     H     0.42392  0.42392  0.00000  0.15216
      22     C     3.23917  3.23917  0.00000 -0.47835
      23     H     0.42290  0.42290  0.00000  0.15421
      24     H     0.42335  0.42335  0.00000  0.15329
      25     H     0.42142  0.42142  0.00000  0.15715
      26     H     0.41924  0.41924  0.00000  0.16152
      27     H     0.42217  0.42217  0.00000  0.15566

   Total alpha = 37.00000, Total beta = 37.00000, Total charge =  0.00000
