                              Psi4 1.0.54 Driver

  ==> Input File <==

--------------------------------------------------------------------------
set {
	reference rhf
	basis cc-pvtz
}

set_num_threads( 4 )
memory 2 gb

molecule MOL {
0 1

H	 -2.379444	 1.953866	 -2.196427
C	 -1.384173	 2.371616	 -1.991960
C	 -1.022002	 2.461593	 -0.534350
O	 -0.693469	 2.719001	 -2.886141
C	 -1.216901	 1.136108	 0.207794
H	 -0.003231	 2.817927	 -0.453937
H	 -1.674912	 3.214544	 -0.098371
C	 -0.247837	 0.040196	 -0.230469
H	 -1.098890	 1.317659	 1.270551
H	 -2.240216	 0.794705	 0.071909
C	 1.181757	 0.280428	 0.247371
H	 -0.259600	 -0.030819	 -1.314870
H	 -0.591284	 -0.923375	 0.136958
C	 2.151032	 -0.811012	 -0.202643
H	 1.515939	 1.247397	 -0.115449
H	 1.191514	 0.341223	 1.333422
C	 3.580021	 -0.656538	 0.320835
H	 2.170545	 -0.847575	 -1.289412
H	 1.766632	 -1.772905	 0.124928
C	 4.327657	 0.562694	 -0.213579
H	 4.138806	 -1.549270	 0.057813
H	 3.561991	 -0.620783	 1.406976
H	 4.355973	 0.557257	 -1.298551
H	 3.867136	 1.491650	 0.100501
H	 5.351524	 0.571613	 0.142204

	symmetry c1
}
set optking {
	frozen_dihedral = ("
		3 5 8 12
	")
}

ee,wfn = optimize('scf', return_wfn=True)
oeprop( wfn, 'DIPOLE', 'QUADRUPOLE', 'MULLIKEN_CHARGES')
f=open( 'psi4out.xyz', 'w' )
f.write( "25  " )
f.write( str(ee) + "\n" )
f.write( MOL.save_string_xyz() )
f.close()
--------------------------------------------------------------------------

    Molecular point group: c1
  Charge       = 0
  Multiplicity = 1
  Basis Set: CC-PVTZ
  Basis Set:
  @DF-RHF Final Energy:  -387.25836097221389
    Total Energy =                       -387.2583609722136089
    Molecular point group: c1
  Basis Set: CC-PVTZ
  Basis Set:
  Basis Set: CC-PVTZ
  Basis Set:
  @DF-RHF Final Energy:  -387.25330502182908
    Total Energy =                       -387.2533050218294193
  Basis Set: CC-PVTZ
  Basis Set:
  Basis Set: CC-PVTZ
  Basis Set:
  @DF-RHF Final Energy:  -387.25866923813032
    Total Energy =                       -387.2586692381305511
  Basis Set: CC-PVTZ
  Basis Set:
  Basis Set: CC-PVTZ
  Basis Set:
  @DF-RHF Final Energy:  -387.25858263960276
    Total Energy =                       -387.2585826396024231
  Basis Set: CC-PVTZ
  Basis Set:
  @DF-RHF Final Energy:  -387.25841090143740
    Total Energy =                       -387.2584109014372871
  @DF-RHF Final Energy:  -387.25872887383611
    Total Energy =                       -387.2587288738362759
  Basis Set: CC-PVTZ
  Basis Set:
  @DF-RHF Final Energy:  -387.25872183732423
    Total Energy =                       -387.2587218373244013
  Basis Set: CC-PVTZ
  Basis Set:
  Basis Set: CC-PVTZ
  Basis Set:
  @DF-RHF Final Energy:  -387.25873630422865
    Total Energy =                       -387.2587363042290463
  Basis Set: CC-PVTZ
  Basis Set:
  Basis Set: CC-PVTZ
  Basis Set:
  @DF-RHF Final Energy:  -387.25873817459598
    Total Energy =                       -387.2587381745959192
  Basis Set: CC-PVTZ
  Basis Set:
  Charge       = 0
  Multiplicity = 1
  Basis Set: CC-PVTZ
  Basis Set:

    Orbital Energies (a.u.)
    -----------------------

    Doubly Occupied:

       1A    -20.551926     2A    -11.321205     3A    -11.233617
       4A    -11.233018     5A    -11.221633     6A    -11.215445
       7A    -11.214188     8A    -11.213157     9A    -11.205684
      10A     -1.406817    11A     -1.104360    12A     -1.068631
      13A     -1.011400    14A     -0.943700    15A     -0.878001
      16A     -0.821264    17A     -0.787078    18A     -0.776008
      19A     -0.668690    20A     -0.657173    21A     -0.644000
      22A     -0.614496    23A     -0.612847    24A     -0.595570
      25A     -0.569006    26A     -0.549443    27A     -0.542541
      28A     -0.519791    29A     -0.518051    30A     -0.500424
      31A     -0.482084    32A     -0.477155    33A     -0.462874
      34A     -0.454765    35A     -0.443316    36A     -0.412123

  @DF-RHF Final Energy:  -387.25873840568954

   => Energetics <=

    Nuclear Repulsion Energy =            449.6728043617700905
    One-Electron Energy =               -1416.0001269909721486
    Two-Electron Energy =                 579.0685842235124028
    DFT Exchange-Correlation Energy =       0.0000000000000000
    Empirical Dispersion Energy =           0.0000000000000000
    PCM Polarization Energy =               0.0000000000000000
    EFP Energy =                            0.0000000000000000
    Total Energy =                       -387.2587384056896553
    Molecular point group: c1
  Basis Set: CC-PVTZ
  Basis Set:

  -Total Gradient:
     Atom            X                  Y                   Z
    ------   -----------------  -----------------  -----------------
       1        0.000020963349     0.000015781937     0.000011289188
       2        0.000028372223    -0.000001429563    -0.000029058324
       3       -0.000492938727    -0.000293093941    -0.000636591754
       4       -0.000041625265    -0.000010595628     0.000051301945
       5        0.000876878501     0.000616740985     0.000919697069
       6       -0.000024796661    -0.000004497595    -0.000013090561
       7        0.000029710950    -0.000002270042    -0.000021393188
       8       -0.001099910635    -0.001246564161    -0.000338677220
       9        0.000003744530    -0.000003688850     0.000002555356
      10        0.000003266667    -0.000006334539    -0.000007201777
      11        0.000001062238     0.000016137853    -0.000006140918
      12        0.000711015689     0.000917103603     0.000062276785
      13       -0.000011796491    -0.000004253342     0.000003621781
      14       -0.000012298409     0.000002190615    -0.000004919070
      15       -0.000010680501     0.000001299878     0.000000093129
      16        0.000006894206    -0.000000850704    -0.000000413878
      17       -0.000006091282     0.000007715224     0.000018409453
      18       -0.000001140847     0.000006481302    -0.000005922925
      19        0.000000227301    -0.000007496642    -0.000005273813
      20        0.000005898580    -0.000000561399    -0.000003120481
      21       -0.000003848602    -0.000003932694     0.000002202900
      22        0.000003109430    -0.000000707655     0.000006661466
      23        0.000001212694     0.000004632574    -0.000004881544
      24        0.000010355752    -0.000001976579    -0.000000518256
      25        0.000002415305     0.000000169370    -0.000000905358

  **** Optimization is complete! (in 10 steps) ****
    Final optimized geometry and variables:
    Molecular point group: c1

    Geometry (in Angstrom), charge = 0, multiplicity = 1:

    H           -3.246758783518     0.766085044320    -1.560513973948
    C           -2.345781345013     1.314086420906    -1.253388125347
    C           -2.045592376932     1.268154707808     0.219926895288
    O           -1.698506049697     1.887383570848    -2.059741384720
    C           -1.997670192821    -0.164843618759     0.763660195696
    H           -1.126740847695     1.808068497584     0.400164544176
    H           -2.848335549362     1.806207658715     0.719093863389
    C           -0.851520329067    -1.022470969197     0.219174358187
    H           -1.937119208706    -0.123656528981     1.845761166380
    H           -2.942166331136    -0.650661977877     0.534535279393
    C            0.527348441168    -0.649334831690     0.762790273064
    H           -0.829343919573    -0.960568790346    -0.865814257481
    H           -1.055106429303    -2.060743012759     0.461974168791
    C            1.634902938386    -1.551922020487     0.221870544538
    H            0.747489466219     0.383552658169     0.519563586678
    H            0.511074183718    -0.714716207451     1.848673367192
    C            3.023769312144    -1.282541879122     0.803665161145
    H            1.676752783385    -1.457511148135    -0.860616340785
    H            1.371211940428    -2.586183748216     0.426030028294
    C            3.618800665280     0.074150318615     0.434306322407
    H            3.695734726696    -2.062120901602     0.458244957355
    H            2.983547110569    -1.376435052869     1.885835985484
    H            3.662425508676     0.200131210839    -0.642613529194
    H            3.040350120879     0.895719132448     0.839192247277
    H            4.628167349409     0.167634430618     0.818380523357

  Mulliken Charges: (a.u.)
   Center  Symbol    Alpha    Beta     Spin     Total
       1     H     0.46369  0.46369  0.00000  0.07261
       2     C     2.90440  2.90440  0.00000  0.19121
       3     C     3.09392  3.09392  0.00000 -0.18784
       4     O     4.16628  4.16628  0.00000 -0.33256
       5     C     3.12229  3.12229  0.00000 -0.24457
       6     H     0.44097  0.44097  0.00000  0.11805
       7     H     0.43897  0.43897  0.00000  0.12205
       8     C     3.09738  3.09738  0.00000 -0.19475
       9     H     0.44282  0.44282  0.00000  0.11435
      10     H     0.44294  0.44294  0.00000  0.11412
      11     C     3.09207  3.09207  0.00000 -0.18414
      12     H     0.45072  0.45072  0.00000  0.09857
      13     H     0.44459  0.44459  0.00000  0.11083
      14     C     3.09593  3.09593  0.00000 -0.19186
      15     H     0.44735  0.44735  0.00000  0.10531
      16     H     0.45462  0.45462  0.00000  0.09076
      17     C     3.09008  3.09008  0.00000 -0.18015
      18     H     0.45100  0.45100  0.00000  0.09801
      19     H     0.44997  0.44997  0.00000  0.10006
      20     C     3.15273  3.15273  0.00000 -0.30546
      21     H     0.44832  0.44832  0.00000  0.10336
      22     H     0.45532  0.45532  0.00000  0.08936
      23     H     0.45288  0.45288  0.00000  0.09424
      24     H     0.45444  0.45444  0.00000  0.09112
      25     H     0.44633  0.44633  0.00000  0.10734

   Total alpha = 36.00000, Total beta = 36.00000, Total charge = -0.00000

*** Psi4 exiting successfully. Buy a developer a beer!
