  ==> Input File <==

--------------------------------------------------------------------------
set {
	reference rhf
	basis 6-31G*
}

set_num_threads( 1 )
memory 2 gb

molecule MOL {
0 1

H	 -3.261111	 -0.295142	 1.469456
C	 -3.306842	 -0.277400	 0.373456
C	 -2.660244	 0.921717	 -0.272021
O	 -3.838538	 -1.161155	 -0.216482
C	 -1.277528	 1.233306	 0.317268
H	 -2.608258	 0.748516	 -1.340669
H	 -3.321129	 1.771060	 -0.103191
C	 -0.229322	 0.159283	 0.015542
H	 -0.941578	 2.186768	 -0.079383
H	 -1.365790	 1.367882	 1.394234
C	 1.146222	 0.488446	 0.598933
H	 -0.146595	 0.035576	 -1.062280
H	 -0.562803	 -0.801260	 0.403726
C	 2.195962	 -0.579876	 0.281627
H	 1.469370	 1.453156	 0.215994
H	 1.062394	 0.599878	 1.679183
C	 3.570099	 -0.334337	 0.915290
H	 2.308747	 -0.664492	 -0.798101
H	 1.825614	 -1.543949	 0.623854
C	 4.303246	 0.899042	 0.385298
H	 4.190196	 -1.209853	 0.739511
H	 3.459708	 -0.253329	 1.994722
H	 4.413720	 0.853067	 -0.694957
H	 3.779047	 1.818005	 0.625504
H	 5.297585	 0.970306	 0.815655

	symmetry c1
}
set optking {
	frozen_dihedral = ("
		6 3 5 8,
		3 5 8 12,
		12 8 11 14,
		8 11 14 18,
		20 17 14 18
	")
}

ee = energy('scf')
oeprop('DIPOLE', 'QUADRUPOLE', 'MULLIKEN_CHARGES')
f=open( 'psi4out.xyz', 'w' )
f.write( "25  " )
f.write( str(ee) + "\n" )
f.write( MOL.save_string_xyz() )
f.close()
--------------------------------------------------------------------------

    Molecular point group: c1

    Geometry (in Angstrom), charge = 0, multiplicity = 1:

       Center              X                  Y                   Z               Mass
    ------------   -----------------  -----------------  -----------------  -----------------
           H         -3.255048009951    -0.440637063755     1.205239881081     1.007825032070
           C         -3.300779009951    -0.422895063755     0.109239881081    12.000000000000
           C         -2.654181009951     0.776221936245    -0.536237118919    12.000000000000
           O         -3.832475009951    -1.306650063755    -0.480698118919    15.994914619560
           C         -1.271465009951     1.087810936245     0.053051881081    12.000000000000
           H         -2.602195009951     0.603020936245    -1.604885118919     1.007825032070
           H         -3.315066009951     1.625564936245    -0.367407118919     1.007825032070
           C         -0.223259009951     0.013787936245    -0.248674118919    12.000000000000
           H         -0.935515009951     2.041272936245    -0.343599118919     1.007825032070
           H         -1.359727009951     1.222386936245     1.130017881081     1.007825032070
           C          1.152284990049     0.342950936245     0.334716881081    12.000000000000
           H         -0.140532009951    -0.109919063755    -1.326496118919     1.007825032070
           H         -0.556740009951    -0.946755063755     0.139509881081     1.007825032070
           C          2.202024990049    -0.725371063755     0.017410881081    12.000000000000
           H          1.475432990049     1.307660936245    -0.048222118919     1.007825032070
           H          1.068456990049     0.454382936245     1.414966881081     1.007825032070
           C          3.576161990049    -0.479832063755     0.651073881081    12.000000000000
           H          2.314809990049    -0.809987063755    -1.062317118919     1.007825032070
           H          1.831676990049    -1.689444063755     0.359637881081     1.007825032070
           C          4.309308990049     0.753546936245     0.121081881081    12.000000000000
           H          4.196258990049    -1.355348063755     0.475294881081     1.007825032070
           H          3.465770990049    -0.398824063755     1.730505881081     1.007825032070
           H          4.419782990049     0.707571936245    -0.959173118919     1.007825032070
           H          3.785109990049     1.672509936245     0.361287881081     1.007825032070
           H          5.303647990049     0.824810936245     0.551438881081     1.007825032070

  Charge       = 0
  Multiplicity = 1
  Basis Set: 6-31G*
  Basis Set:

    Orbital Energies (a.u.)
    -----------------------

    Doubly Occupied:

       1A    -20.561802     2A    -11.326185     3A    -11.235217
       4A    -11.234633     5A    -11.224689     6A    -11.220356
       7A    -11.218377     8A    -11.217434     9A    -11.210984
      10A     -1.401847    11A     -1.104461    12A     -1.070075
      13A     -1.013685    14A     -0.942601    15A     -0.875263
      16A     -0.821274    17A     -0.788610    18A     -0.781862
      19A     -0.664213    20A     -0.660771    21A     -0.633138
      22A     -0.627262    23A     -0.602971    24A     -0.595495
      25A     -0.574455    26A     -0.549652    27A     -0.536321
      28A     -0.525592    29A     -0.507884    30A     -0.495566
      31A     -0.491871    32A     -0.480038    33A     -0.465235
      34A     -0.459334    35A     -0.441482    36A     -0.409567

  @DF-RHF Final Energy:  -387.12200483071649

   => Energetics <=

    Nuclear Repulsion Energy =            438.7756356191445093
    One-Electron Energy =               -1393.8549205337801595
    Two-Electron Energy =                 567.9572800839191586
    DFT Exchange-Correlation Energy =       0.0000000000000000
    Empirical Dispersion Energy =           0.0000000000000000
    PCM Polarization Energy =               0.0000000000000000
    EFP Energy =                            0.0000000000000000
    Total Energy =                       -387.1220048307164916

  Mulliken Charges: (a.u.)
   Center  Symbol    Alpha    Beta     Spin     Total
       1     H     0.43249  0.43249  0.00000  0.13502
       2     C     2.83084  2.83084  0.00000  0.33832
       3     C     3.20853  3.20853  0.00000 -0.41706
       4     O     4.23822  4.23822  0.00000 -0.47644
       5     C     3.16688  3.16688  0.00000 -0.33376
       6     H     0.39944  0.39944  0.00000  0.20112
       7     H     0.40512  0.40512  0.00000  0.18975
       8     C     3.15488  3.15488  0.00000 -0.30975
       9     H     0.41295  0.41295  0.00000  0.17409
      10     H     0.41967  0.41967  0.00000  0.16066
      11     C     3.15412  3.15412  0.00000 -0.30824
      12     H     0.41802  0.41802  0.00000  0.16396
      13     H     0.41926  0.41926  0.00000  0.16149
      14     C     3.15313  3.15313  0.00000 -0.30625
      15     H     0.42068  0.42068  0.00000  0.15864
      16     H     0.42364  0.42364  0.00000  0.15271
      17     C     3.15277  3.15277  0.00000 -0.30555
      18     H     0.42298  0.42298  0.00000  0.15404
      19     H     0.42076  0.42076  0.00000  0.15847
      20     C     3.24136  3.24136  0.00000 -0.48272
      21     H     0.41993  0.41993  0.00000  0.16015
      22     H     0.42320  0.42320  0.00000  0.15361
      23     H     0.42188  0.42188  0.00000  0.15625
      24     H     0.42065  0.42065  0.00000  0.15870
      25     H     0.41860  0.41860  0.00000  0.16279

   Total alpha = 36.00000, Total beta = 36.00000, Total charge = -0.00000
