                              Psi4 1.0.54 Driver

  ==> Input File <==

--------------------------------------------------------------------------
set {
	reference rhf
	basis cc-pvtz
}

set_num_threads( 4 )
memory 2 gb

molecule MOL {
0 1

H	 3.288184	 -0.461113	 0.037559
C	 2.231600	 -0.272657	 0.028647
C	 1.634912	 0.251941	 -1.108056
C	 1.474787	 -0.553775	 1.148345
H	 2.229733	 0.467795	 -1.974306
C	 0.279778	 0.495190	 -1.123661
H	 1.939046	 -0.959460	 2.026046
C	 0.113931	 -0.308938	 1.131155
H	 -0.199570	 0.900232	 -1.992466
C	 -0.486398	 0.214248	 0.000000
H	 -0.481096	 -0.525371	 1.999069
C	 -1.946525	 0.470130	 0.000000
O	 -2.779618	 -0.371226	 0.000000
H	 -2.227127	 1.528393	 0.000000

	symmetry c1
}
set optking {
	frozen_dihedral = ("
		8 10 12 14
	")
}

ee,wfn = optimize('scf', return_wfn=True)
oeprop( wfn, 'DIPOLE', 'QUADRUPOLE', 'MULLIKEN_CHARGES')
f=open( 'psi4out.xyz', 'w' )
f.write( "14  " )
f.write( str(ee) + "\n" )
f.write( MOL.save_string_xyz() )
f.close()
--------------------------------------------------------------------------

    Molecular point group: c1
  Charge       = 0
  Multiplicity = 1
  Basis Set: CC-PVTZ
  Basis Set:
  @DF-RHF Final Energy:  -343.53828706073381
    Total Energy =                       -343.5382870607335803
    Molecular point group: c1
  Basis Set: CC-PVTZ
  Basis Set:
  Basis Set: CC-PVTZ
  Basis Set:
  @DF-RHF Final Energy:  -343.53725564559988
    Total Energy =                       -343.5372556455999415
  Basis Set: CC-PVTZ
  Basis Set:
  Basis Set: CC-PVTZ
  Basis Set:
  @DF-RHF Final Energy:  -343.53858051317098
    Total Energy =                       -343.5385805131709844
  Basis Set: CC-PVTZ
  Basis Set:
  Basis Set: CC-PVTZ
  Basis Set:
  @DF-RHF Final Energy:  -343.53906345082879
    Total Energy =                       -343.5390634508289054
  Basis Set: CC-PVTZ
  Basis Set:
  Basis Set: CC-PVTZ
  Basis Set:
  @DF-RHF Final Energy:  -343.53907174036743
    Total Energy =                       -343.5390717403670351
  Basis Set: CC-PVTZ
  Basis Set:
  Charge       = 0
  Multiplicity = 1
  Basis Set: CC-PVTZ
  Basis Set:

    Orbital Energies (a.u.)
    -----------------------

    Doubly Occupied:

       1A    -20.562123     2A    -11.331925     3A    -11.250693
       4A    -11.246950     5A    -11.245435     6A    -11.243560
       7A    -11.242546     8A    -11.241538     9A     -1.416474
      10A     -1.175288    11A     -1.049732    12A     -1.033873
      13A     -0.890681    14A     -0.845580    15A     -0.797653
      16A     -0.725683    17A     -0.681457    18A     -0.657368
      19A     -0.642939    20A     -0.621030    21A     -0.604587
      22A     -0.542840    23A     -0.532019    24A     -0.516556
      25A     -0.506537    26A     -0.426320    27A     -0.352556
      28A     -0.351856

  @DF-RHF Final Energy:  -343.53907239693427

   => Energetics <=

    Nuclear Repulsion Energy =            323.1518256059222836
    One-Electron Energy =               -1105.9102069025575474
    Two-Electron Energy =                 439.2193088997011046
    DFT Exchange-Correlation Energy =       0.0000000000000000
    Empirical Dispersion Energy =           0.0000000000000000
    PCM Polarization Energy =               0.0000000000000000
    EFP Energy =                            0.0000000000000000
    Total Energy =                       -343.5390723969341025
    Molecular point group: c1
  Basis Set: CC-PVTZ
  Basis Set:

  -Total Gradient:
     Atom            X                  Y                   Z
    ------   -----------------  -----------------  -----------------
       1        0.000001186086    -0.000000482527    -0.000014916941
       2       -0.000006183742    -0.000046106753     0.000174120183
       3       -0.000150200760     0.000054533752    -0.000080313595
       4        0.000168151230     0.000015150592    -0.000105971492
       5        0.000011622824    -0.000008549389     0.000006561930
       6        0.000141125098    -0.000059671325    -0.000070321271
       7       -0.000008182176    -0.000000472936     0.000005105355
       8        0.000765968481     0.004257853864     0.001262093132
       9       -0.000005561853     0.000001279264    -0.000013056133
      10       -0.001256939425    -0.006063922676    -0.000017848960
      11        0.000005409246    -0.000011590498    -0.000004639285
      12        0.000390486301     0.001706757252    -0.006680500205
      13       -0.000126217620    -0.000113206810     0.000007643414
      14        0.000069336310     0.000268428189     0.005532043868

  **** Optimization is complete! (in 6 steps) ****
    Final optimized geometry and variables:
    Molecular point group: c1

    Geometry (in Angstrom), charge = 0, multiplicity = 1:

    H            3.300160229234    -0.455230952309     0.013366856001
    C            2.243183572022    -0.270634127876     0.000635272311
    C            1.643777232660     0.236415935379    -1.137745227499
    C            1.481670759172    -0.533784577779     1.123004474834
    H            2.233643951367     0.444350411341    -2.009542250691
    C            0.285760022229     0.485744511570    -1.149869235222
    H            1.946171796408    -0.918937430713     2.010218675319
    C            0.118874231582    -0.303863697007     1.105923956144
    H           -0.174656232701     0.896726087620    -2.029312663723
    C           -0.483992811155     0.191637839121    -0.036706960875
    H           -0.476499499435    -0.519204181043     1.972222946883
    C           -1.946558645218     0.508254167995    -0.026074068621
    O           -2.799640351283    -0.299739651088     0.097766677515
    H           -2.197623459497     1.573375595429    -0.069858273160

  Mulliken Charges: (a.u.)
   Center  Symbol    Alpha    Beta     Spin     Total
       1     H     0.42065  0.42065  0.00000  0.15870
       2     C     3.08243  3.08243  0.00000 -0.16487
       3     C     3.06429  3.06429  0.00000 -0.12858
       4     C     3.06367  3.06367  0.00000 -0.12734
       5     H     0.42076  0.42076  0.00000  0.15849
       6     C     3.09854  3.09854  0.00000 -0.19708
       7     H     0.42081  0.42081  0.00000  0.15837
       8     C     3.09824  3.09824  0.00000 -0.19648
       9     H     0.42407  0.42407  0.00000  0.15186
      10     C     2.94258  2.94258  0.00000  0.11484
      11     H     0.41768  0.41768  0.00000  0.16463
      12     C     2.92868  2.92868  0.00000  0.14264
      13     O     4.15894  4.15894  0.00000 -0.31788
      14     H     0.45865  0.45865  0.00000  0.08270

   Total alpha = 28.00000, Total beta = 28.00000, Total charge = -0.00000

*** Psi4 exiting successfully. Buy a developer a beer!
