                              Psi4 1.0.54 Driver

  ==> Input File <==

--------------------------------------------------------------------------
set {
	reference rhf
	basis cc-pvtz
}

set_num_threads( 4 )
memory 2 gb

molecule MOL {
0 1

H	 -2.816458	 -0.841657	 -0.064679
N	 -1.878861	 -0.711874	 0.250184
C	 -1.341419	 0.551458	 -0.220231
H	 -1.333674	 -1.468530	 -0.105118
C	 0.082190	 0.731516	 0.254705
H	 -1.357065	 0.652078	 -1.304747
H	 -1.939897	 1.357530	 0.189797
O	 0.300644	 2.084216	 0.519636
H	 0.248587	 0.142335	 1.155455
H	 0.770158	 0.383309	 -0.512355
C	 1.599813	 2.394127	 0.900865
H	 1.648522	 3.458358	 1.080931
H	 1.881757	 1.872463	 1.813043
H	 2.314780	 2.137130	 0.122832

	symmetry c1
}
set optking {
	frozen_dihedral = ("
		8 5 3 6
	")
}

ee,wfn = optimize('scf', return_wfn=True)
oeprop( wfn, 'DIPOLE', 'QUADRUPOLE', 'MULLIKEN_CHARGES')
f=open( 'psi4out.xyz', 'w' )
f.write( "14  " )
f.write( str(ee) + "\n" )
f.write( MOL.save_string_xyz() )
f.close()
--------------------------------------------------------------------------

    Molecular point group: c1
  Charge       = 0
  Multiplicity = 1
  Basis Set: CC-PVTZ
  Basis Set:
  @DF-RHF Final Energy:  -248.22008596177730
    Total Energy =                       -248.2200859617772721
    Molecular point group: c1
  Basis Set: CC-PVTZ
  Basis Set:
  Basis Set: CC-PVTZ
  Basis Set:
  @DF-RHF Final Energy:  -248.22053628963334
    Total Energy =                       -248.2205362896331735
  Basis Set: CC-PVTZ
  Basis Set:
  Basis Set: CC-PVTZ
  Basis Set:
  @DF-RHF Final Energy:  -248.22061428155874
    Total Energy =                       -248.2206142815585963
  Basis Set: CC-PVTZ
  Basis Set:
  Basis Set: CC-PVTZ
  Basis Set:
  @DF-RHF Final Energy:  -248.22062488664841
    Total Energy =                       -248.2206248866484657
  Basis Set: CC-PVTZ
  Basis Set:
  Basis Set: CC-PVTZ
  Basis Set:
  @DF-RHF Final Energy:  -248.22062716155011
    Total Energy =                       -248.2206271615504534
  Basis Set: CC-PVTZ
  Basis Set:
  Charge       = 0
  Multiplicity = 1
  Basis Set: CC-PVTZ
  Basis Set:

    Orbital Energies (a.u.)
    -----------------------

    Doubly Occupied:

       1A    -20.548502     2A    -15.531618     3A    -11.262674
       4A    -11.261671     5A    -11.240033     6A     -1.382264
       7A     -1.180893     8A     -0.998757     9A     -0.899970
      10A     -0.824298    11A     -0.680092    12A     -0.674020
      13A     -0.647022    14A     -0.621766    15A     -0.606747
      16A     -0.545643    17A     -0.521992    18A     -0.500372
      19A     -0.470135    20A     -0.416317    21A     -0.390019

  @DF-RHF Final Energy:  -248.22062741043001

   => Energetics <=

    Nuclear Repulsion Energy =            190.9308090861580069
    One-Electron Energy =                -715.8932634969012270
    Two-Electron Energy =                 276.7418270003131511
    DFT Exchange-Correlation Energy =       0.0000000000000000
    Empirical Dispersion Energy =           0.0000000000000000
    PCM Polarization Energy =               0.0000000000000000
    EFP Energy =                            0.0000000000000000
    Total Energy =                       -248.2206274104300974
    Molecular point group: c1
  Basis Set: CC-PVTZ
  Basis Set:

  -Total Gradient:
     Atom            X                  Y                   Z
    ------   -----------------  -----------------  -----------------
       1        0.000002205014     0.000002408868    -0.000008955599
       2       -0.000034670485    -0.000056953043     0.000044397446
       3       -0.001231664789     0.005869437388     0.001493480288
       4        0.000003457695     0.000002786784    -0.000007528877
       5        0.001630691860    -0.000527647606    -0.004739378381
       6        0.000755512101    -0.004804622979    -0.000372566299
       7       -0.000012027290    -0.000009089990     0.000002301971
       8       -0.001115533704    -0.000477564013     0.003596280997
       9        0.000004873090    -0.000008036230    -0.000002525103
      10       -0.000004610239    -0.000015364680    -0.000007534726
      11        0.000002653356     0.000029813736     0.000001571635
      12        0.000009480949     0.000002873387     0.000003295055
      13       -0.000005622608    -0.000003921086    -0.000003770534
      14       -0.000004744951    -0.000004120535     0.000000932127

  **** Optimization is complete! (in 6 steps) ****
    Final optimized geometry and variables:
    Molecular point group: c1

    Geometry (in Angstrom), charge = 0, multiplicity = 1:

    H           -2.599097907716    -1.821778987470    -0.327163083002
    N           -1.633241691814    -1.733624709266    -0.092504005168
    C           -1.108825203547    -0.454151495211    -0.555333889010
    H           -1.160507533508    -2.495882032233    -0.532705410609
    C            0.325796909449    -0.262465900447    -0.079359267853
    H           -1.146720110561    -0.374478959183    -1.639811415891
    H           -1.709841890080     0.337322660776    -0.131537902933
    O            0.546433412800     1.092043250845     0.165198036419
    H            0.468306450378    -0.832196675846     0.835522834660
    H            1.036382279216    -0.633891309910    -0.817147256229
    C            1.838988022303     1.397157051696     0.570249036914
    H            1.888990479770     2.462075115639     0.745474905264
    H            2.100426317567     0.878257294328     1.489984429144
    H            2.569467675141     1.133573874199    -0.191821674690

  Mulliken Charges: (a.u.)
   Center  Symbol    Alpha    Beta     Spin     Total
       1     H     0.42909  0.42909  0.00000  0.14182
       2     N     3.68940  3.68940  0.00000 -0.37881
       3     C     3.03208  3.03208  0.00000 -0.06416
       4     H     0.43170  0.43170  0.00000  0.13660
       5     C     2.96215  2.96215  0.00000  0.07570
       6     H     0.46507  0.46507  0.00000  0.06986
       7     H     0.44963  0.44963  0.00000  0.10074
       8     O     4.17315  4.17315  0.00000 -0.34631
       9     H     0.46939  0.46939  0.00000  0.06122
      10     H     0.47746  0.47746  0.00000  0.04508
      11     C     3.03031  3.03031  0.00000 -0.06062
      12     H     0.44696  0.44696  0.00000  0.10609
      13     H     0.47145  0.47145  0.00000  0.05710
      14     H     0.47215  0.47215  0.00000  0.05569

   Total alpha = 21.00000, Total beta = 21.00000, Total charge = -0.00000

*** Psi4 exiting successfully. Buy a developer a beer!
