                              Psi4 1.0.54 Driver

  ==> Input File <==

--------------------------------------------------------------------------
set {
	reference rhf
	basis cc-pvtz
}

set_num_threads( 4 )
memory 2 gb

molecule MOL {
0 1

O	 0.768427	 1.269468	 0.272573
C	 0.576499	 0.134701	 -0.003900
C	 -0.765656	 -0.550508	 -0.002152
O	 1.541975	 -0.700764	 -0.350058
C	 -1.945526	 0.411052	 0.000603
H	 -0.794329	 -1.203792	 -0.868145
H	 -0.791555	 -1.205429	 0.862701
C	 -3.282915	 -0.321280	 0.002596
H	 -1.880300	 1.059126	 -0.864925
H	 -1.877207	 1.057892	 0.866807
H	 -3.388495	 -0.952755	 -0.873419
H	 -4.107811	 0.380864	 0.004116
H	 -3.385717	 -0.953283	 0.878571
C	 2.859348	 -0.189849	 -0.388863
H	 2.934556	 0.616077	 -1.103623
H	 3.488262	 -1.012558	 -0.687704
H	 3.156385	 0.172633	 0.583977

	symmetry c1
}
set optking {
	frozen_dihedral = ("
		1 2 3 6
	")
}

ee,wfn = optimize('scf', return_wfn=True)
oeprop( wfn, 'DIPOLE', 'QUADRUPOLE', 'MULLIKEN_CHARGES')
f=open( 'psi4out.xyz', 'w' )
f.write( "17  " )
f.write( str(ee) + "\n" )
f.write( MOL.save_string_xyz() )
f.close()
--------------------------------------------------------------------------

    Molecular point group: c1
  Charge       = 0
  Multiplicity = 1
  Basis Set: CC-PVTZ
  Basis Set:
  @DF-RHF Final Energy:  -345.03512864503534
    Total Energy =                       -345.0351286450352859
    Molecular point group: c1
  Basis Set: CC-PVTZ
  Basis Set:
  Basis Set: CC-PVTZ
  Basis Set:
  @DF-RHF Final Energy:  -345.03482015581244
    Total Energy =                       -345.0348201558126107
  Basis Set: CC-PVTZ
  Basis Set:
  Basis Set: CC-PVTZ
  Basis Set:
  @DF-RHF Final Energy:  -345.03515430151981
    Total Energy =                       -345.0351543015200377
  Basis Set: CC-PVTZ
  Basis Set:
  Basis Set: CC-PVTZ
  Basis Set:
  @DF-RHF Final Energy:  -345.03522930159227
    Total Energy =                       -345.0352293015927216
  Basis Set: CC-PVTZ
  Basis Set:
  Charge       = 0
  Multiplicity = 1
  Basis Set: CC-PVTZ
  Basis Set:

    Orbital Energies (a.u.)
    -----------------------

    Doubly Occupied:

       1A    -20.597051     2A    -20.534096     3A    -11.364985
       4A    -11.278780     5A    -11.234269     6A    -11.220644
       7A    -11.212929     8A     -1.472623     9A     -1.366044
      10A     -1.081812    11A     -1.002523    12A     -0.940581
      13A     -0.828083    14A     -0.769776    15A     -0.702489
      16A     -0.686397    17A     -0.676197    18A     -0.637746
      19A     -0.596793    20A     -0.577062    21A     -0.568409
      22A     -0.529520    23A     -0.523418    24A     -0.500779
      25A     -0.487697    26A     -0.479435    27A     -0.460430
      28A     -0.440985

  @DF-RHF Final Energy:  -345.03523003958333

   => Energetics <=

    Nuclear Repulsion Energy =            312.9895122931648075
    One-Electron Energy =               -1090.5063746527271178
    Two-Electron Energy =                 432.4816323199792691
    DFT Exchange-Correlation Energy =       0.0000000000000000
    Empirical Dispersion Energy =           0.0000000000000000
    PCM Polarization Energy =               0.0000000000000000
    EFP Energy =                            0.0000000000000000
    Total Energy =                       -345.0352300395830412
    Molecular point group: c1
  Basis Set: CC-PVTZ
  Basis Set:

  -Total Gradient:
     Atom            X                  Y                   Z
    ------   -----------------  -----------------  -----------------
       1        0.000068166308    -0.000296106309     0.000617869029
       2       -0.000187362444     0.000295225542    -0.000830824702
       3       -0.000234120949     0.000535484200    -0.000056525163
       4        0.000010778521     0.000002898831    -0.000042951344
       5       -0.000022928073    -0.000017535966    -0.000029891209
       6        0.000249237985    -0.000462126030     0.000356311685
       7       -0.000006918424    -0.000005145607    -0.000016831584
       8       -0.000031243742     0.000023603423    -0.000004033654
       9       -0.000006396669    -0.000007965364     0.000019477963
      10       -0.000000799382    -0.000012187688    -0.000011041309
      11        0.000003078804     0.000005397079     0.000011609113
      12       -0.000010584410    -0.000013308512    -0.000002548088
      13        0.000006015084     0.000009641082    -0.000011019081
      14        0.000132760941    -0.000073208704     0.000022594664
      15       -0.000024138034    -0.000033969735     0.000036446039
      16        0.000048950998     0.000048155747     0.000001409643
      17        0.000005503486     0.000001148012    -0.000060052001

  **** Optimization is complete! (in 5 steps) ****
    Final optimized geometry and variables:
    Molecular point group: c1

    Geometry (in Angstrom), charge = 0, multiplicity = 1:

    O            0.793986841654     1.241257150748     0.337852327760
    C            0.581567682865     0.113841676522     0.046245798247
    C           -0.776182932846    -0.540434253480     0.027790061742
    O            1.535964708560    -0.741722578192    -0.280909559096
    C           -1.933659501285     0.448076297134     0.063443862263
    H           -0.827393448947    -1.186713703691    -0.840301128726
    H           -0.809463244377    -1.200756987269     0.890277505626
    C           -3.287777903947    -0.252595967959     0.074035818383
    H           -1.867843284524     1.106804941286    -0.795246968371
    H           -1.835606298974     1.079986030805     0.936771984408
    H           -3.420521580696    -0.870355801441    -0.808024634168
    H           -4.095853827473     0.468565245702     0.096236897543
    H           -3.392795320213    -0.892969456914     0.943672248372
    C            2.867644455303    -0.268286578072    -0.258322056123
    H            2.993136953834     0.548682472926    -0.953096500287
    H            3.485429679619    -1.102348596522    -0.548971741234
    H            3.136348318104     0.067385949629     0.732276436986

  Mulliken Charges: (a.u.)
   Center  Symbol    Alpha    Beta     Spin     Total
       1     O     4.19744  4.19744  0.00000 -0.39487
       2     C     2.80867  2.80867  0.00000  0.38266
       3     C     3.09345  3.09345  0.00000 -0.18691
       4     O     4.14639  4.14639  0.00000 -0.29277
       5     C     3.07950  3.07950  0.00000 -0.15901
       6     H     0.43932  0.43932  0.00000  0.12136
       7     H     0.44328  0.44328  0.00000  0.11345
       8     C     3.15123  3.15123  0.00000 -0.30247
       9     H     0.44957  0.44957  0.00000  0.10085
      10     H     0.44349  0.44349  0.00000  0.11301
      11     H     0.45593  0.45593  0.00000  0.08814
      12     H     0.44563  0.44563  0.00000  0.10875
      13     H     0.45545  0.45545  0.00000  0.08909
      14     C     3.03680  3.03680  0.00000 -0.07360
      15     H     0.45424  0.45424  0.00000  0.09151
      16     H     0.44519  0.44519  0.00000  0.10962
      17     H     0.45441  0.45441  0.00000  0.09118

   Total alpha = 28.00000, Total beta = 28.00000, Total charge = -0.00000

*** Psi4 exiting successfully. Buy a developer a beer!
