  ==> Input File <==

--------------------------------------------------------------------------
set {
	reference rhf
	basis 6-31G*
}

set_num_threads( 4 )
memory 2 gb

molecule MOL {
0 1

H	 3.342615	 -0.936461	 1.785384
O	 2.596430	 -1.161904	 1.238447
C	 1.836230	 -0.074951	 1.107895
C	 0.624473	 -0.343591	 0.253101
O	 2.118774	 0.958468	 1.620954
C	 -0.265902	 0.883932	 0.072916
H	 0.984665	 -0.729338	 -0.694967
H	 0.077852	 -1.160403	 0.717618
C	 -1.728698	 0.646073	 0.462102
H	 -0.209144	 1.219470	 -0.958188
H	 0.135059	 1.692851	 0.673903
C	 -2.482460	 -0.343073	 -0.431425
H	 -2.245265	 1.602650	 0.432430
H	 -1.779332	 0.308348	 1.496285
C	 -3.960546	 -0.461025	 -0.060175
H	 -2.395034	 -0.026811	 -1.468912
H	 -2.024850	 -1.327147	 -0.371646
H	 -4.472726	 -1.168004	 -0.705284
H	 -4.465146	 0.496508	 -0.151489
H	 -4.081218	 -0.800940	 0.964585

	symmetry c1
}
set optking {
	frozen_dihedral = ("
		7 4 6 10
	")
}

ee = optimize('scf')
oeprop('DIPOLE', 'QUADRUPOLE', 'MULLIKEN_CHARGES')
f=open( 'psi4out.xyz', 'w' )
f.write( "20  " )
f.write( str(ee) + "\n" )
f.write( MOL.save_string_xyz() )
f.close()
--------------------------------------------------------------------------

    Molecular point group: c1
  Charge       = 0
  Multiplicity = 1
  Basis Set: 6-31G*
  Basis Set:
  @DF-RHF Final Energy:  -383.94435474501967
    Total Energy =                       -383.9443547450197229
    Molecular point group: c1
  Basis Set: 6-31G*
  Basis Set:
  Basis Set: 6-31G*
  Basis Set:
  @DF-RHF Final Energy:  -383.94467784327281
    Total Energy =                       -383.9446778432731548
  Basis Set: 6-31G*
  Basis Set:
  Basis Set: 6-31G*
  Basis Set:
  @DF-RHF Final Energy:  -383.94469966779565
    Total Energy =                       -383.9446996677959305
  Basis Set: 6-31G*
  Basis Set:
  Basis Set: 6-31G*
  Basis Set:
  @DF-RHF Final Energy:  -383.94473943500657
    Total Energy =                       -383.9447394350065679
  Basis Set: 6-31G*
  Basis Set:
  Basis Set: 6-31G*
  Basis Set:
  @DF-RHF Final Energy:  -383.94479673885081
    Total Energy =                       -383.9447967388510961
  Basis Set: 6-31G*
  Basis Set:
  Basis Set: 6-31G*
  Basis Set:
  @DF-RHF Final Energy:  -383.94480638200127
    Total Energy =                       -383.9448063820011612
  Basis Set: 6-31G*
  Basis Set:
  Basis Set: 6-31G*
  Basis Set:
  @DF-RHF Final Energy:  -383.94480870766353
    Total Energy =                       -383.9448087076640377
  Basis Set: 6-31G*
  Basis Set:
  Charge       = 0
  Multiplicity = 1
  Basis Set: 6-31G*
  Basis Set:

    Orbital Energies (a.u.)
    -----------------------

    Doubly Occupied:

       1A    -20.612807     2A    -20.552473     3A    -11.381943
       4A    -11.240520     5A    -11.221019     6A    -11.219861
       7A    -11.219001     8A    -11.211872     9A     -1.475229
      10A     -1.366146    11A     -1.094297    12A     -1.039423
      13A     -0.961089    14A     -0.868755    15A     -0.815644
      16A     -0.776169    17A     -0.700817    18A     -0.691024
      19A     -0.662724    20A     -0.635668    21A     -0.600479
      22A     -0.593045    23A     -0.573838    24A     -0.553447
      25A     -0.544215    26A     -0.507914    27A     -0.498553
      28A     -0.479924    29A     -0.467139    30A     -0.465357
      31A     -0.456142    32A     -0.445990

  @DF-RHF Final Energy:  -383.94480943157009

   => Energetics <=

    Nuclear Repulsion Energy =            376.5984339049663276
    One-Electron Energy =               -1269.2214345435531868
    Two-Electron Energy =                 508.6781912070166527
    DFT Exchange-Correlation Energy =       0.0000000000000000
    Empirical Dispersion Energy =           0.0000000000000000
    PCM Polarization Energy =               0.0000000000000000
    EFP Energy =                            0.0000000000000000
    Total Energy =                       -383.9448094315702065
    Molecular point group: c1
  Basis Set: 6-31G*
  Basis Set:

  -Total Gradient:
     Atom            X                  Y                   Z
    ------   -----------------  -----------------  -----------------
       1        0.000026613137    -0.000006406796     0.000013002613
       2       -0.000059742093    -0.000020365454    -0.000001622655
       3       -0.000025330901     0.000128220010    -0.000086568035
       4       -0.002131619914    -0.001474194520    -0.000068689912
       5       -0.000020641658    -0.000023424976     0.000017756351
       6        0.002011017389     0.001593042471     0.000411182015
       7        0.001360955843     0.000998114964     0.000015129106
       8        0.000039156658     0.000004672570     0.000004131506
       9       -0.000012045902    -0.000096677088     0.000028614607
      10       -0.001258980001    -0.001069145899    -0.000380880431
      11        0.000076255680    -0.000014285847     0.000044786612
      12       -0.000030035634     0.000001032715     0.000040957739
      13        0.000033241743    -0.000009804090     0.000004901932
      14       -0.000003402686    -0.000028468348     0.000012244721
      15       -0.000019140446    -0.000001664522    -0.000031457252
      16        0.000020229093     0.000003795035     0.000012166602
      17        0.000002084226     0.000003582427    -0.000025426056
      18       -0.000011213481    -0.000007825186     0.000006474925
      19       -0.000013379551     0.000000997090    -0.000012214385
      20        0.000015978492     0.000018805448    -0.000004490006

  **** Optimization is complete! (in 8 steps) ****
    Final optimized geometry and variables:
    Molecular point group: c1

    Geometry (in Angstrom), charge = 0, multiplicity = 1:

    H            3.466819772535    -0.962489528315     1.214255495023
    O            2.701481954955    -1.178601680598     0.690584492317
    C            1.965052530220    -0.075303878019     0.559332202529
    C            0.724777786714    -0.343437716075    -0.259578490850
    O            2.288735232358     0.958029886591     1.047496511472
    C           -0.161655809982     0.893999100187    -0.480918878355
    H            1.070023394329    -0.771306423052    -1.195196944078
    H            0.191715962609    -1.140432689170     0.249667011025
    C           -1.631270322440     0.677172826493    -0.102177883338
    H           -0.114110243472     1.187475053911    -1.525644495032
    H            0.238263363361     1.717646399565     0.095389101944
    C           -2.376353884549    -0.306670942263    -1.007923312998
    H           -2.141043413134     1.637253647997    -0.136590636928
    H           -1.691337935708     0.339129080438     0.931278537507
    C           -3.841916524923    -0.483785782656    -0.611969396993
    H           -2.320120274779     0.045190212785    -2.036067317876
    H           -1.883917192065    -1.276387789592    -0.991957882404
    H           -4.346668153705    -1.181736854886    -1.272635881448
    H           -4.376622140307     0.460673220786    -0.657243849596
    H           -3.930775209903    -0.864337629084     0.401642176490

  Mulliken Charges: (a.u.)
   Center  Symbol    Alpha    Beta     Spin     Total
       1     H     0.26762  0.26762  0.00000  0.46477
       2     O     4.34982  4.34982  0.00000 -0.69964
       3     C     2.63000  2.63000  0.00000  0.74000
       4     C     3.21239  3.21239  0.00000 -0.42479
       5     O     4.27832  4.27832  0.00000 -0.55663
       6     C     3.16420  3.16420  0.00000 -0.32840
       7     H     0.39518  0.39518  0.00000  0.20963
       8     H     0.39616  0.39616  0.00000  0.20767
       9     C     3.15641  3.15641  0.00000 -0.31281
      10     H     0.41797  0.41797  0.00000  0.16405
      11     H     0.39152  0.39152  0.00000  0.21696
      12     C     3.15404  3.15404  0.00000 -0.30808
      13     H     0.41875  0.41875  0.00000  0.16249
      14     H     0.42252  0.42252  0.00000  0.15496
      15     C     3.23914  3.23914  0.00000 -0.47828
      16     H     0.42239  0.42239  0.00000  0.15522
      17     H     0.42301  0.42301  0.00000  0.15399
      18     H     0.41862  0.41862  0.00000  0.16275
      19     H     0.42064  0.42064  0.00000  0.15872
      20     H     0.42129  0.42129  0.00000  0.15742

   Total alpha = 32.00000, Total beta = 32.00000, Total charge = -0.00000
