                              Psi4 1.0.54 Driver

  ==> Input File <==

--------------------------------------------------------------------------
set {
	reference rhf
	basis cc-pvtz
}

set_num_threads( 4 )
memory 2 gb

molecule MOL {
0 1

H	 -4.340537	 -0.784487	 0.000000
O	 -3.958786	 0.074640	 0.000000
C	 -2.613554	 0.009900	 0.000000
C	 -2.018647	 -0.960363	 -0.789210
C	 -1.827085	 0.864677	 0.748137
H	 -2.638471	 -1.618088	 -1.365470
C	 -0.646415	 -1.071126	 -0.826694
H	 -2.281323	 1.619929	 1.362814
C	 -0.449211	 0.752089	 0.709350
H	 -0.188095	 -1.822304	 -1.437793
C	 0.135694	 -0.213709	 -0.076521
H	 0.156637	 1.417064	 1.291123
Br	 2.026791	 -0.370520	 -0.131670

	symmetry c1
}
set optking {
	frozen_dihedral = ("
		4 3 2 1
	")
}

ee,wfn = optimize('scf', return_wfn=True)
oeprop( wfn, 'DIPOLE', 'QUADRUPOLE', 'MULLIKEN_CHARGES')
f=open( 'psi4out.xyz', 'w' )
f.write( "13  " )
f.write( str(ee) + "\n" )
f.write( MOL.save_string_xyz() )
f.close()
--------------------------------------------------------------------------

    Molecular point group: c1
  Charge       = 0
  Multiplicity = 1
  Basis Set: CC-PVTZ
  Basis Set:
  @DF-RHF Final Energy: -2877.54343960204642
    Total Energy =                      -2877.5434396020473287
    Molecular point group: c1
  Basis Set: CC-PVTZ
  Basis Set:
  Basis Set: CC-PVTZ
  Basis Set:
  @DF-RHF Final Energy: -2877.54510040321111
    Total Energy =                      -2877.5451004032142919
  Basis Set: CC-PVTZ
  Basis Set:
  Basis Set: CC-PVTZ
  Basis Set:
  @DF-RHF Final Energy: -2877.54522625781874
    Total Energy =                      -2877.5452262578205591
  Basis Set: CC-PVTZ
  Basis Set:
  Basis Set: CC-PVTZ
  Basis Set:
  @DF-RHF Final Energy: -2877.54524113387379
    Total Energy =                      -2877.5452411338756065
  Basis Set: CC-PVTZ
  Basis Set:
  Charge       = 0
  Multiplicity = 1
  Basis Set: CC-PVTZ
  Basis Set:

    Orbital Energies (a.u.)
    -----------------------

    Doubly Occupied:

       1A   -490.019360     2A    -65.159686     3A    -58.514911
       4A    -58.513544     5A    -58.513536     6A    -20.591138
       7A    -11.308412     8A    -11.290125     9A    -11.253395
      10A    -11.251966    11A    -11.242917    12A    -11.238594
      13A     -9.833485    14A     -7.445105    15A     -7.438343
      16A     -7.438290    17A     -3.188796    18A     -3.185244
      19A     -3.185130    20A     -3.176484    21A     -3.176480
      22A     -1.421202    23A     -1.180182    24A     -1.067103
      25A     -1.041977    26A     -0.970541    27A     -0.866572
      28A     -0.827540    29A     -0.756441    30A     -0.686155
      31A     -0.655467    32A     -0.639505    33A     -0.610232
      34A     -0.604438    35A     -0.564994    36A     -0.527026
      37A     -0.504874    38A     -0.501262    39A     -0.429964
      40A     -0.414390    41A     -0.359745    42A     -0.321694

  @DF-RHF Final Energy: -2877.54524534300981

   => Energetics <=

    Nuclear Repulsion Energy =            525.3650773423277087
    One-Electron Energy =               -5041.9881495474401163
    Two-Electron Energy =                1639.0778268621047573
    DFT Exchange-Correlation Energy =       0.0000000000000000
    Empirical Dispersion Energy =           0.0000000000000000
    PCM Polarization Energy =               0.0000000000000000
    EFP Energy =                            0.0000000000000000
    Total Energy =                      -2877.5452453430075366
    Molecular point group: c1
  Basis Set: CC-PVTZ
  Basis Set:

  -Total Gradient:
     Atom            X                  Y                   Z
    ------   -----------------  -----------------  -----------------
       1        0.000066598486     0.000111517087     0.002535751197
       2        0.000021943869     0.000491424186    -0.003924180482
       3       -0.000117722710    -0.001605894344     0.002906069301
       4        0.000063300547     0.001069174820    -0.001534189853
       5       -0.000127847295     0.000024119917     0.000061873371
       6        0.000067040274    -0.000001763935     0.000007829367
       7       -0.000087344553    -0.000117499921    -0.000062764561
       8       -0.000069048836    -0.000013541880    -0.000011484165
       9        0.000197457267    -0.000077599827    -0.000024027951
      10        0.000057864388    -0.000009111966    -0.000016766672
      11       -0.000002376644     0.000156358105     0.000096779554
      12       -0.000035086196     0.000019179293     0.000003211038
      13       -0.000034778877    -0.000046361609    -0.000038100154

  **** Optimization is complete! (in 5 steps) ****
    Final optimized geometry and variables:
    Molecular point group: c1

    Geometry (in Angstrom), charge = 0, multiplicity = 1:

    H           -4.377141670359    -0.563183508764     0.156143029126
    O           -3.952430611772     0.275448742662     0.128928707584
    C           -2.605761008281     0.139079525181     0.091733995157
    C           -1.990791083570    -0.841892294559    -0.663747552269
    C           -1.839310819468     1.054963788639     0.787375207515
    H           -2.584380372216    -1.539294132791    -1.224363604810
    C           -0.612174997569    -0.922884335463    -0.704238974588
    H           -2.328322621425     1.816707395535     1.361501849502
    C           -0.462189610358     0.983332972751     0.736901926505
    H           -0.137207825511    -1.687159370155    -1.285615110317
    C            0.145459477320    -0.008819812527    -0.004958258100
    H            0.130643139025     1.693555240252     1.277045843085
    BR           2.039642073964    -0.113656433865    -0.066726440039

  Mulliken Charges: (a.u.)
   Center  Symbol    Alpha    Beta     Spin     Total
       1     H     0.38481  0.38481  0.00000  0.23038
       2     O     4.17879  4.17879  0.00000 -0.35759
       3     C     2.87089  2.87089  0.00000  0.25821
       4     C     3.11042  3.11042  0.00000 -0.22084
       5     C     3.09203  3.09203  0.00000 -0.18406
       6     H     0.42365  0.42365  0.00000  0.15270
       7     C     3.08573  3.08573  0.00000 -0.17147
       8     H     0.41422  0.41422  0.00000  0.17156
       9     C     3.08042  3.08042  0.00000 -0.16084
      10     H     0.41054  0.41054  0.00000  0.17892
      11     C     2.97211  2.97211  0.00000  0.05578
      12     H     0.41049  0.41049  0.00000  0.17901
      13    BR    17.56588 17.56588  0.00000 -0.13176

   Total alpha = 42.00000, Total beta = 42.00000, Total charge =  0.00000

*** Psi4 exiting successfully. Buy a developer a beer!
