                              Psi4 1.0.54 Driver

  ==> Input File <==

--------------------------------------------------------------------------
set {
	reference rhf
	basis cc-pvtz
}

set_num_threads( 4 )
memory 2 gb

molecule MOL {
0 1

H	 -3.717942	 -0.794530	 0.283715
O	 -3.515113	 -0.019339	 -0.206321
C	 -2.302264	 0.528872	 0.237390
C	 -1.175688	 -0.398187	 -0.171891
H	 -2.148018	 1.514076	 -0.197759
H	 -2.310727	 0.646384	 1.319032
C	 0.196029	 0.106276	 0.266738
H	 -1.201873	 -0.515469	 -1.250677
H	 -1.365975	 -1.378728	 0.252664
C	 1.330220	 -0.826136	 -0.155230
H	 0.359542	 1.097229	 -0.145561
H	 0.212134	 0.218135	 1.348778
C	 2.719700	 -0.407669	 0.328325
H	 1.339388	 -0.911200	 -1.239363
H	 1.119001	 -1.821953	 0.224128
C	 3.241564	 0.893452	 -0.276737
H	 3.418299	 -1.204729	 0.093035
H	 2.711776	 -0.323368	 1.411960
H	 3.254204	 0.841071	 -1.360784
H	 2.634460	 1.745075	 0.005842
H	 4.254264	 1.092401	 0.054971

	symmetry c1
}
set optking {
	frozen_dihedral = ("
		1 2 3 5
	")
}

ee,wfn = optimize('scf', return_wfn=True)
oeprop( wfn, 'DIPOLE', 'QUADRUPOLE', 'MULLIKEN_CHARGES')
f=open( 'psi4out.xyz', 'w' )
f.write( "21  " )
f.write( str(ee) + "\n" )
f.write( MOL.save_string_xyz() )
f.close()
--------------------------------------------------------------------------

    Molecular point group: c1
  Charge       = 0
  Multiplicity = 1
  Basis Set: CC-PVTZ
  Basis Set:
  @DF-RHF Final Energy:  -310.33108288980702
    Total Energy =                       -310.3310828898068507
    Molecular point group: c1
  Basis Set: CC-PVTZ
  Basis Set:
  Basis Set: CC-PVTZ
  Basis Set:
  @DF-RHF Final Energy:  -310.03104215212943
    Total Energy =                       -310.0310421521293165
  Basis Set: CC-PVTZ
  Basis Set:
  Basis Set: CC-PVTZ
  Basis Set:
  @DF-RHF Final Energy:  -310.18586686280298
    Total Energy =                       -310.1858668628030955
  Basis Set: CC-PVTZ
  Basis Set:
  Basis Set: CC-PVTZ
  Basis Set:
  @DF-RHF Final Energy:  -310.30774001905706
    Total Energy =                       -310.3077400190572348
  Basis Set: CC-PVTZ
  Basis Set:
  @DF-RHF Final Energy:  -310.33018167653552
    Total Energy =                       -310.3301816765355738
  Basis Set: CC-PVTZ
  Basis Set:
  @DF-RHF Final Energy:  -310.33245317286622
    Total Energy =                       -310.3324531728662805
  Basis Set: CC-PVTZ
  Basis Set:
  Basis Set: CC-PVTZ
  Basis Set:
  @DF-RHF Final Energy:  -310.33276440617431
    Total Energy =                       -310.3327644061743058
  Basis Set: CC-PVTZ
  Basis Set:
  Basis Set: CC-PVTZ
  Basis Set:
  @DF-RHF Final Energy:  -310.33278067562304
    Total Energy =                       -310.3327806756229847
  Basis Set: CC-PVTZ
  Basis Set:
  Charge       = 0
  Multiplicity = 1
  Basis Set: CC-PVTZ
  Basis Set:

    Orbital Energies (a.u.)
    -----------------------

    Doubly Occupied:

       1A    -20.545381     2A    -11.264819     3A    -11.216182
       4A    -11.215197     5A    -11.214136     6A    -11.213459
       7A    -11.207504     8A     -1.363372     9A     -1.089849
      10A     -1.035694    11A     -0.956190    12A     -0.879961
      13A     -0.818677    14A     -0.781060    15A     -0.695877
      16A     -0.649441    17A     -0.621534    18A     -0.608571
      19A     -0.595183    20A     -0.577409    21A     -0.540790
      22A     -0.533492    23A     -0.505234    24A     -0.493341
      25A     -0.481023    26A     -0.465302    27A     -0.460563
      28A     -0.458146    29A     -0.424195

  @DF-RHF Final Energy:  -310.33278115180076

   => Energetics <=

    Nuclear Repulsion Energy =            312.6880969387855203
    One-Electron Energy =               -1040.2186016686584935
    Two-Electron Energy =                 417.1977235780722140
    DFT Exchange-Correlation Energy =       0.0000000000000000
    Empirical Dispersion Energy =           0.0000000000000000
    PCM Polarization Energy =               0.0000000000000000
    EFP Energy =                            0.0000000000000000
    Total Energy =                       -310.3327811518007593
    Molecular point group: c1
  Basis Set: CC-PVTZ
  Basis Set:

  -Total Gradient:
     Atom            X                  Y                   Z
    ------   -----------------  -----------------  -----------------
       1       -0.000230493668     0.000088410445     0.000460176186
       2        0.000265889774    -0.000066806702    -0.000480274048
       3        0.000183537086     0.000033435450    -0.000357690865
       4       -0.000007737198    -0.000012531402     0.000008057655
       5       -0.000213332212    -0.000060709319     0.000379263367
       6        0.000001663064     0.000002700141     0.000012608950
       7       -0.000017875350     0.000009014300    -0.000031066994
       8        0.000003074379     0.000003264278    -0.000003208054
       9        0.000000616460    -0.000010858566    -0.000010174406
      10        0.000000767732     0.000034602492     0.000010617423
      11       -0.000019341940    -0.000019720711    -0.000014224941
      12        0.000012578077     0.000003502131     0.000010493700
      13       -0.000023817239    -0.000011724434     0.000035340121
      14       -0.000015763524     0.000018475836    -0.000004150186
      15        0.000005729427    -0.000002522527    -0.000014666854
      16        0.000017156142    -0.000002758797     0.000001547939
      17        0.000010800231    -0.000014071842     0.000001132081
      18        0.000007138628     0.000002397438     0.000021189474
      19       -0.000002538504     0.000014892719    -0.000013347056
      20        0.000029832650     0.000000707704    -0.000001040206
      21       -0.000007884016    -0.000009698633    -0.000010583285

  **** Optimization is complete! (in 9 steps) ****
    Final optimized geometry and variables:
    Molecular point group: c1

    Geometry (in Angstrom), charge = 0, multiplicity = 1:

    H           -3.578245516156    -1.481935011322    -0.219348965196
    O           -3.516761460413    -0.544280576469    -0.222292851722
    C           -2.333880646721    -0.140098728307     0.412813557951
    C           -1.088098502384    -0.488743051422    -0.385161823361
    H           -2.412412324445     0.932727656553     0.533909653656
    H           -2.271082599962    -0.569367193019     1.410682196228
    C            0.197302670820    -0.004304524786     0.279809999149
    H           -1.181727015246    -0.056296815785    -1.376350647926
    H           -1.043957700345    -1.567776076927    -0.520280959406
    C            1.449260343863    -0.351976032702    -0.523500942557
    H            0.136123485131     1.069837247096     0.423883055242
    H            0.278692196480    -0.441911480858     1.272472351071
    C            2.769443511715     0.038155413401     0.143261677762
    H            1.389405314954     0.119377144964    -1.501657451887
    H            1.458637441623    -1.423335683966    -0.704329560050
    C            2.991998602215     1.541714619613     0.287649776061
    H            3.583956672793    -0.378838004060    -0.440985806839
    H            2.829093798765    -0.430689715407     1.122054857759
    H            2.929715627141     2.038688607632    -0.675220276228
    H            2.261527060804     1.999472930509     0.943706553737
    H            3.972901519387     1.746615193951     0.700966860470

  Mulliken Charges: (a.u.)
   Center  Symbol    Alpha    Beta     Spin     Total
       1     H     0.39539  0.39539  0.00000  0.20923
       2     O     4.20088  4.20088  0.00000 -0.40175
       3     C     2.97013  2.97013  0.00000  0.05975
       4     C     3.09169  3.09169  0.00000 -0.18338
       5     H     0.45409  0.45409  0.00000  0.09181
       6     H     0.47117  0.47117  0.00000  0.05767
       7     C     3.10292  3.10292  0.00000 -0.20584
       8     H     0.44902  0.44902  0.00000  0.10196
       9     H     0.46202  0.46202  0.00000  0.07595
      10     C     3.09407  3.09407  0.00000 -0.18814
      11     H     0.45096  0.45096  0.00000  0.09808
      12     H     0.45519  0.45519  0.00000  0.08963
      13     C     3.09016  3.09016  0.00000 -0.18033
      14     H     0.45271  0.45271  0.00000  0.09459
      15     H     0.44951  0.44951  0.00000  0.10099
      16     C     3.15231  3.15231  0.00000 -0.30461
      17     H     0.44832  0.44832  0.00000  0.10336
      18     H     0.45492  0.45492  0.00000  0.09016
      19     H     0.45447  0.45447  0.00000  0.09105
      20     H     0.45384  0.45384  0.00000  0.09232
      21     H     0.44625  0.44625  0.00000  0.10750

   Total alpha = 29.00000, Total beta = 29.00000, Total charge = -0.00000

*** Psi4 exiting successfully. Buy a developer a beer!
