  ==> Input File <==

--------------------------------------------------------------------------
set {
	reference rhf
	basis 6-31G*
}

set_num_threads( 1 )
memory 2 gb

molecule MOL {
0 1

O	 2.884422	 1.320877	 0.290138
C	 2.843464	 0.164689	 -0.000222
C	 1.546494	 -0.624492	 -0.000609
C	 4.094413	 -0.595657	 -0.390294
C	 0.291004	 0.242674	 0.000989
H	 1.557904	 -1.283758	 -0.867573
H	 1.558622	 -1.285963	 0.864672
C	 -0.994322	 -0.586602	 0.000262
H	 0.309117	 0.896430	 -0.865270
H	 0.309661	 0.894078	 0.869017
C	 -2.259874	 0.272531	 0.000494
H	 -1.004862	 -1.240012	 -0.870939
H	 -1.005220	 -1.241071	 0.870675
C	 -3.549786	 -0.549746	 -0.000374
H	 -2.250389	 0.926680	 -0.869574
H	 -2.250838	 0.925513	 0.871430
C	 -4.809590	 0.315458	 -0.000369
H	 -3.560515	 -1.202009	 -0.871156
H	 -3.561123	 -1.202955	 0.869711
H	 -4.844746	 0.956611	 -0.876632
H	 -5.706986	 -0.295590	 -0.001609
H	 -4.845960	 0.954827	 0.877144
H	 3.992707	 -1.004605	 -1.391311
H	 4.948987	 0.065658	 -0.355648
H	 4.255334	 -1.431479	 0.284346

	symmetry c1
}
set optking {
	frozen_dihedral = ("
		9 5 8 12,
		15 11 8 12,
		15 11 14 18,
		9 5 3 6
	")
}

ee = energy('scf')
oeprop('DIPOLE', 'QUADRUPOLE', 'MULLIKEN_CHARGES')
f=open( 'psi4out.xyz', 'w' )
f.write( "25  " )
f.write( str(ee) + "\n" )
f.write( MOL.save_string_xyz() )
f.close()
--------------------------------------------------------------------------

    Molecular point group: c1

    Geometry (in Angstrom), charge = 0, multiplicity = 1:

       Center              X                  Y                   Z               Mass
    ------------   -----------------  -----------------  -----------------  -----------------
           O          2.885321601311     1.319392550278     0.301962109493    15.994914619560
           C          2.844363601311     0.163204550278     0.011602109493    12.000000000000
           C          1.547393601311    -0.625976449722     0.011215109493    12.000000000000
           C          4.095312601311    -0.597141449722    -0.378469890507    12.000000000000
           C          0.291903601311     0.241189550278     0.012813109493    12.000000000000
           H          1.558803601311    -1.285242449722    -0.855748890507     1.007825032070
           H          1.559521601311    -1.287447449722     0.876496109493     1.007825032070
           C         -0.993422398689    -0.588086449722     0.012086109493    12.000000000000
           H          0.310016601311     0.894945550278    -0.853445890507     1.007825032070
           H          0.310560601311     0.892593550278     0.880841109493     1.007825032070
           C         -2.258974398689     0.271046550278     0.012318109493    12.000000000000
           H         -1.003962398689    -1.241496449722    -0.859114890507     1.007825032070
           H         -1.004320398689    -1.242555449722     0.882499109493     1.007825032070
           C         -3.548886398689    -0.551230449722     0.011450109493    12.000000000000
           H         -2.249489398689     0.925195550278    -0.857749890507     1.007825032070
           H         -2.249938398689     0.924028550278     0.883254109493     1.007825032070
           C         -4.808690398689     0.313973550278     0.011455109493    12.000000000000
           H         -3.559615398689    -1.203493449722    -0.859331890507     1.007825032070
           H         -3.560223398689    -1.204439449722     0.881535109493     1.007825032070
           H         -4.843846398689     0.955126550278    -0.864807890507     1.007825032070
           H         -5.706086398689    -0.297074449722     0.010215109493     1.007825032070
           H         -4.845060398689     0.953342550278     0.888968109493     1.007825032070
           H          3.993606601311    -1.006089449722    -1.379486890507     1.007825032070
           H          4.949886601311     0.064173550278    -0.343823890507     1.007825032070
           H          4.256233601311    -1.432963449722     0.296170109493     1.007825032070

  Charge       = 0
  Multiplicity = 1
  Basis Set: 6-31G*
  Basis Set:

    Orbital Energies (a.u.)
    -----------------------

    Doubly Occupied:

       1A    -20.550161     2A    -11.326236     3A    -11.231702
       4A    -11.228295     5A    -11.217821     6A    -11.217092
       7A    -11.215611     8A    -11.213844     9A    -11.208507
      10A     -1.395537    11A     -1.094015    12A     -1.056549
      13A     -1.014489    14A     -0.969350    15A     -0.890951
      16A     -0.814448    17A     -0.791164    18A     -0.730105
      19A     -0.661941    20A     -0.651428    21A     -0.632757
      22A     -0.622556    23A     -0.596356    24A     -0.584531
      25A     -0.566773    26A     -0.559864    27A     -0.540455
      28A     -0.527413    29A     -0.512327    30A     -0.490417
      31A     -0.487745    32A     -0.473293    33A     -0.464107
      34A     -0.462687    35A     -0.451015    36A     -0.398870

  @DF-RHF Final Energy:  -387.13614030161415

   => Energetics <=

    Nuclear Repulsion Energy =            438.2926223367946363
    One-Electron Energy =               -1393.1567798352343743
    Two-Electron Energy =                 567.7280171968264995
    DFT Exchange-Correlation Energy =       0.0000000000000000
    Empirical Dispersion Energy =           0.0000000000000000
    PCM Polarization Energy =               0.0000000000000000
    EFP Energy =                            0.0000000000000000
    Total Energy =                       -387.1361403016131817

  Mulliken Charges: (a.u.)
   Center  Symbol    Alpha    Beta     Spin     Total
       1     O     4.26147  4.26147  0.00000 -0.52295
       2     C     2.73528  2.73528  0.00000  0.52944
       3     C     3.21029  3.21029  0.00000 -0.42058
       4     C     3.28719  3.28719  0.00000 -0.57438
       5     C     3.14922  3.14922  0.00000 -0.29844
       6     H     0.41357  0.41357  0.00000  0.17287
       7     H     0.40632  0.40632  0.00000  0.18737
       8     C     3.15382  3.15382  0.00000 -0.30764
       9     H     0.41571  0.41571  0.00000  0.16858
      10     H     0.40823  0.40823  0.00000  0.18354
      11     C     3.15082  3.15082  0.00000 -0.30163
      12     H     0.42498  0.42498  0.00000  0.15004
      13     H     0.42431  0.42431  0.00000  0.15139
      14     C     3.15154  3.15154  0.00000 -0.30308
      15     H     0.42281  0.42281  0.00000  0.15437
      16     H     0.42206  0.42206  0.00000  0.15589
      17     C     3.23934  3.23934  0.00000 -0.47869
      18     H     0.42360  0.42360  0.00000  0.15280
      19     H     0.42336  0.42336  0.00000  0.15327
      20     H     0.42148  0.42148  0.00000  0.15705
      21     H     0.41948  0.41948  0.00000  0.16104
      22     H     0.42124  0.42124  0.00000  0.15752
      23     H     0.40854  0.40854  0.00000  0.18293
      24     H     0.39668  0.39668  0.00000  0.20664
      25     H     0.40867  0.40867  0.00000  0.18265

   Total alpha = 36.00000, Total beta = 36.00000, Total charge = -0.00000
