                              Psi4 1.0.54 Driver

  ==> Input File <==

--------------------------------------------------------------------------
set {
	reference rhf
	basis cc-pvtz
}

set_num_threads( 4 )
memory 2 gb

molecule MOL {
0 1

O	 -1.510770	 1.240811	 -0.054933
C	 -1.081510	 0.147522	 0.122720
C	 0.327029	 -0.064006	 0.641890
C	 -1.903028	 -1.084121	 -0.174656
C	 1.349460	 -0.017068	 -0.500215
H	 0.399029	 -1.014606	 1.159950
H	 0.538021	 0.726928	 1.350471
C	 0.690222	 -0.064190	 -1.873871
H	 1.948392	 0.885464	 -0.419262
H	 2.030228	 -0.852951	 -0.389842
H	 1.434071	 -0.041205	 -2.661393
H	 0.025657	 0.780565	 -2.020480
H	 0.106545	 -0.970046	 -1.994765
H	 -1.341891	 -1.779207	 -0.789259
H	 -2.820449	 -0.808163	 -0.671328
H	 -2.133314	 -1.593056	 0.755831

	symmetry c1
}
set optking {
	frozen_dihedral = ("
		9 5 3 2
	")
}

ee,wfn = optimize('scf', return_wfn=True)
oeprop( wfn, 'DIPOLE', 'QUADRUPOLE', 'MULLIKEN_CHARGES')
f=open( 'psi4out.xyz', 'w' )
f.write( "16  " )
f.write( str(ee) + "\n" )
f.write( MOL.save_string_xyz() )
f.close()
--------------------------------------------------------------------------

    Molecular point group: c1
  Charge       = 0
  Multiplicity = 1
  Basis Set: CC-PVTZ
  Basis Set:
  @DF-RHF Final Energy:  -270.11624954533750
    Total Energy =                       -270.1162495453373822
    Molecular point group: c1
  Basis Set: CC-PVTZ
  Basis Set:
  Basis Set: CC-PVTZ
  Basis Set:
  @DF-RHF Final Energy:  -270.11988170041371
    Total Energy =                       -270.1198817004137709
  Basis Set: CC-PVTZ
  Basis Set:
  Basis Set: CC-PVTZ
  Basis Set:
  @DF-RHF Final Energy:  -270.11769832400842
    Total Energy =                       -270.1176983240081881
  Basis Set: CC-PVTZ
  Basis Set:
  Basis Set: CC-PVTZ
  Basis Set:
  @DF-RHF Final Energy:  -270.12057128239542
    Total Energy =                       -270.1205712823958152
  Basis Set: CC-PVTZ
  Basis Set:
  @DF-RHF Final Energy:  -270.12070155659569
    Total Energy =                       -270.1207015565954634
  @DF-RHF Final Energy:  -270.12080471984700
    Total Energy =                       -270.1208047198470581
  @DF-RHF Final Energy:  -270.12081547282594
    Total Energy =                       -270.1208154728261093
  Basis Set: CC-PVTZ
  Basis Set:
  @DF-RHF Final Energy:  -270.12083440378512
    Total Energy =                       -270.1208344037853522
  Basis Set: CC-PVTZ
  Basis Set:
  Basis Set: CC-PVTZ
  Basis Set:
  @DF-RHF Final Energy:  -270.12084408716220
    Total Energy =                       -270.1208440871620837
  Basis Set: CC-PVTZ
  Basis Set:
  Basis Set: CC-PVTZ
  Basis Set:
  @DF-RHF Final Energy:  -270.12084751897140
    Total Energy =                       -270.1208475189716864
  Basis Set: CC-PVTZ
  Basis Set:
  Charge       = 0
  Multiplicity = 1
  Basis Set: CC-PVTZ
  Basis Set:

    Orbital Energies (a.u.)
    -----------------------

    Doubly Occupied:

       1A    -20.536526     2A    -11.320228     3A    -11.230438
       4A    -11.228782     5A    -11.227057     6A    -11.212970
       7A     -1.397262     8A     -1.076586     9A     -1.012501
      10A     -0.951409    11A     -0.833968    12A     -0.725619
      13A     -0.657280    14A     -0.643240    15A     -0.622312
      16A     -0.611258    17A     -0.578041    18A     -0.557445
      19A     -0.545123    20A     -0.508971    21A     -0.502544
      22A     -0.475298    23A     -0.473233    24A     -0.399746

  @DF-RHF Final Energy:  -270.12084830458826

   => Energetics <=

    Nuclear Repulsion Energy =            243.1348535600489527
    One-Electron Energy =                -847.8557312468009286
    Two-Electron Energy =                 334.6000293821635978
    DFT Exchange-Correlation Energy =       0.0000000000000000
    Empirical Dispersion Energy =           0.0000000000000000
    PCM Polarization Energy =               0.0000000000000000
    EFP Energy =                            0.0000000000000000
    Total Energy =                       -270.1208483045883213
    Molecular point group: c1
  Basis Set: CC-PVTZ
  Basis Set:

  -Total Gradient:
     Atom            X                  Y                   Z
    ------   -----------------  -----------------  -----------------
       1        0.000030847114    -0.000054714638    -0.000003238837
       2       -0.000565824697    -0.002216681154    -0.000798177835
       3        0.001245859907     0.002676003831     0.001362610564
       4       -0.000005335806     0.000037603945     0.000101976647
       5       -0.002989180348     0.001658204838    -0.001607293032
       6       -0.000015236751     0.000008227552    -0.000008885676
       7       -0.000002354224     0.000000879695    -0.000018660236
       8        0.000005505506     0.000009841491     0.000000410106
       9        0.002257402648    -0.002086171913     0.001034856179
      10       -0.000009449009     0.000000800963    -0.000002528327
      11        0.000010710977    -0.000005291538     0.000004779449
      12        0.000010799434    -0.000001473735     0.000001043772
      13       -0.000014733471    -0.000013403528     0.000016621442
      14        0.000012164808     0.000003070825    -0.000029889850
      15        0.000034051449    -0.000008185150    -0.000010770297
      16       -0.000005227540    -0.000008711485    -0.000042854071

  **** Optimization is complete! (in 11 steps) ****
    Final optimized geometry and variables:
    Molecular point group: c1

    Geometry (in Angstrom), charge = 0, multiplicity = 1:

    O           -0.988296649084     1.194472586126     0.639363817786
    C           -0.644048878964     0.057444871569     0.623788902660
    C            0.823986294970    -0.320147931426     0.722521629313
    C           -1.646022393906    -1.067567409669     0.527164442203
    C            1.651869548924    -0.067894471300    -0.569499893688
    H            0.899227062156    -1.364581556057     0.999460387884
    H            1.238523431966     0.260617043481     1.535625943360
    C            0.867800468073     0.190585641719    -1.853439372073
    H            2.332011440475     0.755202099385    -0.391572484692
    H            2.286832769908    -0.933029937415    -0.723314227682
    H            1.553338978103     0.309698498578    -2.683942206377
    H            0.268413277762     1.087901015528    -1.783059153169
    H            0.208352002324    -0.636542307284    -2.095555368692
    H           -1.383180196223    -1.743140235610    -0.279011765087
    H           -2.636943801293    -0.669992908353     0.370480877895
    H           -1.626446519241    -1.644838625046     1.446097421111

  Mulliken Charges: (a.u.)
   Center  Symbol    Alpha    Beta     Spin     Total
       1     O     4.18110  4.18110  0.00000 -0.36220
       2     C     2.84950  2.84950  0.00000  0.30100
       3     C     3.11061  3.11061  0.00000 -0.22123
       4     C     3.15414  3.15414  0.00000 -0.30827
       5     C     3.08177  3.08177  0.00000 -0.16355
       6     H     0.44823  0.44823  0.00000  0.10354
       7     H     0.43802  0.43802  0.00000  0.12395
       8     C     3.16120  3.16120  0.00000 -0.32240
       9     H     0.44685  0.44685  0.00000  0.10629
      10     H     0.45055  0.45055  0.00000  0.09891
      11     H     0.44569  0.44569  0.00000  0.10863
      12     H     0.44006  0.44006  0.00000  0.11988
      13     H     0.45614  0.45614  0.00000  0.08771
      14     H     0.45139  0.45139  0.00000  0.09721
      15     H     0.43667  0.43667  0.00000  0.12666
      16     H     0.44808  0.44808  0.00000  0.10385

   Total alpha = 24.00000, Total beta = 24.00000, Total charge = -0.00000

*** Psi4 exiting successfully. Buy a developer a beer!
