  ==> Input File <==

--------------------------------------------------------------------------
set {
	reference rhf
	basis 6-31G*
}

set_num_threads( 1 )
memory 2 gb

molecule MOL {
0 1

H	 -1.780163	 -0.945727	 -1.090437
O	 -2.310168	 -0.871793	 -0.309793
C	 -2.026376	 0.340750	 0.341611
C	 -0.673256	 0.843270	 -0.132153
H	 -2.792215	 1.080697	 0.115987
H	 -2.013526	 0.200402	 1.421792
C	 0.486613	 -0.083066	 0.235839
H	 -0.715586	 0.970948	 -1.210718
H	 -0.508072	 1.829858	 0.297090
C	 1.840406	 0.433480	 -0.254303
H	 0.300215	 -1.068318	 -0.178947
H	 0.519509	 -0.203625	 1.318070
C	 3.000220	 -0.489290	 0.118523
H	 1.809207	 0.553576	 -1.335192
H	 2.021860	 1.424500	 0.157276
H	 2.864959	 -1.479103	 -0.307933
H	 3.946603	 -0.099227	 -0.243630
H	 3.080049	 -0.602997	 1.196117

	symmetry c1
}
set optking {
	frozen_dihedral = ("
		14 10 7 11,
		10 7 4 8,
		2 3 4 8
	")
}

ee = energy('scf')
oeprop('DIPOLE', 'QUADRUPOLE', 'MULLIKEN_CHARGES')
f=open( 'psi4out.xyz', 'w' )
f.write( "18  " )
f.write( str(ee) + "\n" )
f.write( MOL.save_string_xyz() )
f.close()
--------------------------------------------------------------------------

    Molecular point group: c1

    Geometry (in Angstrom), charge = 0, multiplicity = 1:

       Center              X                  Y                   Z               Mass
    ------------   -----------------  -----------------  -----------------  -----------------
           H         -1.795668586856    -0.948808601814    -1.077945718464     1.007825032070
           O         -2.325673586856    -0.874874601814    -0.297301718464    15.994914619560
           C         -2.041881586856     0.337668398186     0.354102281536    12.000000000000
           C         -0.688761586856     0.840188398186    -0.119661718464    12.000000000000
           H         -2.807720586856     1.077615398186     0.128478281536     1.007825032070
           H         -2.029031586856     0.197320398186     1.434283281536     1.007825032070
           C          0.471107413144    -0.086147601814     0.248330281536    12.000000000000
           H         -0.731091586856     0.967866398186    -1.198226718464     1.007825032070
           H         -0.523577586856     1.826776398186     0.309581281536     1.007825032070
           C          1.824900413144     0.430398398186    -0.241811718464    12.000000000000
           H          0.284709413144    -1.071399601814    -0.166455718464     1.007825032070
           H          0.504003413144    -0.206706601814     1.330561281536     1.007825032070
           C          2.984714413144    -0.492371601814     0.131014281536    12.000000000000
           H          1.793701413144     0.550494398186    -1.322700718464     1.007825032070
           H          2.006354413144     1.421418398186     0.169767281536     1.007825032070
           H          2.849453413144    -1.482184601814    -0.295441718464     1.007825032070
           H          3.931097413144    -0.102308601814    -0.231138718464     1.007825032070
           H          3.064543413144    -0.606078601814     1.208608281536     1.007825032070

  Charge       = 0
  Multiplicity = 1
  Basis Set: 6-31G*
  Basis Set:

    Orbital Energies (a.u.)
    -----------------------

    Doubly Occupied:

       1A    -20.549643     2A    -11.268208     3A    -11.222588
       4A    -11.220708     5A    -11.219835     6A    -11.212109
       7A     -1.359366     8A     -1.084665     9A     -1.014229
      10A     -0.921379    11A     -0.834585    12A     -0.797569
      13A     -0.663926    14A     -0.657242    15A     -0.635742
      16A     -0.614539    17A     -0.575900    18A     -0.559972
      19A     -0.541427    20A     -0.500160    21A     -0.488409
      22A     -0.478657    23A     -0.470627    24A     -0.454615
      25A     -0.427469

  @DF-RHF Final Energy:  -271.17548612600865

   => Energetics <=

    Nuclear Repulsion Energy =            250.3439348304499106
    One-Electron Energy =                -863.4915049231910871
    Two-Electron Energy =                 341.9720839667329528
    DFT Exchange-Correlation Energy =       0.0000000000000000
    Empirical Dispersion Energy =           0.0000000000000000
    PCM Polarization Energy =               0.0000000000000000
    EFP Energy =                            0.0000000000000000
    Total Energy =                       -271.1754861260081952

  Mulliken Charges: (a.u.)
   Center  Symbol    Alpha    Beta     Spin     Total
       1     H     0.27906  0.27906  0.00000  0.44188
       2     O     4.37477  4.37477  0.00000 -0.74953
       3     C     2.97740  2.97740  0.00000  0.04519
       4     C     3.19002  3.19002  0.00000 -0.38004
       5     H     0.42560  0.42560  0.00000  0.14880
       6     H     0.42158  0.42158  0.00000  0.15684
       7     C     3.15075  3.15075  0.00000 -0.30150
       8     H     0.42407  0.42407  0.00000  0.15185
       9     H     0.41869  0.41869  0.00000  0.16262
      10     C     3.15131  3.15131  0.00000 -0.30263
      11     H     0.42070  0.42070  0.00000  0.15859
      12     H     0.42021  0.42021  0.00000  0.15958
      13     C     3.23930  3.23930  0.00000 -0.47860
      14     H     0.42390  0.42390  0.00000  0.15220
      15     H     0.42221  0.42221  0.00000  0.15557
      16     H     0.42108  0.42108  0.00000  0.15783
      17     H     0.41865  0.41865  0.00000  0.16270
      18     H     0.42068  0.42068  0.00000  0.15864

   Total alpha = 25.00000, Total beta = 25.00000, Total charge = -0.00000
