  ==> Input File <==

--------------------------------------------------------------------------
set {
	reference rhf
	basis 6-31G*
}

set_num_threads( 4 )
memory 2 gb

molecule MOL {
0 1

H	 0.098452	 4.087074	 -1.081636
O	 -0.305574	 3.378431	 -1.562237
C	 -0.231284	 2.196238	 -0.811312
C	 1.175733	 1.625364	 -0.819823
H	 -0.556839	 2.350848	 0.213612
H	 -0.909896	 1.490259	 -1.269057
O	 1.171513	 0.459272	 -0.058250
H	 1.877256	 2.351817	 -0.404959
H	 1.482410	 1.424813	 -1.844671
C	 2.397842	 -0.198080	 -0.002151
H	 2.508049	 -0.905315	 -0.822092
H	 3.173794	 0.550865	 -0.078850
H	 2.517602	 -0.735921	 0.936026

	symmetry c1
}
set optking {
	frozen_dihedral = ("
		4 7 10 13
	")
}

ee = optimize('scf')
oeprop('DIPOLE', 'QUADRUPOLE', 'MULLIKEN_CHARGES')
f=open( 'psi4out.xyz', 'w' )
f.write( "13  " )
f.write( str(ee) + "\n" )
f.write( MOL.save_string_xyz() )
f.close()
--------------------------------------------------------------------------

    Molecular point group: c1
  Charge       = 0
  Multiplicity = 1
  Basis Set: 6-31G*
  Basis Set:
  @DF-RHF Final Energy:  -267.94759661964622
    Total Energy =                       -267.9475966196461059
    Molecular point group: c1
  Basis Set: 6-31G*
  Basis Set:
  Basis Set: 6-31G*
  Basis Set:
  @DF-RHF Final Energy:  -267.94845504855391
    Total Energy =                       -267.9484550485537397
  Basis Set: 6-31G*
  Basis Set:
  Basis Set: 6-31G*
  Basis Set:
  @DF-RHF Final Energy:  -267.94869736815770
    Total Energy =                       -267.9486973681575250
  Basis Set: 6-31G*
  Basis Set:
  Charge       = 0
  Multiplicity = 1
  Basis Set: 6-31G*
  Basis Set:

    Orbital Energies (a.u.)
    -----------------------

    Doubly Occupied:

       1A    -20.560498     2A    -20.559960     3A    -11.271087
       4A    -11.270028     5A    -11.268667     6A     -1.386523
       7A     -1.364750     8A     -1.018387     9A     -0.913476
      10A     -0.841799    11A     -0.708921    12A     -0.673033
      13A     -0.659425    14A     -0.636137    15A     -0.597401
      16A     -0.566785    17A     -0.548912    18A     -0.488012
      19A     -0.482126    20A     -0.438184    21A     -0.419639

  @DF-RHF Final Energy:  -267.94869855752268

   => Energetics <=

    Nuclear Repulsion Energy =            190.0872550960182252
    One-Electron Energy =                -742.7244100531286222
    Two-Electron Energy =                 284.6884563995878352
    DFT Exchange-Correlation Energy =       0.0000000000000000
    Empirical Dispersion Energy =           0.0000000000000000
    PCM Polarization Energy =               0.0000000000000000
    EFP Energy =                            0.0000000000000000
    Total Energy =                       -267.9486985575225617
    Molecular point group: c1
  Basis Set: 6-31G*
  Basis Set:

  -Total Gradient:
     Atom            X                  Y                   Z
    ------   -----------------  -----------------  -----------------
       1        0.000004922786     0.000010230264    -0.000002410666
       2        0.000059539180    -0.000048416152     0.000030758304
       3       -0.000067223573    -0.000074216678     0.000040326622
       4        0.000747623410     0.001312638447     0.001948274073
       5       -0.000010295270     0.000009061927     0.000001579981
       6       -0.000011719271    -0.000004065911     0.000003954151
       7       -0.000563415186    -0.001338514927    -0.002538630788
       8        0.000014394080    -0.000024107293     0.000019677932
       9        0.000005566511    -0.000018397030     0.000015483658
      10       -0.001305984829    -0.002377931578    -0.000746361148
      11       -0.000063523964     0.000023329589    -0.000000025935
      12        0.000012594120     0.000042369676    -0.000009327298
      13        0.001177522007     0.002488019665     0.001236701114

  **** Optimization is complete! (in 4 steps) ****
    Final optimized geometry and variables:
    Molecular point group: c1

    Geometry (in Angstrom), charge = 0, multiplicity = 1:

    H           -0.765684649055     2.567321328341    -0.412254491270
    O           -1.166344251784     1.858381812706    -0.895210051739
    C           -1.079235196081     0.672069037639    -0.151866932007
    C            0.331610666248     0.111220648031    -0.172582021697
    H           -1.398290734170     0.818576025282     0.876256935416
    H           -1.756442380843    -0.035768557350    -0.608735441233
    O            0.338749400285    -1.054957117030     0.590124059188
    H            1.030979895280     0.840341983175     0.239510649903
    H            0.629848089939    -0.083281838719    -1.200984363460
    C            1.563565687306    -1.720761846330     0.652119744175
    H            1.661781365017    -2.440219290780    -0.156038916448
    H            2.397108541702    -1.024450436368     0.598052597409
    H            1.619959158196    -2.231131752189     1.604609160128

  Mulliken Charges: (a.u.)
   Center  Symbol    Alpha    Beta     Spin     Total
       1     H     0.28130  0.28130  0.00000  0.43740
       2     O     4.37091  4.37091  0.00000 -0.74181
       3     C     3.00489  3.00489  0.00000 -0.00977
       4     C     2.99652  2.99652  0.00000  0.00696
       5     H     0.42232  0.42232  0.00000  0.15536
       6     H     0.40843  0.40843  0.00000  0.18314
       7     O     4.30988  4.30988  0.00000 -0.61976
       8     H     0.43696  0.43696  0.00000  0.12607
       9     H     0.42357  0.42357  0.00000  0.15286
      10     C     3.07789  3.07789  0.00000 -0.15578
      11     H     0.42374  0.42374  0.00000  0.15253
      12     H     0.43003  0.43003  0.00000  0.13995
      13     H     0.41357  0.41357  0.00000  0.17285

   Total alpha = 21.00000, Total beta = 21.00000, Total charge =  0.00000
