  ==> Input File <==

--------------------------------------------------------------------------
set {
	reference rhf
	basis 6-31G*
}

set_num_threads( 1 )
memory 2 gb

molecule MOL {
0 1

H	 -3.457215	 0.669139	 -1.400585
C	 -2.634428	 1.207346	 -1.887388
C	 -1.747259	 1.992964	 -0.955536
O	 -2.494682	 1.145343	 -3.065682
C	 -1.220012	 1.144545	 0.209990
H	 -0.937613	 2.421864	 -1.534524
H	 -2.345490	 2.812798	 -0.559750
C	 -0.252658	 0.041456	 -0.226725
H	 -0.722105	 1.802147	 0.916342
H	 -2.059959	 0.705245	 0.745957
C	 1.180775	 0.282413	 0.250794
H	 -0.266029	 -0.034465	 -1.312038
H	 -0.597733	 -0.921000	 0.146291
C	 2.148627	 -0.814315	 -0.201312
H	 1.516199	 1.249228	 -0.115937
H	 1.192670	 0.346017	 1.338083
C	 3.580890	 -0.659131	 0.322722
H	 2.166869	 -0.852443	 -1.289387
H	 1.762857	 -1.776509	 0.128956
C	 4.324889	 0.564933	 -0.213704
H	 4.142010	 -1.551473	 0.056605
H	 3.564836	 -0.624694	 1.410140
H	 4.342616	 0.565491	 -1.300421
H	 3.866655	 1.493402	 0.110242
H	 5.353900	 0.572371	 0.132816

	symmetry c1
}
set optking {
	frozen_dihedral = ("
		6 3 5 8,
		6 3 2 4,
		12 8 11 14,
		8 11 14 18,
		20 17 14 18
	")
}

ee = energy('scf')
oeprop('DIPOLE', 'QUADRUPOLE', 'MULLIKEN_CHARGES')
f=open( 'psi4out.xyz', 'w' )
f.write( "25  " )
f.write( str(ee) + "\n" )
f.write( MOL.save_string_xyz() )
f.close()
--------------------------------------------------------------------------

    Molecular point group: c1

    Geometry (in Angstrom), charge = 0, multiplicity = 1:

       Center              X                  Y                   Z               Mass
    ------------   -----------------  -----------------  -----------------  -----------------
           H         -3.787586575433     0.119864383043    -0.744979787243     1.007825032070
           C         -2.964799575433     0.658071383043    -1.231782787243    12.000000000000
           C         -2.077630575433     1.443689383043    -0.299930787243    12.000000000000
           O         -2.825053575433     0.596068383043    -2.410076787243    15.994914619560
           C         -1.550383575433     0.595270383043     0.865595212757    12.000000000000
           H         -1.267984575433     1.872589383043    -0.878918787243     1.007825032070
           H         -2.675861575433     2.263523383043     0.095855212757     1.007825032070
           C         -0.583029575433    -0.507818616957     0.428880212757    12.000000000000
           H         -1.052476575433     1.252872383043     1.571947212757     1.007825032070
           H         -2.390330575433     0.155970383043     1.401562212757     1.007825032070
           C          0.850403424567    -0.266861616957     0.906399212757    12.000000000000
           H         -0.596400575433    -0.583739616957    -0.656432787243     1.007825032070
           H         -0.928104575433    -1.470274616957     0.801896212757     1.007825032070
           C          1.818255424567    -1.363589616957     0.454293212757    12.000000000000
           H          1.185827424567     0.699953383043     0.539668212757     1.007825032070
           H          0.862298424567    -0.203257616957     1.993688212757     1.007825032070
           C          3.250518424567    -1.208405616957     0.978327212757    12.000000000000
           H          1.836497424567    -1.401717616957    -0.633781787243     1.007825032070
           H          1.432485424567    -2.325783616957     0.784561212757     1.007825032070
           C          3.994517424567     0.015658383043     0.441901212757    12.000000000000
           H          3.811638424567    -2.100747616957     0.712210212757     1.007825032070
           H          3.234464424567    -1.173968616957     2.065745212757     1.007825032070
           H          4.012244424567     0.016216383043    -0.644815787243     1.007825032070
           H          3.536283424567     0.944127383043     0.765847212757     1.007825032070
           H          5.023528424567     0.023096383043     0.788421212757     1.007825032070

  Charge       = 0
  Multiplicity = 1
  Basis Set: 6-31G*
  Basis Set:

    Orbital Energies (a.u.)
    -----------------------

    Doubly Occupied:

       1A    -20.562968     2A    -11.326583     3A    -11.235147
       4A    -11.233402     5A    -11.221769     6A    -11.219521
       7A    -11.217180     8A    -11.215816     9A    -11.209622
      10A     -1.402847    11A     -1.103997    12A     -1.068849
      13A     -1.012063    14A     -0.942210    15A     -0.875396
      16A     -0.821530    17A     -0.786166    18A     -0.781320
      19A     -0.664962    20A     -0.655563    21A     -0.641073
      22A     -0.620251    23A     -0.607958    24A     -0.589566
      25A     -0.575889    26A     -0.547485    27A     -0.538342
      28A     -0.521533    29A     -0.512257    30A     -0.498938
      31A     -0.486610    32A     -0.474453    33A     -0.462971
      34A     -0.457278    35A     -0.440616    36A     -0.410203

  @DF-RHF Final Energy:  -387.11672901814086

   => Energetics <=

    Nuclear Repulsion Energy =            442.6349173497466154
    One-Electron Energy =               -1401.6188440528951560
    Two-Electron Energy =                 571.8671976850060901
    DFT Exchange-Correlation Energy =       0.0000000000000000
    Empirical Dispersion Energy =           0.0000000000000000
    PCM Polarization Energy =               0.0000000000000000
    EFP Energy =                            0.0000000000000000
    Total Energy =                       -387.1167290181424505

  Mulliken Charges: (a.u.)
   Center  Symbol    Alpha    Beta     Spin     Total
       1     H     0.43212  0.43212  0.00000  0.13575
       2     C     2.82981  2.82981  0.00000  0.34037
       3     C     3.20939  3.20939  0.00000 -0.41877
       4     O     4.23828  4.23828  0.00000 -0.47657
       5     C     3.16898  3.16898  0.00000 -0.33795
       6     H     0.39994  0.39994  0.00000  0.20012
       7     H     0.40757  0.40757  0.00000  0.18487
       8     C     3.16044  3.16044  0.00000 -0.32087
       9     H     0.41029  0.41029  0.00000  0.17941
      10     H     0.41712  0.41712  0.00000  0.16577
      11     C     3.15584  3.15584  0.00000 -0.31167
      12     H     0.41257  0.41257  0.00000  0.17486
      13     H     0.41812  0.41812  0.00000  0.16375
      14     C     3.15372  3.15372  0.00000 -0.30743
      15     H     0.42049  0.42049  0.00000  0.15901
      16     H     0.42308  0.42308  0.00000  0.15385
      17     C     3.15269  3.15269  0.00000 -0.30537
      18     H     0.42158  0.42158  0.00000  0.15684
      19     H     0.42193  0.42193  0.00000  0.15615
      20     C     3.24132  3.24132  0.00000 -0.48264
      21     H     0.42021  0.42021  0.00000  0.15958
      22     H     0.42364  0.42364  0.00000  0.15271
      23     H     0.42117  0.42117  0.00000  0.15766
      24     H     0.42084  0.42084  0.00000  0.15832
      25     H     0.41887  0.41887  0.00000  0.16225

   Total alpha = 36.00000, Total beta = 36.00000, Total charge =  0.00000
