                              Psi4 1.0.54 Driver

  ==> Input File <==

--------------------------------------------------------------------------
set {
	reference rhf
	basis cc-pvtz
}

set_num_threads( 4 )
memory 2 gb

molecule MOL {
0 1

O	 -2.071633	 -1.227563	 -0.223463
C	 -1.652164	 -0.152425	 0.058082
C	 -0.327811	 0.006324	 0.778296
C	 -2.402515	 1.108629	 -0.298924
C	 0.843231	 -0.001575	 -0.211665
H	 -0.319484	 0.928173	 1.350354
H	 -0.227804	 -0.823091	 1.466705
C	 2.197693	 0.138030	 0.476937
H	 0.722944	 0.805202	 -0.930230
H	 0.813976	 -0.926978	 -0.776588
C	 3.001736	 -1.157601	 0.472701
H	 2.771362	 0.920895	 -0.011479
H	 2.044575	 0.464877	 1.501273
H	 3.201336	 -1.491808	 -0.539968
H	 2.466551	 -1.951306	 0.982581
H	 3.954958	 -1.027577	 0.971564
H	 -3.240910	 0.874416	 -0.936711
H	 -1.747554	 1.818823	 -0.790984
H	 -2.760419	 1.579708	 0.610998

	symmetry c1
}
set optking {
	frozen_dihedral = ("
		11 8 5 9
	")
}

ee,wfn = optimize('scf', return_wfn=True)
oeprop( wfn, 'DIPOLE', 'QUADRUPOLE', 'MULLIKEN_CHARGES')
f=open( 'psi4out.xyz', 'w' )
f.write( "19  " )
f.write( str(ee) + "\n" )
f.write( MOL.save_string_xyz() )
f.close()
--------------------------------------------------------------------------

    Molecular point group: c1
  Charge       = 0
  Multiplicity = 1
  Basis Set: CC-PVTZ
  Basis Set:
  @DF-RHF Final Energy:  -309.17178841117561
    Total Energy =                       -309.1717884111753278
    Molecular point group: c1
  Basis Set: CC-PVTZ
  Basis Set:
  Basis Set: CC-PVTZ
  Basis Set:
  @DF-RHF Final Energy:  -309.17198999158717
    Total Energy =                       -309.1719899915866563
  Basis Set: CC-PVTZ
  Basis Set:
  Basis Set: CC-PVTZ
  Basis Set:
  @DF-RHF Final Energy:  -309.17185081486411
    Total Energy =                       -309.1718508148641149
  Basis Set: CC-PVTZ
  Basis Set:
  Basis Set: CC-PVTZ
  Basis Set:
  @DF-RHF Final Energy:  -309.17206529283357
    Total Energy =                       -309.1720652928340201
  Basis Set: CC-PVTZ
  Basis Set:
  Basis Set: CC-PVTZ
  Basis Set:
  @DF-RHF Final Energy:  -309.17210452061886
    Total Energy =                       -309.1721045206193139
  Basis Set: CC-PVTZ
  Basis Set:
  Basis Set: CC-PVTZ
  Basis Set:
  @DF-RHF Final Energy:  -309.17204397769672
    Total Energy =                       -309.1720439776969442
  Basis Set: CC-PVTZ
  Basis Set:
  Basis Set: CC-PVTZ
  Basis Set:
  @DF-RHF Final Energy:  -309.17213688940831
    Total Energy =                       -309.1721368894081365
  Basis Set: CC-PVTZ
  Basis Set:
  Charge       = 0
  Multiplicity = 1
  Basis Set: CC-PVTZ
  Basis Set:

    Orbital Energies (a.u.)
    -----------------------

    Doubly Occupied:

       1A    -20.537089     2A    -11.319400     3A    -11.228765
       4A    -11.228105     5A    -11.227018     6A    -11.222640
       7A    -11.212112     8A     -1.397136     9A     -1.090627
      10A     -1.029329    11A     -0.983622    12A     -0.892657
      13A     -0.805618    14A     -0.736640    15A     -0.656010
      16A     -0.654388    17A     -0.618771    18A     -0.610723
      19A     -0.594964    20A     -0.577454    21A     -0.545240
      22A     -0.534641    23A     -0.524398    24A     -0.499096
      25A     -0.481265    26A     -0.475371    27A     -0.464441
      28A     -0.399103

  @DF-RHF Final Energy:  -309.17213701517716

   => Energetics <=

    Nuclear Repulsion Energy =            303.0508151308379752
    One-Electron Energy =               -1019.3526563571493853
    Two-Electron Energy =                 407.1297042111342535
    DFT Exchange-Correlation Energy =       0.0000000000000000
    Empirical Dispersion Energy =           0.0000000000000000
    PCM Polarization Energy =               0.0000000000000000
    EFP Energy =                            0.0000000000000000
    Total Energy =                       -309.1721370151770998
    Molecular point group: c1
  Basis Set: CC-PVTZ
  Basis Set:

  -Total Gradient:
     Atom            X                  Y                   Z
    ------   -----------------  -----------------  -----------------
       1        0.000002806787    -0.000016914917    -0.000004843369
       2        0.000008974773     0.000034296064     0.000009228394
       3       -0.000020422138    -0.000001662218     0.000004812925
       4       -0.000001253607    -0.000004998279     0.000006947358
       5       -0.000846136205     0.002031311727     0.001481642851
       6       -0.000004340830    -0.000003669257    -0.000002525582
       7       -0.000006031251     0.000001306077    -0.000002322147
       8       -0.000756007179    -0.000853245033     0.001805146845
       9        0.000907976346    -0.001534161728    -0.001696282743
      10       -0.000002616509     0.000001601630     0.000004495532
      11        0.000698198811     0.000350523094    -0.001606811790
      12       -0.000001754557     0.000002009910    -0.000001450190
      13        0.000003679634     0.000001854478    -0.000000736348
      14        0.000011844560     0.000004460936    -0.000002878320
      15       -0.000004404853    -0.000008975127    -0.000004423116
      16       -0.000000517456    -0.000000255379     0.000011181066
      17        0.000007752343    -0.000003074165     0.000003128694
      18       -0.000000000879    -0.000000767371    -0.000001217104
      19        0.000002252203     0.000000359558    -0.000003092955

  **** Optimization is complete! (in 8 steps) ****
    Final optimized geometry and variables:
    Molecular point group: c1

    Geometry (in Angstrom), charge = 0, multiplicity = 1:

    O           -2.035293975359    -1.023950904799    -0.232095435585
    C           -1.600343453435     0.064305850572    -0.037666493199
    C           -0.251696853972     0.260544531294     0.625931990357
    C           -2.354799437347     1.304608300129    -0.453617957651
    C            0.887071122910     0.179989175757    -0.398504084555
    H           -0.219102874805     1.217688166681     1.135370584387
    H           -0.132225215691    -0.522790916757     1.363899856985
    C            2.285259354317     0.299205192125     0.239188545655
    H            0.759241889884     0.944285862045    -1.157924651941
    H            0.805830328628    -0.767000790715    -0.919736897505
    C            3.042736426584    -1.024805637925     0.283560453877
    H            2.876868601381     1.017217391799    -0.318123356886
    H            2.198465283405     0.700701421797     1.243545296635
    H            3.212063352914    -1.406618347501    -0.717059484032
    H            2.488531476442    -1.778253022780     0.833561001150
    H            4.007856201592    -0.907686619045     0.762997930801
    H           -3.214430546498     1.034954816703    -1.047620178156
    H           -1.712075837998     1.975870363302    -1.011945285784
    H           -2.681047034697     1.837290143120     0.433970071529

  Mulliken Charges: (a.u.)
   Center  Symbol    Alpha    Beta     Spin     Total
       1     O     4.17698  4.17698  0.00000 -0.35396
       2     C     2.85873  2.85873  0.00000  0.28254
       3     C     3.09883  3.09883  0.00000 -0.19766
       4     C     3.15520  3.15520  0.00000 -0.31041
       5     C     3.10692  3.10692  0.00000 -0.21384
       6     H     0.44846  0.44846  0.00000  0.10308
       7     H     0.43884  0.43884  0.00000  0.12232
       8     C     3.09051  3.09051  0.00000 -0.18102
       9     H     0.44506  0.44506  0.00000  0.10987
      10     H     0.44219  0.44219  0.00000  0.11561
      11     C     3.14615  3.14615  0.00000 -0.29230
      12     H     0.44811  0.44811  0.00000  0.10378
      13     H     0.45368  0.45368  0.00000  0.09264
      14     H     0.45344  0.45344  0.00000  0.09311
      15     H     0.45249  0.45249  0.00000  0.09501
      16     H     0.44895  0.44895  0.00000  0.10211
      17     H     0.43617  0.43617  0.00000  0.12765
      18     H     0.45087  0.45087  0.00000  0.09825
      19     H     0.44841  0.44841  0.00000  0.10318

   Total alpha = 28.00000, Total beta = 28.00000, Total charge = -0.00000

*** Psi4 exiting successfully. Buy a developer a beer!
