  ==> Input File <==

--------------------------------------------------------------------------
set {
	reference rhf
	basis 6-31G*
}

set_num_threads( 4 )
memory 2 gb

molecule MOL {
0 1

H	 3.022552	 -1.082859	 0.477708
N	 3.092854	 -0.246221	 -0.068770
C	 1.865559	 0.531981	 0.018834
H	 3.260686	 -0.531799	 -1.014871
C	 0.645745	 -0.382037	 -0.029944
H	 1.841966	 1.207024	 -0.831236
H	 1.815756	 1.155410	 0.915079
C	 -0.679275	 0.379305	 0.025956
H	 0.698998	 -0.976915	 -0.937203
H	 0.693479	 -1.083846	 0.802235
C	 -1.903357	 -0.536963	 -0.023547
H	 -0.726309	 1.082987	 -0.803784
H	 -0.717680	 0.977832	 0.934877
C	 -3.225172	 0.228290	 0.028445
H	 -1.867824	 -1.134999	 -0.931459
H	 -1.860449	 -1.239604	 0.805977
H	 -3.313397	 0.915643	 -0.808262
H	 -4.073500	 -0.448134	 -0.008893
H	 -3.306061	 0.809945	 0.942516

	symmetry c1
}
set optking {
	frozen_dihedral = ("
		1 2 3 6
	")
}

ee = optimize('scf')
oeprop('DIPOLE', 'QUADRUPOLE', 'MULLIKEN_CHARGES')
f=open( 'psi4out.xyz', 'w' )
f.write( "19  " )
f.write( str(ee) + "\n" )
f.write( MOL.save_string_xyz() )
f.close()
--------------------------------------------------------------------------

    Molecular point group: c1
  Charge       = 0
  Multiplicity = 1
  Basis Set: 6-31G*
  Basis Set:
  @DF-RHF Final Energy:  -251.34880785846070
    Total Energy =                       -251.3488078584607024
    Molecular point group: c1
  Basis Set: 6-31G*
  Basis Set:
  Basis Set: 6-31G*
  Basis Set:
  @DF-RHF Final Energy:  -251.35036153211166
    Total Energy =                       -251.3503615321117195
  Basis Set: 6-31G*
  Basis Set:
  Basis Set: 6-31G*
  Basis Set:
  @DF-RHF Final Energy:  -251.35059331602994
    Total Energy =                       -251.3505933160296877
  Basis Set: 6-31G*
  Basis Set:
  Basis Set: 6-31G*
  Basis Set:
  @DF-RHF Final Energy:  -251.35059637044426
    Total Energy =                       -251.3505963704442934
  Basis Set: 6-31G*
  Basis Set:
  Charge       = 0
  Multiplicity = 1
  Basis Set: 6-31G*
  Basis Set:

    Orbital Energies (a.u.)
    -----------------------

    Doubly Occupied:

       1A    -15.532764     2A    -11.239954     3A    -11.217310
       4A    -11.216316     5A    -11.214707     6A    -11.209868
       7A     -1.177150     8A     -1.076029     9A     -1.000367
      10A     -0.901668    11A     -0.819606    12A     -0.793368
      13A     -0.676811    14A     -0.638495    15A     -0.600149
      16A     -0.587750    17A     -0.573635    18A     -0.556489
      19A     -0.522201    20A     -0.504220    21A     -0.481940
      22A     -0.471318    23A     -0.467455    24A     -0.464197
      25A     -0.376268

  @DF-RHF Final Energy:  -251.35059663730516

   => Energetics <=

    Nuclear Repulsion Energy =            245.4296240201375099
    One-Electron Energy =                -824.9203664221273584
    Two-Electron Energy =                 328.1401457646845188
    DFT Exchange-Correlation Energy =       0.0000000000000000
    Empirical Dispersion Energy =           0.0000000000000000
    PCM Polarization Energy =               0.0000000000000000
    EFP Energy =                            0.0000000000000000
    Total Energy =                       -251.3505966373052729
    Molecular point group: c1
  Basis Set: 6-31G*
  Basis Set:

  -Total Gradient:
     Atom            X                  Y                   Z
    ------   -----------------  -----------------  -----------------
       1       -0.000932436018    -0.001553011062    -0.002507375137
       2        0.000860573334     0.001480590702     0.002760627792
       3        0.001235209104     0.002073880005     0.001343430561
       4       -0.000001786090     0.000002679033    -0.000008702555
       5        0.000042200731     0.000012114550     0.000010100886
       6       -0.001159638914    -0.002013633244    -0.001588966839
       7       -0.000004034728     0.000005036089     0.000008310403
       8        0.000020623538    -0.000009481389    -0.000012149050
       9       -0.000005789194     0.000001432609     0.000014761552
      10        0.000002415576    -0.000005260521    -0.000003677729
      11       -0.000031139820     0.000014926353    -0.000017701894
      12        0.000003191864    -0.000006749566    -0.000000332268
      13       -0.000009100853     0.000002290772    -0.000010840792
      14       -0.000017621853    -0.000018157093     0.000019735099
      15       -0.000001119095     0.000010187100    -0.000005015285
      16        0.000004728898    -0.000000234836    -0.000007462105
      17        0.000002933626    -0.000007551290    -0.000002664497
      18       -0.000007966212     0.000004634147     0.000007040352
      19       -0.000001243895     0.000006307640     0.000000881505

  **** Optimization is complete! (in 5 steps) ****
    Final optimized geometry and variables:
    Molecular point group: c1

    Geometry (in Angstrom), charge = 0, multiplicity = 1:

    H            3.116224929653    -1.031023205060     0.501104868432
    N            3.152843438753    -0.182347728693    -0.032005249982
    C            1.871929728458     0.511992506142     0.021231702774
    H            3.354400406167    -0.459983664960    -0.973563951195
    C            0.638843953017    -0.394558112692    -0.028038048434
    H            1.834827841468     1.197417077458    -0.819956195500
    H            1.842852837074     1.114883253715     0.923959458014
    C           -0.679862709125     0.378434951382     0.028172555368
    H            0.673484698706    -0.993199869013    -0.937388673802
    H            0.681083031858    -1.097389294822     0.803696944378
    C           -1.914641405955    -0.524023492988    -0.010144785367
    H           -0.722855745503     1.079042997510    -0.804327070121
    H           -0.705381927863     0.981745327299     0.934128922946
    C           -3.227222783022     0.256462044181     0.049180866109
    H           -1.892968642322    -1.125102324053    -0.916683993433
    H           -1.873755422144    -1.224595200561     0.821148135846
    H           -3.314369898210     0.941380383152    -0.789569937594
    H           -4.083351446811    -0.410521146994     0.021489359361
    H           -3.293949011230     0.842525874316     0.961454561857

  Mulliken Charges: (a.u.)
   Center  Symbol    Alpha    Beta     Spin     Total
       1     H     0.33532  0.33532  0.00000  0.32936
       2     N     3.91852  3.91852  0.00000 -0.83703
       3     C     3.05861  3.05861  0.00000 -0.11723
       4     H     0.33507  0.33507  0.00000  0.32986
       5     C     3.16108  3.16108  0.00000 -0.32217
       6     H     0.42146  0.42146  0.00000  0.15709
       7     H     0.41840  0.41840  0.00000  0.16319
       8     C     3.15471  3.15471  0.00000 -0.30943
       9     H     0.42640  0.42640  0.00000  0.14720
      10     H     0.42637  0.42637  0.00000  0.14725
      11     C     3.15083  3.15083  0.00000 -0.30165
      12     H     0.42344  0.42344  0.00000  0.15313
      13     H     0.42241  0.42241  0.00000  0.15517
      14     C     3.23941  3.23941  0.00000 -0.47882
      15     H     0.42307  0.42307  0.00000  0.15386
      16     H     0.42282  0.42282  0.00000  0.15436
      17     H     0.42161  0.42161  0.00000  0.15679
      18     H     0.41908  0.41908  0.00000  0.16183
      19     H     0.42138  0.42138  0.00000  0.15724

   Total alpha = 25.00000, Total beta = 25.00000, Total charge = -0.00000
