  ==> Input File <==

--------------------------------------------------------------------------
set {
	reference rhf
	basis 6-31G*
}

set_num_threads( 4 )
memory 2 gb

molecule MOL {
0 1

O	 0.915421	 4.411924	 -0.442951
C	 -0.157415	 4.872914	 -0.686406
C	 -1.420760	 4.030978	 -0.679983
C	 -0.328156	 6.340725	 -1.020370
C	 -1.187391	 2.562202	 -0.338709
H	 -2.119014	 4.483309	 0.023030
H	 -1.891577	 4.129051	 -1.657283
C	 -2.481556	 1.746794	 -0.341757
H	 -0.710561	 2.494424	 0.634003
H	 -0.483060	 2.139650	 -1.048298
C	 -2.259874	 0.272531	 0.000494
H	 -3.184600	 2.178049	 0.369436
H	 -2.955365	 1.820447	 -1.319586
C	 -3.549786	 -0.549746	 -0.000374
H	 -1.786914	 0.197673	 0.978106
H	 -1.557896	 -0.159841	 -0.710334
C	 -4.809590	 0.315458	 -0.000369
H	 -3.560515	 -1.202009	 -0.871156
H	 -3.561123	 -1.202955	 0.869711
H	 -4.844746	 0.956611	 -0.876632
H	 -5.706986	 -0.295590	 -0.001609
H	 -4.845960	 0.954827	 0.877144
H	 -1.000759	 6.814931	 -0.311601
H	 0.632773	 6.835372	 -0.992548
H	 -0.766696	 6.455988	 -2.007301

	symmetry c1
}
set optking {
	frozen_dihedral = ("
		15 11 14 18
	")
}

ee = optimize('scf')
oeprop('DIPOLE', 'QUADRUPOLE', 'MULLIKEN_CHARGES')
f=open( 'psi4out.xyz', 'w' )
f.write( "25  " )
f.write( str(ee) + "\n" )
f.write( MOL.save_string_xyz() )
f.close()
--------------------------------------------------------------------------

    Molecular point group: c1
  Charge       = 0
  Multiplicity = 1
  Basis Set: 6-31G*
  Basis Set:
  @DF-RHF Final Energy:  -387.12385325477015
    Total Energy =                       -387.1238532547699833
    Molecular point group: c1
  Basis Set: 6-31G*
  Basis Set:
  Basis Set: 6-31G*
  Basis Set:
  @DF-RHF Final Energy:  -387.12453244000557
    Total Energy =                       -387.1245324400053960
  Basis Set: 6-31G*
  Basis Set:
  Basis Set: 6-31G*
  Basis Set:
  @DF-RHF Final Energy:  -387.12764500183994
    Total Energy =                       -387.1276450018405058
  Basis Set: 6-31G*
  Basis Set:
  Basis Set: 6-31G*
  Basis Set:
  @DF-RHF Final Energy:  -387.12805786499064
    Total Energy =                       -387.1280578649901827
  Basis Set: 6-31G*
  Basis Set:
  @DF-RHF Final Energy:  -387.12810557481293
    Total Energy =                       -387.1281055748129347
  Basis Set: 6-31G*
  Basis Set:
  @DF-RHF Final Energy:  -387.12794497524732
    Total Energy =                       -387.1279449752479422
  Basis Set: 6-31G*
  Basis Set:
  Basis Set: 6-31G*
  Basis Set:
  @DF-RHF Final Energy:  -387.12811595275343
    Total Energy =                       -387.1281159527535465
  Basis Set: 6-31G*
  Basis Set:
  Basis Set: 6-31G*
  Basis Set:
  @DF-RHF Final Energy:  -387.12811797548204
    Total Energy =                       -387.1281179754821551
  Basis Set: 6-31G*
  Basis Set:
  Charge       = 0
  Multiplicity = 1
  Basis Set: 6-31G*
  Basis Set:

    Orbital Energies (a.u.)
    -----------------------

    Doubly Occupied:

       1A    -20.550422     2A    -11.326268     3A    -11.231814
       4A    -11.228316     5A    -11.216960     6A    -11.216369
       7A    -11.215794     8A    -11.213816     9A    -11.209437
      10A     -1.395729    11A     -1.092254    12A     -1.053369
      13A     -1.013157    14A     -0.967049    15A     -0.897657
      16A     -0.827199    17A     -0.772667    18A     -0.729164
      19A     -0.659695    20A     -0.651838    21A     -0.627779
      22A     -0.623940    23A     -0.598955    24A     -0.593540
      25A     -0.560182    26A     -0.556434    27A     -0.549487
      28A     -0.521317    29A     -0.512014    30A     -0.494782
      31A     -0.490394    32A     -0.477581    33A     -0.459092
      34A     -0.452507    35A     -0.446701    36A     -0.399533

  @DF-RHF Final Energy:  -387.12811864836556

   => Energetics <=

    Nuclear Repulsion Energy =            443.1212075961115033
    One-Electron Energy =               -1402.8322318137616094
    Two-Electron Energy =                 572.5829055692844349
    DFT Exchange-Correlation Energy =       0.0000000000000000
    Empirical Dispersion Energy =           0.0000000000000000
    PCM Polarization Energy =               0.0000000000000000
    EFP Energy =                            0.0000000000000000
    Total Energy =                       -387.1281186483656711
    Molecular point group: c1
  Basis Set: 6-31G*
  Basis Set:

  -Total Gradient:
     Atom            X                  Y                   Z
    ------   -----------------  -----------------  -----------------
       1       -0.000004704147     0.000003538898    -0.000024665346
       2       -0.000007326946     0.000022463734     0.000058535204
       3        0.000002753495    -0.000022227076    -0.000036939693
       4        0.000013956384    -0.000000011650    -0.000021143127
       5        0.000010651489    -0.000037075237     0.000005505378
       6        0.000005799992     0.000000078385    -0.000000232236
       7       -0.000001876633     0.000006289630     0.000003261903
       8        0.000018537278     0.000023596886     0.000028865111
       9        0.000005327315     0.000005486357    -0.000006206271
      10        0.000021024858     0.000004127580     0.000008924201
      11       -0.002980816049     0.004086941517     0.002803031588
      12        0.000039199865    -0.000022003144    -0.000004127220
      13       -0.000032306823    -0.000007558434    -0.000015236445
      14       -0.002564784497     0.003529403218    -0.003763801170
      15        0.002972402917    -0.003915704830    -0.001723884328
      16       -0.000031755406     0.000042659025     0.000012673076
      17        0.000005906223    -0.000035606460     0.000027839703
      18        0.002526314207    -0.003712673234     0.002668910979
      19       -0.000018503473     0.000056160849    -0.000017200739
      20        0.000030089359     0.000012723477    -0.000006941344
      21        0.000015685253    -0.000020505382    -0.000017171043
      22       -0.000027588843    -0.000024704255     0.000019280323
      23        0.000000562559    -0.000002905386     0.000000894194
      24        0.000000946428     0.000007118070    -0.000002330632
      25        0.000000505196     0.000000387454     0.000002157933

  **** Optimization is complete! (in 9 steps) ****
    Final optimized geometry and variables:
    Molecular point group: c1

    Geometry (in Angstrom), charge = 0, multiplicity = 1:

    O            2.656174651053     1.724970634424    -0.023786532756
    C            1.600794934588     2.209563441534    -0.295967669293
    C            0.316920836108     1.399267085840    -0.308790338526
    C            1.474276946728     3.677220895097    -0.649787135406
    C            0.505981574876    -0.070942232939     0.053390468147
    H           -0.385057911299     1.876857948949     0.373487289458
    H           -0.129462250405     1.498077532367    -1.297408332289
    C           -0.808540801803    -0.853705361060     0.029239923138
    H            0.958373559151    -0.139412597371     1.037709758065
    H            1.216172325315    -0.518177842743    -0.634820333330
    C           -0.608251122127    -2.326523700981     0.393116182109
    H           -1.513728174262    -0.390985559236     0.715112210229
    H           -1.252739736054    -0.780126632302    -0.961902642740
    C           -1.860710884125    -3.239401676299     0.348868104383
    H           -0.138065985020    -2.403792554900     1.370328451608
    H            0.129416633057    -2.739873561324    -0.291159314976
    C           -3.223895050929    -2.553394266082     0.448609186431
    H           -1.823955338472    -3.859434469230    -0.542627997652
    H           -1.784930230680    -3.947633919102     1.170202012912
    H           -3.403353831044    -1.875046064833    -0.378653595018
    H           -4.016022415060    -3.295798147307     0.439826399485
    H           -3.318873413137    -1.986255841832     1.369842386016
    H            0.798654979267     4.176184748445     0.038828828743
    H            2.446485763880     4.148129980083    -0.606375761095
    H            1.060185173710     3.791953679929    -1.647284153912

  Mulliken Charges: (a.u.)
   Center  Symbol    Alpha    Beta     Spin     Total
       1     O     4.26117  4.26117  0.00000 -0.52234
       2     C     2.73570  2.73570  0.00000  0.52860
       3     C     3.21069  3.21069  0.00000 -0.42138
       4     C     3.28665  3.28665  0.00000 -0.57331
       5     C     3.14813  3.14813  0.00000 -0.29627
       6     H     0.41003  0.41003  0.00000  0.17994
       7     H     0.41011  0.41011  0.00000  0.17978
       8     C     3.15598  3.15598  0.00000 -0.31195
       9     H     0.41213  0.41213  0.00000  0.17574
      10     H     0.41217  0.41217  0.00000  0.17566
      11     C     3.15635  3.15635  0.00000 -0.31270
      12     H     0.42252  0.42252  0.00000  0.15496
      13     H     0.42436  0.42436  0.00000  0.15129
      14     C     3.15493  3.15493  0.00000 -0.30985
      15     H     0.42030  0.42030  0.00000  0.15941
      16     H     0.42043  0.42043  0.00000  0.15914
      17     C     3.24178  3.24178  0.00000 -0.48355
      18     H     0.42081  0.42081  0.00000  0.15838
      19     H     0.42053  0.42053  0.00000  0.15895
      20     H     0.42075  0.42075  0.00000  0.15849
      21     H     0.41896  0.41896  0.00000  0.16208
      22     H     0.42162  0.42162  0.00000  0.15676
      23     H     0.40874  0.40874  0.00000  0.18252
      24     H     0.39646  0.39646  0.00000  0.20708
      25     H     0.40871  0.40871  0.00000  0.18258

   Total alpha = 36.00000, Total beta = 36.00000, Total charge = -0.00000
