  ==> Input File <==

--------------------------------------------------------------------------
set {
	reference rhf
	basis 6-31G*
}

set_num_threads( 1 )
memory 2 gb

molecule MOL {
0 1

O	 0.923486	 4.398267	 0.508661
C	 -0.145403	 4.852523	 0.780480
C	 -1.409005	 4.011007	 0.770499
C	 -0.310596	 6.310881	 1.156056
C	 -1.181702	 2.552514	 0.384018
H	 -1.863895	 4.081271	 1.757680
H	 -2.118398	 4.483021	 0.091996
C	 -2.475874	 1.737112	 0.385301
H	 -0.465931	 2.110210	 1.069706
H	 -0.720939	 2.512335	 -0.597934
C	 -2.259874	 0.272531	 0.000494
H	 -2.934443	 1.784568	 1.371967
H	 -3.189761	 2.187073	 -0.303151
C	 -3.549786	 -0.549746	 -0.000374
H	 -1.546934	 -0.178480	 0.688480
H	 -1.802298	 0.223846	 -0.986041
C	 -4.809590	 0.315458	 -0.000369
H	 -3.560515	 -1.202009	 -0.871156
H	 -3.561123	 -1.202955	 0.869711
H	 -4.844746	 0.956611	 -0.876632
H	 -5.706986	 -0.295590	 -0.001609
H	 -4.845960	 0.954827	 0.877144
H	 -0.737958	 6.400074	 2.150553
H	 0.650512	 6.805304	 1.130517
H	 -0.990511	 6.804477	 0.467789

	symmetry c1
}
set optking {
	frozen_dihedral = ("
		9 5 8 12,
		15 11 8 12,
		1 2 3 6,
		9 5 3 6
	")
}

ee = energy('scf')
oeprop('DIPOLE', 'QUADRUPOLE', 'MULLIKEN_CHARGES')
f=open( 'psi4out.xyz', 'w' )
f.write( "25  " )
f.write( str(ee) + "\n" )
f.write( MOL.save_string_xyz() )
f.close()
--------------------------------------------------------------------------

    Molecular point group: c1

    Geometry (in Angstrom), charge = 0, multiplicity = 1:

       Center              X                  Y                   Z               Mass
    ------------   -----------------  -----------------  -----------------  -----------------
           O          2.620877501613     1.736024062457     0.065781404104    15.994914619560
           C          1.551988501613     2.190280062457     0.337600404104    12.000000000000
           C          0.288386501613     1.348764062457     0.327619404104    12.000000000000
           C          1.386795501613     3.648638062457     0.713176404104    12.000000000000
           C          0.515689501613    -0.109728937543    -0.058861595896    12.000000000000
           H         -0.166503498387     1.419028062457     1.314800404104     1.007825032070
           H         -0.421006498387     1.820778062457    -0.350883595896     1.007825032070
           C         -0.778482498387    -0.925130937543    -0.057578595896    12.000000000000
           H          1.231460501613    -0.552032937543     0.626826404104     1.007825032070
           H          0.976452501613    -0.149907937543    -1.040813595896     1.007825032070
           C         -0.562482498387    -2.389711937543    -0.442385595896    12.000000000000
           H         -1.237051498387    -0.877674937543     0.929087404104     1.007825032070
           H         -1.492369498387    -0.475169937543    -0.746030595896     1.007825032070
           C         -1.852394498387    -3.211988937543    -0.443253595896    12.000000000000
           H          0.150457501613    -2.840722937543     0.245600404104     1.007825032070
           H         -0.104906498387    -2.438396937543    -1.428920595896     1.007825032070
           C         -3.112198498387    -2.346784937543    -0.443248595896    12.000000000000
           H         -1.863123498387    -3.864251937543    -1.314035595896     1.007825032070
           H         -1.863731498387    -3.865197937543     0.426831404104     1.007825032070
           H         -3.147354498387    -1.705631937543    -1.319511595896     1.007825032070
           H         -4.009594498387    -2.957832937543    -0.444488595896     1.007825032070
           H         -3.148568498387    -1.707415937543     0.434264404104     1.007825032070
           H          0.959433501613     3.737831062457     1.707673404104     1.007825032070
           H          2.347903501613     4.143061062457     0.687637404104     1.007825032070
           H          0.706880501613     4.142234062457     0.024909404104     1.007825032070

  Charge       = 0
  Multiplicity = 1
  Basis Set: 6-31G*
  Basis Set:

    Orbital Energies (a.u.)
    -----------------------

    Doubly Occupied:

       1A    -20.550141     2A    -11.325979     3A    -11.231412
       4A    -11.228141     5A    -11.215788     6A    -11.215087
       7A    -11.214211     8A    -11.212236     9A    -11.208072
      10A     -1.395442    11A     -1.095658    12A     -1.056868
      13A     -1.012018    14A     -0.963306    15A     -0.899369
      16A     -0.829586    17A     -0.768474    18A     -0.728870
      19A     -0.661758    20A     -0.652180    21A     -0.631279
      22A     -0.624329    23A     -0.602441    24A     -0.592857
      25A     -0.558074    26A     -0.555457    27A     -0.550868
      28A     -0.525029    29A     -0.510874    30A     -0.492061
      31A     -0.490124    32A     -0.478223    33A     -0.459435
      34A     -0.452118    35A     -0.445068    36A     -0.399206

  @DF-RHF Final Energy:  -387.12429078982689

   => Energetics <=

    Nuclear Repulsion Energy =            446.5908012270982681
    One-Electron Energy =               -1409.7660621019829250
    Two-Electron Energy =                 576.0509700850604986
    DFT Exchange-Correlation Energy =       0.0000000000000000
    Empirical Dispersion Energy =           0.0000000000000000
    PCM Polarization Energy =               0.0000000000000000
    EFP Energy =                            0.0000000000000000
    Total Energy =                       -387.1242907898241583

  Mulliken Charges: (a.u.)
   Center  Symbol    Alpha    Beta     Spin     Total
       1     O     4.26122  4.26122  0.00000 -0.52244
       2     C     2.73568  2.73568  0.00000  0.52864
       3     C     3.21073  3.21073  0.00000 -0.42147
       4     C     3.28660  3.28660  0.00000 -0.57319
       5     C     3.14566  3.14566  0.00000 -0.29132
       6     H     0.41031  0.41031  0.00000  0.17939
       7     H     0.41028  0.41028  0.00000  0.17944
       8     C     3.16094  3.16094  0.00000 -0.32188
       9     H     0.41267  0.41267  0.00000  0.17466
      10     H     0.41265  0.41265  0.00000  0.17471
      11     C     3.15436  3.15436  0.00000 -0.30872
      12     H     0.42394  0.42394  0.00000  0.15213
      13     H     0.42127  0.42127  0.00000  0.15746
      14     C     3.15394  3.15394  0.00000 -0.30787
      15     H     0.41943  0.41943  0.00000  0.16114
      16     H     0.42055  0.42055  0.00000  0.15890
      17     C     3.24600  3.24600  0.00000 -0.49199
      18     H     0.41962  0.41962  0.00000  0.16076
      19     H     0.42093  0.42093  0.00000  0.15815
      20     H     0.42130  0.42130  0.00000  0.15741
      21     H     0.41811  0.41811  0.00000  0.16377
      22     H     0.41977  0.41977  0.00000  0.16046
      23     H     0.40880  0.40880  0.00000  0.18241
      24     H     0.39651  0.39651  0.00000  0.20697
      25     H     0.40875  0.40875  0.00000  0.18250

   Total alpha = 36.00000, Total beta = 36.00000, Total charge = -0.00000
