                              Psi4 1.0.54 Driver

  ==> Input File <==

--------------------------------------------------------------------------
set {
	reference rhf
	basis cc-pvtz
}

set_num_threads( 4 )
memory 2 gb

molecule MOL {
0 1

H	 3.083659	 -1.378387	 0.000000
O	 2.179005	 -1.633391	 0.000000
C	 1.366950	 -0.558201	 0.000000
C	 0.041581	 -0.631158	 0.400944
C	 1.895348	 0.646119	 -0.417648
H	 -0.368412	 -1.570134	 0.725997
C	 -0.751256	 0.498469	 0.383422
H	 2.918591	 0.705721	 -0.727913
C	 1.093731	 1.773313	 -0.432087
H	 -1.775234	 0.430015	 0.695842
C	 -0.230336	 1.707048	 -0.032989
C	 1.650764	 3.076645	 -0.879770
H	 -0.844420	 2.587146	 -0.047692
O	 2.764701	 3.245578	 -1.240360
H	 0.941163	 3.909422	 -0.856351

	symmetry c1
}
set optking {
	frozen_dihedral = ("
		4 3 2 1
	")
}

ee,wfn = optimize('scf', return_wfn=True)
oeprop( wfn, 'DIPOLE', 'QUADRUPOLE', 'MULLIKEN_CHARGES')
f=open( 'psi4out.xyz', 'w' )
f.write( "15  " )
f.write( str(ee) + "\n" )
f.write( MOL.save_string_xyz() )
f.close()
--------------------------------------------------------------------------

    Molecular point group: c1
  Charge       = 0
  Multiplicity = 1
  Basis Set: CC-PVTZ
  Basis Set:
  @DF-RHF Final Energy:  -418.43768086802339
    Total Energy =                       -418.4376808680233353
    Molecular point group: c1
  Basis Set: CC-PVTZ
  Basis Set:
  Basis Set: CC-PVTZ
  Basis Set:
  @DF-RHF Final Energy:  -418.43951208596701
    Total Energy =                       -418.4395120859674080
  Basis Set: CC-PVTZ
  Basis Set:
  Basis Set: CC-PVTZ
  Basis Set:
  @DF-RHF Final Energy:  -418.43955222919413
    Total Energy =                       -418.4395522291940779
  Basis Set: CC-PVTZ
  Basis Set:
  Basis Set: CC-PVTZ
  Basis Set:
  @DF-RHF Final Energy:  -418.43920488586343
    Total Energy =                       -418.4392048858635462
  Basis Set: CC-PVTZ
  Basis Set:
  Basis Set: CC-PVTZ
  Basis Set:
  @DF-RHF Final Energy:  -418.43969069043573
    Total Energy =                       -418.4396906904357820
  Basis Set: CC-PVTZ
  Basis Set:
  Charge       = 0
  Multiplicity = 1
  Basis Set: CC-PVTZ
  Basis Set:

    Orbital Energies (a.u.)
    -----------------------

    Doubly Occupied:

       1A    -20.593873     2A    -20.556619     3A    -11.329995
       4A    -11.310726     5A    -11.252050     6A    -11.249228
       7A    -11.245040     8A    -11.243205     9A    -11.241742
      10A     -1.425205    11A     -1.412271    12A     -1.174655
      13A     -1.053246    14A     -1.029682    15A     -0.903837
      16A     -0.857112    17A     -0.799829    18A     -0.758578
      19A     -0.704109    20A     -0.672484    21A     -0.665723
      22A     -0.633917    23A     -0.617726    24A     -0.611405
      25A     -0.574198    26A     -0.558754    27A     -0.539147
      28A     -0.520432    29A     -0.492569    30A     -0.429182
      31A     -0.358097    32A     -0.333211

  @DF-RHF Final Energy:  -418.43969488089590

   => Energetics <=

    Nuclear Repulsion Energy =            404.1951515744159451
    One-Electron Energy =               -1370.9740029012500599
    Two-Electron Energy =                 548.3391564459384426
    DFT Exchange-Correlation Energy =       0.0000000000000000
    Empirical Dispersion Energy =           0.0000000000000000
    PCM Polarization Energy =               0.0000000000000000
    EFP Energy =                            0.0000000000000000
    Total Energy =                       -418.4396948808956722
    Molecular point group: c1
  Basis Set: CC-PVTZ
  Basis Set:

  -Total Gradient:
     Atom            X                  Y                   Z
    ------   -----------------  -----------------  -----------------
       1        0.000034557924     0.000039623438     0.002066158047
       2        0.000159419909     0.000090069378    -0.001936290057
       3       -0.000810744121    -0.000424151060    -0.001447174466
       4        0.000668052049     0.000130532547     0.001345240848
       5       -0.000071468810     0.000182745058    -0.000044477124
       6        0.000024456333     0.000015269343    -0.000006969950
       7       -0.000034414860     0.000417530879    -0.000090024589
       8        0.000016923403     0.000012120769    -0.000000047012
       9        0.000376857282    -0.000126284523    -0.000023669668
      10       -0.000000578056    -0.000026076630     0.000005832259
      11       -0.000327961870    -0.000255348753     0.000152994656
      12       -0.000233485988    -0.000091971814    -0.000036714861
      13        0.000026879550     0.000015403100    -0.000016300394
      14        0.000151893054     0.000012909456    -0.000001715361
      15        0.000019614198     0.000007628815     0.000033157671

  **** Optimization is complete! (in 6 steps) ****
    Final optimized geometry and variables:
    Molecular point group: c1

    Geometry (in Angstrom), charge = 0, multiplicity = 1:

    H            1.860305877290    -2.382379293301     0.262821613927
    O            0.939242739715    -2.572571650850     0.264093449431
    C            0.209746012692    -1.437687552470     0.243374017935
    C           -1.112336246741    -1.520437384304     0.664259122494
    C            0.725454517476    -0.232260835050    -0.173091765745
    H           -1.491549134219    -2.468572812569     0.991210790812
    C           -1.909705741978    -0.399850984295     0.653325596151
    H            1.743173431060    -0.147960809061    -0.503218129515
    C           -0.083043658021     0.896620000448    -0.172015184416
    H           -2.929823898499    -0.472853033307     0.977162082176
    C           -1.398428731529     0.818778316494     0.235785320278
    C            0.467190275039     2.201764636625    -0.616470633167
    H           -2.018610848679     1.694864335558     0.231004582040
    O            1.581490870309     2.374223581089    -0.976926345132
    H           -0.244819957913     3.032175192211    -0.589989717257

  Mulliken Charges: (a.u.)
   Center  Symbol    Alpha    Beta     Spin     Total
       1     H     0.38393  0.38393  0.00000  0.23214
       2     O     4.17507  4.17507  0.00000 -0.35015
       3     C     2.84472  2.84472  0.00000  0.31057
       4     C     3.10164  3.10164  0.00000 -0.20327
       5     C     3.14058  3.14058  0.00000 -0.28116
       6     H     0.41491  0.41491  0.00000  0.17019
       7     C     3.05709  3.05709  0.00000 -0.11418
       8     H     0.41572  0.41572  0.00000  0.16856
       9     C     2.98016  2.98016  0.00000  0.03968
      10     H     0.41930  0.41930  0.00000  0.16141
      11     C     3.10727  3.10727  0.00000 -0.21453
      12     C     2.90927  2.90927  0.00000  0.18145
      13     H     0.42304  0.42304  0.00000  0.15393
      14     O     4.17223  4.17223  0.00000 -0.34446
      15     H     0.45508  0.45508  0.00000  0.08984

   Total alpha = 32.00000, Total beta = 32.00000, Total charge =  0.00000

*** Psi4 exiting successfully. Buy a developer a beer!
