  ==> Input File <==

--------------------------------------------------------------------------
set {
	reference rhf
	basis 6-31G*
}

set_num_threads( 1 )
memory 2 gb

molecule MOL {
0 1

H	 -3.093163	 -0.371167	 -1.548326
O	 -3.452007	 0.283848	 -0.965577
C	 -3.181085	 -0.079926	 0.364119
C	 -1.765924	 0.277073	 0.805136
H	 -3.327791	 -1.152017	 0.410903
H	 -3.905698	 0.375695	 1.036898
C	 -0.677594	 -0.417312	 -0.014550
H	 -1.637766	 1.358238	 0.744969
H	 -1.659588	 0.017670	 1.857098
C	 0.738335	 -0.034840	 0.421385
H	 -0.814977	 -0.178223	 -1.064632
H	 -0.802730	 -1.495410	 0.071702
C	 1.822265	 -0.738362	 -0.399735
H	 0.853533	 1.043532	 0.342250
H	 0.871597	 -0.279636	 1.474438
C	 3.258060	 -0.455774	 0.057203
H	 1.718003	 -0.459167	 -1.447053
H	 1.651028	 -1.811884	 -0.354513
C	 3.709143	 0.994797	 -0.123830
H	 3.930637	 -1.101717	 -0.501982
H	 3.365259	 -0.739518	 1.102287
H	 3.601178	 1.310569	 -1.158127
H	 4.753787	 1.110486	 0.148516
H	 3.135362	 1.678896	 0.492569

	symmetry c1
}
set optking {
	frozen_dihedral = ("
		20 16 13 17,
		17 13 10 7,
		13 10 7 11,
		11 7 4 3,
		7 4 3 2
	")
}

ee = energy('scf')
oeprop('DIPOLE', 'QUADRUPOLE', 'MULLIKEN_CHARGES')
f=open( 'psi4out.xyz', 'w' )
f.write( "24  " )
f.write( str(ee) + "\n" )
f.write( MOL.save_string_xyz() )
f.close()
--------------------------------------------------------------------------

    Molecular point group: c1

    Geometry (in Angstrom), charge = 0, multiplicity = 1:

       Center              X                  Y                   Z               Mass
    ------------   -----------------  -----------------  -----------------  -----------------
           H         -3.096005846359    -0.357292708451    -1.543951100182     1.007825032070
           O         -3.454849846359     0.297722291549    -0.961202100182    15.994914619560
           C         -3.183927846359    -0.066051708451     0.368493899818    12.000000000000
           C         -1.768766846359     0.290947291549     0.809510899818    12.000000000000
           H         -3.330633846359    -1.138142708451     0.415277899818     1.007825032070
           H         -3.908540846359     0.389569291549     1.041272899818     1.007825032070
           C         -0.680436846359    -0.403437708451    -0.010175100182    12.000000000000
           H         -1.640608846359     1.372112291549     0.749343899818     1.007825032070
           H         -1.662430846359     0.031544291549     1.861472899818     1.007825032070
           C          0.735492153641    -0.020965708451     0.425759899818    12.000000000000
           H         -0.817819846359    -0.164348708451    -1.060257100182     1.007825032070
           H         -0.805572846359    -1.481535708451     0.076076899818     1.007825032070
           C          1.819422153641    -0.724487708451    -0.395360100182    12.000000000000
           H          0.850690153641     1.057406291549     0.346624899818     1.007825032070
           H          0.868754153641    -0.265761708451     1.478812899818     1.007825032070
           C          3.255217153641    -0.441899708451     0.061577899818    12.000000000000
           H          1.715160153641    -0.445292708451    -1.442678100182     1.007825032070
           H          1.648185153641    -1.798009708451    -0.350138100182     1.007825032070
           C          3.706300153641     1.008671291549    -0.119455100182    12.000000000000
           H          3.927794153641    -1.087842708451    -0.497607100182     1.007825032070
           H          3.362416153641    -0.725643708451     1.106661899818     1.007825032070
           H          3.598335153641     1.324443291549    -1.153752100182     1.007825032070
           H          4.750944153641     1.124360291549     0.152890899818     1.007825032070
           H          3.132519153641     1.692770291549     0.496943899818     1.007825032070

  Charge       = 0
  Multiplicity = 1
  Basis Set: 6-31G*
  Basis Set:

    Orbital Energies (a.u.)
    -----------------------

    Doubly Occupied:

       1A    -20.551389     2A    -11.268048     3A    -11.218380
       4A    -11.216249     5A    -11.215894     6A    -11.214766
       7A    -11.214733     8A    -11.208585     9A     -1.359131
      10A     -1.091606    11A     -1.049797    12A     -0.987007
      13A     -0.917972    14A     -0.851652    15A     -0.796304
      16A     -0.779535    17A     -0.695411    18A     -0.650253
      19A     -0.628358    20A     -0.610901    21A     -0.602235
      22A     -0.586093    23A     -0.562295    24A     -0.537943
      25A     -0.520639    26A     -0.512060    27A     -0.494463
      28A     -0.478173    29A     -0.473762    30A     -0.461338
      31A     -0.457109    32A     -0.446596    33A     -0.420953

  @DF-RHF Final Energy:  -349.24525128953582

   => Energetics <=

    Nuclear Repulsion Energy =            384.8273482824296821
    One-Electron Energy =               -1235.9860026706571716
    Two-Electron Energy =                 501.9134030986921289
    DFT Exchange-Correlation Energy =       0.0000000000000000
    Empirical Dispersion Energy =           0.0000000000000000
    PCM Polarization Energy =               0.0000000000000000
    EFP Energy =                            0.0000000000000000
    Total Energy =                       -349.2452512895353038

  Mulliken Charges: (a.u.)
   Center  Symbol    Alpha    Beta     Spin     Total
       1     H     0.27888  0.27888  0.00000  0.44225
       2     O     4.37130  4.37130  0.00000 -0.74260
       3     C     2.99885  2.99885  0.00000  0.00230
       4     C     3.15892  3.15892  0.00000 -0.31784
       5     H     0.43283  0.43283  0.00000  0.13435
       6     H     0.41462  0.41462  0.00000  0.17077
       7     C     3.16082  3.16082  0.00000 -0.32164
       8     H     0.41607  0.41607  0.00000  0.16786
       9     H     0.42469  0.42469  0.00000  0.15063
      10     C     3.15277  3.15277  0.00000 -0.30554
      11     H     0.42251  0.42251  0.00000  0.15498
      12     H     0.42595  0.42595  0.00000  0.14810
      13     C     3.15264  3.15264  0.00000 -0.30529
      14     H     0.41922  0.41922  0.00000  0.16156
      15     H     0.42375  0.42375  0.00000  0.15250
      16     C     3.15247  3.15247  0.00000 -0.30494
      17     H     0.42409  0.42409  0.00000  0.15183
      18     H     0.42306  0.42306  0.00000  0.15388
      19     C     3.24128  3.24128  0.00000 -0.48256
      20     H     0.42099  0.42099  0.00000  0.15803
      21     H     0.42339  0.42339  0.00000  0.15322
      22     H     0.42197  0.42197  0.00000  0.15607
      23     H     0.41916  0.41916  0.00000  0.16169
      24     H     0.41980  0.41980  0.00000  0.16041

   Total alpha = 33.00000, Total beta = 33.00000, Total charge = -0.00000
