  ==> Input File <==

--------------------------------------------------------------------------
set {
	reference rhf
	basis 6-31G*
}

set_num_threads( 1 )
memory 2 gb

molecule MOL {
0 1

H	 2.591676	 2.013956	 0.335017
O	 3.341076	 1.666752	 -0.126416
C	 3.569581	 0.339145	 0.272707
C	 2.440664	 -0.236413	 1.120649
H	 3.666407	 -0.230775	 -0.642438
H	 4.516655	 0.258920	 0.805056
C	 2.249133	 0.470611	 2.464636
H	 1.518680	 -0.186282	 0.547238
H	 2.649992	 -1.290806	 1.293288
C	 1.145178	 -0.164427	 3.314830
H	 2.014431	 1.516532	 2.287635
H	 3.185883	 0.449224	 3.021755
C	 0.969607	 0.452382	 4.707333
H	 0.201411	 -0.109352	 2.775277
H	 1.365072	 -1.223418	 3.432669
C	 0.465592	 1.898209	 4.712875
H	 0.267134	 -0.161733	 5.266985
H	 1.914192	 0.397551	 5.246398
C	 0.205869	 2.433560	 6.122619
H	 -0.453021	 1.960403	 4.131161
H	 1.184186	 2.546980	 4.217878
C	 -0.291207	 3.878726	 6.131319
H	 -0.523864	 1.798316	 6.620055
H	 1.120143	 2.363189	 6.708312
H	 -1.222549	 3.976297	 5.580588
H	 -0.467860	 4.228272	 7.143863
H	 0.433672	 4.545871	 5.673244

	symmetry c1
}
set optking {
	frozen_dihedral = ("
		14 10 7 4,
		14 10 13 16,
		10 7 4 8,
		8 4 3 2,
		10 13 16 20,
		20 16 19 22
	")
}

ee = energy('scf')
oeprop('DIPOLE', 'QUADRUPOLE', 'MULLIKEN_CHARGES')
f=open( 'psi4out.xyz', 'w' )
f.write( "27  " )
f.write( str(ee) + "\n" )
f.write( MOL.save_string_xyz() )
f.close()
--------------------------------------------------------------------------

    Molecular point group: c1

    Geometry (in Angstrom), charge = 0, multiplicity = 1:

       Center              X                  Y                   Z               Mass
    ------------   -----------------  -----------------  -----------------  -----------------
           H          1.003772979325     0.795589601764    -2.808545105873     1.007825032070
           O          1.753172979325     0.448385601764    -3.269978105873    15.994914619560
           C          1.981677979325    -0.879221398236    -2.870855105873    12.000000000000
           C          0.852760979325    -1.454779398236    -2.022913105873    12.000000000000
           H          2.078503979325    -1.449141398236    -3.786000105873     1.007825032070
           H          2.928751979325    -0.959446398236    -2.338506105873     1.007825032070
           C          0.661229979325    -0.747755398236    -0.678926105873    12.000000000000
           H         -0.069223020675    -1.404648398236    -2.596324105873     1.007825032070
           H          1.062088979325    -2.509172398236    -1.850274105873     1.007825032070
           C         -0.442725020675    -1.382793398236     0.171267894127    12.000000000000
           H          0.426527979325     0.298165601764    -0.855927105873     1.007825032070
           H          1.597979979325    -0.769142398236    -0.121807105873     1.007825032070
           C         -0.618296020675    -0.765984398236     1.563770894127    12.000000000000
           H         -1.386492020675    -1.327718398236    -0.368285105873     1.007825032070
           H         -0.222831020675    -2.441784398236     0.289106894127     1.007825032070
           C         -1.122311020675     0.679842601764     1.569312894127    12.000000000000
           H         -1.320769020675    -1.380099398236     2.123422894127     1.007825032070
           H          0.326288979325    -0.820815398236     2.102835894127     1.007825032070
           C         -1.382034020675     1.215193601764     2.979056894127    12.000000000000
           H         -2.040924020675     0.742036601764     0.987598894127     1.007825032070
           H         -0.403717020675     1.328613601764     1.074315894127     1.007825032070
           C         -1.879110020675     2.660359601764     2.987756894127    12.000000000000
           H         -2.111767020675     0.579949601764     3.476492894127     1.007825032070
           H         -0.467760020675     1.144822601764     3.564749894127     1.007825032070
           H         -2.810452020675     2.757930601764     2.437025894127     1.007825032070
           H         -2.055763020675     3.009905601764     4.000300894127     1.007825032070
           H         -1.154231020675     3.327504601764     2.529681894127     1.007825032070

  Charge       = 0
  Multiplicity = 1
  Basis Set: 6-31G*
  Basis Set:

    Orbital Energies (a.u.)
    -----------------------

    Doubly Occupied:

       1A    -20.548403     2A    -11.265582     3A    -11.225178
       4A    -11.224011     5A    -11.221106     6A    -11.218181
       7A    -11.217448     8A    -11.216355     9A    -11.210367
      10A     -1.357012    11A     -1.098761    12A     -1.064752
      13A     -1.013865    14A     -0.950154    15A     -0.890854
      16A     -0.825709    17A     -0.805877    18A     -0.781446
      19A     -0.666168    20A     -0.659801    21A     -0.648378
      22A     -0.623077    23A     -0.608905    24A     -0.585406
      25A     -0.577629    26A     -0.563852    27A     -0.541518
      28A     -0.528747    29A     -0.510045    30A     -0.493755
      31A     -0.489027    32A     -0.480456    33A     -0.468206
      34A     -0.462908    35A     -0.450091    36A     -0.440717
      37A     -0.427351

  @DF-RHF Final Energy:  -388.27838583209962

   => Energetics <=

    Nuclear Repulsion Energy =            460.1879344290339304
    One-Electron Energy =               -1438.2104094125509164
    Two-Electron Energy =                 589.7440891514199848
    DFT Exchange-Correlation Energy =       0.0000000000000000
    Empirical Dispersion Energy =           0.0000000000000000
    PCM Polarization Energy =               0.0000000000000000
    EFP Energy =                            0.0000000000000000
    Total Energy =                       -388.2783858320970012

  Mulliken Charges: (a.u.)
   Center  Symbol    Alpha    Beta     Spin     Total
       1     H     0.27726  0.27726  0.00000  0.44548
       2     O     4.37913  4.37913  0.00000 -0.75826
       3     C     2.97532  2.97532  0.00000  0.04936
       4     C     3.18788  3.18788  0.00000 -0.37576
       5     H     0.42126  0.42126  0.00000  0.15748
       6     H     0.42810  0.42810  0.00000  0.14381
       7     C     3.15748  3.15748  0.00000 -0.31496
       8     H     0.41798  0.41798  0.00000  0.16403
       9     H     0.41730  0.41730  0.00000  0.16540
      10     C     3.15246  3.15246  0.00000 -0.30493
      11     H     0.42766  0.42766  0.00000  0.14469
      12     H     0.41868  0.41868  0.00000  0.16264
      13     C     3.15349  3.15349  0.00000 -0.30699
      14     H     0.42305  0.42305  0.00000  0.15390
      15     H     0.42054  0.42054  0.00000  0.15892
      16     C     3.15334  3.15334  0.00000 -0.30667
      17     H     0.42075  0.42075  0.00000  0.15849
      18     H     0.42296  0.42296  0.00000  0.15409
      19     C     3.15127  3.15127  0.00000 -0.30253
      20     H     0.42464  0.42464  0.00000  0.15072
      21     H     0.42242  0.42242  0.00000  0.15515
      22     C     3.23940  3.23940  0.00000 -0.47880
      23     H     0.42281  0.42281  0.00000  0.15437
      24     H     0.42254  0.42254  0.00000  0.15491
      25     H     0.42181  0.42181  0.00000  0.15638
      26     H     0.41885  0.41885  0.00000  0.16231
      27     H     0.42161  0.42161  0.00000  0.15678

   Total alpha = 37.00000, Total beta = 37.00000, Total charge =  0.00000
