  ==> Input File <==

--------------------------------------------------------------------------
set {
	reference rhf
	basis 6-31G*
}

set_num_threads( 4 )
memory 2 gb

molecule MOL {
0 1

H	 2.087091	 -0.474087	 0.783560
O	 1.586534	 -0.678666	 -0.000226
C	 0.489431	 0.077273	 0.000046
C	 -0.764129	 -0.759190	 0.000191
O	 0.537743	 1.263962	 0.000257
C	 -2.038368	 0.075731	 -0.000248
H	 -0.717284	 -1.412404	 -0.866059
H	 -0.717458	 -1.411724	 0.866967
H	 -2.086483	 0.712501	 -0.875098
H	 -2.908485	 -0.571682	 -0.000042
H	 -2.086576	 0.713280	 0.874068

	symmetry c1
}
set optking {
	frozen_dihedral = ("
		1 2 3 5
	")
}

ee = optimize('scf')
oeprop('DIPOLE', 'QUADRUPOLE', 'MULLIKEN_CHARGES')
f=open( 'psi4out.xyz', 'w' )
f.write( "11  " )
f.write( str(ee) + "\n" )
f.write( MOL.save_string_xyz() )
f.close()
--------------------------------------------------------------------------

    Molecular point group: c1
  Charge       = 0
  Multiplicity = 1
  Basis Set: 6-31G*
  Basis Set:
  @DF-RHF Final Energy:  -266.82970663046314
    Total Energy =                       -266.8297066304631926
    Molecular point group: c1
  Basis Set: 6-31G*
  Basis Set:
  Basis Set: 6-31G*
  Basis Set:
  @DF-RHF Final Energy:  -266.82820974201684
    Total Energy =                       -266.8282097420169521
  Basis Set: 6-31G*
  Basis Set:
  Basis Set: 6-31G*
  Basis Set:
  @DF-RHF Final Energy:  -266.83092299095665
    Total Energy =                       -266.8309229909565374
  Basis Set: 6-31G*
  Basis Set:
  Basis Set: 6-31G*
  Basis Set:
  @DF-RHF Final Energy:  -266.83112359474933
    Total Energy =                       -266.8311235947495561
  Basis Set: 6-31G*
  Basis Set:
  Basis Set: 6-31G*
  Basis Set:
  @DF-RHF Final Energy:  -266.83112768351862
    Total Energy =                       -266.8311276835185026
  Basis Set: 6-31G*
  Basis Set:
  Charge       = 0
  Multiplicity = 1
  Basis Set: 6-31G*
  Basis Set:

    Orbital Energies (a.u.)
    -----------------------

    Doubly Occupied:

       1A    -20.600306     2A    -20.560216     3A    -11.382235
       4A    -11.243867     5A    -11.220308     6A     -1.464278
       7A     -1.368097     8A     -1.063597     9A     -0.912600
      10A     -0.802939    11A     -0.707346    12A     -0.680973
      13A     -0.658024    14A     -0.610323    15A     -0.570408
      16A     -0.526827    17A     -0.524177    18A     -0.503242
      19A     -0.485629    20A     -0.445769

  @DF-RHF Final Energy:  -266.83112817099516

   => Energetics <=

    Nuclear Repulsion Energy =            179.1912952998662547
    One-Electron Energy =                -719.3825214999556010
    Two-Electron Energy =                 273.3600980290941038
    DFT Exchange-Correlation Energy =       0.0000000000000000
    Empirical Dispersion Energy =           0.0000000000000000
    PCM Polarization Energy =               0.0000000000000000
    EFP Energy =                            0.0000000000000000
    Total Energy =                       -266.8311281709952141
    Molecular point group: c1
  Basis Set: 6-31G*
  Basis Set:

  -Total Gradient:
     Atom            X                  Y                   Z
    ------   -----------------  -----------------  -----------------
       1       -0.004889507647    -0.007831134271     0.005904106679
       2        0.005623700693     0.009775707732    -0.011948363093
       3        0.000126739841    -0.001966592987     0.015821269521
       4        0.000056283809     0.000003784411     0.000061503482
       5       -0.000897952119    -0.000032626700    -0.009758830228
       6       -0.000011666361    -0.000009500915    -0.000033213079
       7       -0.000006591589     0.000033923112    -0.000045821663
       8        0.000006166192     0.000020668863    -0.000014844088
       9        0.000002985595    -0.000002488293     0.000003689580
      10       -0.000009783703     0.000008021726     0.000003882849
      11       -0.000000374711     0.000000237320     0.000006620040

  **** Optimization is complete! (in 6 steps) ****
    Final optimized geometry and variables:
    Molecular point group: c1

    Geometry (in Angstrom), charge = 0, multiplicity = 1:

    H            2.197656731610    -0.499022421660     0.666396448954
    O            1.607538885676    -0.675039566945    -0.057005288026
    C            0.490675481651     0.085639927669     0.033090065303
    C           -0.764150203771    -0.748533684028     0.002025263376
    O            0.528139018807     1.267237150575     0.030419370065
    C           -2.041968146560     0.078983705693    -0.043084154687
    H           -0.685241282144    -1.408336211331    -0.857199501476
    H           -0.741898664664    -1.399204886157     0.872336524316
    H           -2.066154909082     0.708131000119    -0.924557193401
    H           -2.909385064401    -0.571856053605    -0.063782884774
    H           -2.120153414478     0.724200113188     0.823627863435

  Mulliken Charges: (a.u.)
   Center  Symbol    Alpha    Beta     Spin     Total
       1     H     0.26575  0.26575  0.00000  0.46851
       2     O     4.36397  4.36397  0.00000 -0.72794
       3     C     2.63196  2.63196  0.00000  0.73609
       4     C     3.20703  3.20703  0.00000 -0.41405
       5     O     4.25497  4.25497  0.00000 -0.50993
       6     C     3.23981  3.23981  0.00000 -0.47962
       7     H     0.39654  0.39654  0.00000  0.20692
       8     H     0.40433  0.40433  0.00000  0.19133
       9     H     0.40844  0.40844  0.00000  0.18311
      10     H     0.41687  0.41687  0.00000  0.16625
      11     H     0.41034  0.41034  0.00000  0.17931

   Total alpha = 20.00000, Total beta = 20.00000, Total charge =  0.00000
