  ==> Input File <==

--------------------------------------------------------------------------
set {
	reference rhf
	basis 6-31G*
}

set_num_threads( 4 )
memory 2 gb

molecule MOL {
0 1

O	 2.672886	 1.651341	 -0.442245
C	 2.245421	 1.092850	 -1.405635
C	 0.965102	 0.277828	 -1.367438
C	 2.959791	 1.162369	 -2.739800
C	 0.291004	 0.242674	 0.000989
H	 0.289323	 0.683561	 -2.119164
H	 1.201401	 -0.730039	 -1.706214
C	 -0.994322	 -0.586602	 0.000262
H	 0.075004	 1.258254	 0.317327
H	 0.987971	 -0.157139	 0.730738
C	 -2.259874	 0.272531	 0.000494
H	 -1.004862	 -1.240012	 -0.870939
H	 -1.005220	 -1.241071	 0.870675
C	 -3.549786	 -0.549746	 -0.000374
H	 -2.250389	 0.926680	 -0.869574
H	 -2.250838	 0.925513	 0.871430
C	 -4.809590	 0.315458	 -0.000369
H	 -3.560515	 -1.202009	 -0.871156
H	 -3.561123	 -1.202955	 0.869711
H	 -4.844746	 0.956611	 -0.876632
H	 -5.706986	 -0.295590	 -0.001609
H	 -4.845960	 0.954827	 0.877144
H	 2.308961	 1.590997	 -3.496316
H	 3.850853	 1.767295	 -2.645422
H	 3.231988	 0.166100	 -3.075943

	symmetry c1
}
set optking {
	frozen_dihedral = ("
		9 5 8 12
	")
}

ee = optimize('scf')
oeprop('DIPOLE', 'QUADRUPOLE', 'MULLIKEN_CHARGES')
f=open( 'psi4out.xyz', 'w' )
f.write( "25  " )
f.write( str(ee) + "\n" )
f.write( MOL.save_string_xyz() )
f.close()
--------------------------------------------------------------------------

    Molecular point group: c1
  Charge       = 0
  Multiplicity = 1
  Basis Set: 6-31G*
  Basis Set:
  @DF-RHF Final Energy:  -387.13155140400107
    Total Energy =                       -387.1315514040014705
    Molecular point group: c1
  Basis Set: 6-31G*
  Basis Set:
  Basis Set: 6-31G*
  Basis Set:
  @DF-RHF Final Energy:  -387.13181233914031
    Total Energy =                       -387.1318123391403105
  Basis Set: 6-31G*
  Basis Set:
  Basis Set: 6-31G*
  Basis Set:
  @DF-RHF Final Energy:  -387.13160596346796
    Total Energy =                       -387.1316059634682460
  Basis Set: 6-31G*
  Basis Set:
  Basis Set: 6-31G*
  Basis Set:
  @DF-RHF Final Energy:  -387.13189848052053
    Total Energy =                       -387.1318984805204764
  Basis Set: 6-31G*
  Basis Set:
  Basis Set: 6-31G*
  Basis Set:
  @DF-RHF Final Energy:  -387.13190149063121
    Total Energy =                       -387.1319014906313214
  Basis Set: 6-31G*
  Basis Set:
  Basis Set: 6-31G*
  Basis Set:
  @DF-RHF Final Energy:  -387.13190548318192
    Total Energy =                       -387.1319054831814128
  Basis Set: 6-31G*
  Basis Set:
  Basis Set: 6-31G*
  Basis Set:
  @DF-RHF Final Energy:  -387.13190810933128
    Total Energy =                       -387.1319081093307659
  Basis Set: 6-31G*
  Basis Set:
  Charge       = 0
  Multiplicity = 1
  Basis Set: 6-31G*
  Basis Set:

    Orbital Energies (a.u.)
    -----------------------

    Doubly Occupied:

       1A    -20.550526     2A    -11.326086     3A    -11.232042
       4A    -11.228329     5A    -11.216949     6A    -11.216416
       7A    -11.216258     8A    -11.215163     9A    -11.209524
      10A     -1.395708    11A     -1.093119    12A     -1.055966
      13A     -1.013892    14A     -0.968650    15A     -0.892319
      16A     -0.815629    17A     -0.790415    18A     -0.732069
      19A     -0.658610    20A     -0.645527    21A     -0.639859
      22A     -0.621149    23A     -0.597842    24A     -0.576732
      25A     -0.570624    26A     -0.565403    27A     -0.540291
      28A     -0.523266    29A     -0.517952    30A     -0.491961
      31A     -0.484389    32A     -0.478755    33A     -0.464246
      34A     -0.460494    35A     -0.445445    36A     -0.399764

  @DF-RHF Final Energy:  -387.13190815920962

   => Energetics <=

    Nuclear Repulsion Energy =            442.1046971868197488
    One-Electron Energy =               -1400.7704801041470546
    Two-Electron Energy =                 571.5338747581176904
    DFT Exchange-Correlation Energy =       0.0000000000000000
    Empirical Dispersion Energy =           0.0000000000000000
    PCM Polarization Energy =               0.0000000000000000
    EFP Energy =                            0.0000000000000000
    Total Energy =                       -387.1319081592096154
    Molecular point group: c1
  Basis Set: 6-31G*
  Basis Set:

  -Total Gradient:
     Atom            X                  Y                   Z
    ------   -----------------  -----------------  -----------------
       1       -0.000004884401    -0.000000231204     0.000000840585
       2       -0.000000916003     0.000005569947     0.000000415244
       3       -0.000006858831     0.000010130844    -0.000002226657
       4        0.000011372789    -0.000021506105     0.000004732943
       5        0.000308092055    -0.000438198704     0.003095443291
       6        0.000000818554    -0.000004916329    -0.000002020214
       7        0.000005714990    -0.000001500631     0.000004279187
       8        0.001520620151    -0.002414614251     0.001261010178
       9       -0.000499501774     0.000754630401    -0.002800803980
      10       -0.000001402796     0.000000821132     0.000001432931
      11       -0.000002134679     0.000000838769    -0.000002909106
      12       -0.001328060687     0.002099328179    -0.001556516413
      13        0.000003300303    -0.000002967192     0.000002112701
      14       -0.000001079822    -0.000001903053    -0.000003019120
      15       -0.000000659027    -0.000000229436    -0.000001089158
      16       -0.000001721087    -0.000001479484     0.000000817224
      17        0.000003877733     0.000002719999     0.000002563827
      18        0.000000963310     0.000001091023    -0.000001557376
      19        0.000001567854    -0.000000754852    -0.000000178391
      20       -0.000000628466    -0.000000463878    -0.000001150184
      21        0.000002712657    -0.000001351275     0.000001405851
      22       -0.000000352426     0.000001671330     0.000000475158
      23       -0.000003756900     0.000008244000     0.000002845599
      24       -0.000002791106     0.000001678250     0.000001085278
      25       -0.000004292388     0.000003392517    -0.000007989399

  **** Optimization is complete! (in 8 steps) ****
    Final optimized geometry and variables:
    Molecular point group: c1

    Geometry (in Angstrom), charge = 0, multiplicity = 1:

    O            2.930424508787     1.251404984621     0.199623750124
    C            2.506971210979     0.666037149119    -0.749658300982
    C            1.254092840997    -0.188321510293    -0.681113588306
    C            3.200238415860     0.738708322839    -2.094804487576
    C            0.606274770740    -0.235109287091     0.702208089678
    H            0.551670727451     0.190995597676    -1.422562036285
    H            1.514932228299    -1.190699331486    -1.017446249576
    C           -0.701476582473    -1.053046442744     0.715301488899
    H            0.408213977540     0.785213255861     1.011756941147
    H            1.321545722228    -0.637407656380     1.409797156904
    C           -1.958564939557    -0.177698645182     0.688067502404
    H           -0.732790004903    -1.714676044679    -0.148161747065
    H           -0.734460774039    -1.689916513186     1.594670986067
    C           -3.257484421203    -0.983380119720     0.640119880105
    H           -1.917871848710     0.488077190273    -0.173437513605
    H           -1.965615038084     0.464783612512     1.566503023888
    C           -4.507030895668    -0.103427379031     0.626732257132
    H           -3.255024237764    -1.619617117617    -0.242628215660
    H           -3.296884251744    -1.652515886696     1.497159365014
    H           -4.514287528539     0.554397728960    -0.237894928372
    H           -5.410986067074    -0.703676751622     0.592748520745
    H           -4.557050730710     0.519776190008     1.515072542164
    H            2.524726633655     1.132074349801    -2.848850346515
    H            4.070809060396     1.375656888804    -2.022469956099
    H            3.502675274756    -0.252814840317    -2.418934339208

  Mulliken Charges: (a.u.)
   Center  Symbol    Alpha    Beta     Spin     Total
       1     O     4.26113  4.26113  0.00000 -0.52226
       2     C     2.73605  2.73605  0.00000  0.52791
       3     C     3.21217  3.21217  0.00000 -0.42435
       4     C     3.28670  3.28670  0.00000 -0.57341
       5     C     3.15154  3.15154  0.00000 -0.30308
       6     H     0.41005  0.41005  0.00000  0.17991
       7     H     0.40966  0.40966  0.00000  0.18067
       8     C     3.15786  3.15786  0.00000 -0.31571
       9     H     0.40908  0.40908  0.00000  0.18184
      10     H     0.41003  0.41003  0.00000  0.17994
      11     C     3.15225  3.15225  0.00000 -0.30450
      12     H     0.42425  0.42425  0.00000  0.15151
      13     H     0.41807  0.41807  0.00000  0.16385
      14     C     3.15191  3.15191  0.00000 -0.30381
      15     H     0.42612  0.42612  0.00000  0.14776
      16     H     0.42103  0.42103  0.00000  0.15795
      17     C     3.23919  3.23919  0.00000 -0.47838
      18     H     0.42392  0.42392  0.00000  0.15217
      19     H     0.42252  0.42252  0.00000  0.15497
      20     H     0.42222  0.42222  0.00000  0.15557
      21     H     0.41925  0.41925  0.00000  0.16150
      22     H     0.42101  0.42101  0.00000  0.15797
      23     H     0.40890  0.40890  0.00000  0.18221
      24     H     0.39648  0.39648  0.00000  0.20704
      25     H     0.40863  0.40863  0.00000  0.18273

   Total alpha = 36.00000, Total beta = 36.00000, Total charge =  0.00000
