  ==> Input File <==

--------------------------------------------------------------------------
set {
	reference rhf
	basis cc-pvtz
}

set_num_threads( 4 )
memory 2 gb

molecule MOL {
0 1

H	 -1.003604	 -1.004281	 -0.793676
N	 -1.173824	 -0.310545	 -0.096857
C	 -0.022588	 0.563366	 0.065815
H	 -1.976461	 0.208322	 -0.386964
C	 1.270420	 -0.230572	 -0.014245
H	 -0.045354	 1.293678	 -0.735129
H	 -0.043155	 1.123061	 1.001180
H	 1.336273	 -0.754933	 -0.959364
H	 2.130728	 0.422015	 0.082222
H	 1.323344	 -0.967006	 0.781773

	symmetry c1
}
set optking {
	frozen_dihedral = ("
		1 2 3 6
	")
}

ee = optimize('scf')
oeprop('DIPOLE', 'QUADRUPOLE', 'MULLIKEN_CHARGES')
f=open( 'psi4out.xyz', 'w' )
f.write( "10  " )
f.write( str(ee) + "\n" )
f.write( MOL.save_string_xyz() )
f.close()
--------------------------------------------------------------------------

    Molecular point group: c1
  Charge       = 0
  Multiplicity = 1
  Basis Set: CC-PVTZ
  Basis Set:
  @DF-RHF Final Energy:  -134.30196753668915
    Total Energy =                       -134.3019675366890624
    Molecular point group: c1
  Basis Set: CC-PVTZ
  Basis Set:
  Basis Set: CC-PVTZ
  Basis Set:
  @DF-RHF Final Energy:  -134.30368962295333
    Total Energy =                       -134.3036896229533852
  Basis Set: CC-PVTZ
  Basis Set:
  Basis Set: CC-PVTZ
  Basis Set:
  @DF-RHF Final Energy:  -134.30389604738718
    Total Energy =                       -134.3038960473871839
  Basis Set: CC-PVTZ
  Basis Set:
  Basis Set: CC-PVTZ
  Basis Set:
  @DF-RHF Final Energy:  -134.30390030021650
    Total Energy =                       -134.3039003002164407
  Basis Set: CC-PVTZ
  Basis Set:
  Charge       = 0
  Multiplicity = 1
  Basis Set: CC-PVTZ
  Basis Set:

    Orbital Energies (a.u.)
    -----------------------

    Doubly Occupied:

       1A    -15.525218     2A    -11.240539     3A    -11.208240
       4A     -1.176856     5A     -0.989513     6A     -0.826963
       7A     -0.661284     8A     -0.630702     9A     -0.589109
      10A     -0.519523    11A     -0.503963    12A     -0.494008
      13A     -0.381525

  @DF-RHF Final Energy:  -134.30390072807867

   => Energetics <=

    Nuclear Repulsion Energy =             83.5421652511546711
    One-Electron Energy =                -346.1972417582516641
    Two-Electron Energy =                 128.3511757790183765
    DFT Exchange-Correlation Energy =       0.0000000000000000
    Empirical Dispersion Energy =           0.0000000000000000
    PCM Polarization Energy =               0.0000000000000000
    EFP Energy =                            0.0000000000000000
    Total Energy =                       -134.3039007280785881
    Molecular point group: c1
  Basis Set: CC-PVTZ
  Basis Set:

  -Total Gradient:
     Atom            X                  Y                   Z
    ------   -----------------  -----------------  -----------------
       1        0.001052462400    -0.001563849894     0.001796322890
       2       -0.001720939779     0.002390295878    -0.001820790487
       3        0.001963371557    -0.002342336897    -0.001413861489
       4       -0.000008747252    -0.000004073692    -0.000007870482
       5       -0.000020920396     0.000031351346     0.000024826857
       6       -0.001264900996     0.001468800359     0.001428890450
       7        0.000000838532    -0.000006286169     0.000011236294
       8       -0.000008652971     0.000010913961     0.000004566746
       9        0.000026021902    -0.000004210504    -0.000010030827
      10       -0.000018532997     0.000019395613    -0.000013289953

  **** Optimization is complete! (in 5 steps) ****
    Final optimized geometry and variables:
    Molecular point group: c1

    Geometry (in Angstrom), charge = 0, multiplicity = 1:

    H           -1.042932203580    -1.009644492439    -0.737994954694
    N           -1.179977745996    -0.311183955279    -0.038927576992
    C           -0.025579882940     0.567121117812     0.065567393080
    H           -2.013598910743     0.189807118732    -0.256917665537
    C            1.266037895356    -0.230142814633     0.032383542194
    H           -0.007092855373     1.333350945417    -0.709122163525
    H           -0.090993796690     1.096207097472     1.010719924595
    H            1.383397811146    -0.742672124249    -0.917575030256
    H            2.123311885908     0.418892295540     0.165983659259
    H            1.273011137888    -0.974584894022     0.819494614262

  Mulliken Charges: (a.u.)
   Center  Symbol    Alpha    Beta     Spin     Total
       1     H     0.42977  0.42977  0.00000  0.14045
       2     N     3.69182  3.69182  0.00000 -0.38365
       3     C     3.01295  3.01295  0.00000 -0.02590
       4     H     0.42905  0.42905  0.00000  0.14189
       5     C     3.14350  3.14350  0.00000 -0.28700
       6     H     0.47031  0.47031  0.00000  0.05937
       7     H     0.46043  0.46043  0.00000  0.07914
       8     H     0.46041  0.46041  0.00000  0.07918
       9     H     0.45289  0.45289  0.00000  0.09423
      10     H     0.44886  0.44886  0.00000  0.10228

   Total alpha = 13.00000, Total beta = 13.00000, Total charge = -0.00000
