  ==> Input File <==

--------------------------------------------------------------------------
set {
	reference rhf
	basis 6-31G*
}

set_num_threads( 4 )
memory 2 gb

molecule MOL {
0 1

H	 1.430358	 -2.019064	 0.793781
C	 0.504583	 -1.491432	 0.956875
O	 0.464886	 -0.454746	 -0.000158
H	 0.492614	 -1.092287	 1.964130
H	 -0.325393	 -2.175379	 0.824897
C	 -0.590998	 0.343045	 0.000118
O	 -1.699443	 -0.054298	 0.000227
H	 -0.340329	 1.404368	 0.000207

	symmetry c1
}
set optking {
	frozen_dihedral = ("
		2 3 6 7
	")
}

ee = optimize('scf')
oeprop('DIPOLE', 'QUADRUPOLE', 'MULLIKEN_CHARGES')
f=open( 'psi4out.xyz', 'w' )
f.write( "8  " )
f.write( str(ee) + "\n" )
f.write( MOL.save_string_xyz() )
f.close()
--------------------------------------------------------------------------

    Molecular point group: c1
  Charge       = 0
  Multiplicity = 1
  Basis Set: 6-31G*
  Basis Set:
  @DF-RHF Final Energy:  -227.77593297220207
    Total Energy =                       -227.7759329722019288
    Molecular point group: c1
  Basis Set: 6-31G*
  Basis Set:
  Basis Set: 6-31G*
  Basis Set:
  @DF-RHF Final Energy:  -227.76987261780894
    Total Energy =                       -227.7698726178089146
  Basis Set: 6-31G*
  Basis Set:
  Basis Set: 6-31G*
  Basis Set:
  @DF-RHF Final Energy:  -227.77660659736557
    Total Energy =                       -227.7766065973655714
  Basis Set: 6-31G*
  Basis Set:
  Basis Set: 6-31G*
  Basis Set:
  @DF-RHF Final Energy:  -227.77715009486272
    Total Energy =                       -227.7771500948626624
  Basis Set: 6-31G*
  Basis Set:
  Basis Set: 6-31G*
  Basis Set:
  @DF-RHF Final Energy:  -227.77715784842380
    Total Energy =                       -227.7771578484237978
  Basis Set: 6-31G*
  Basis Set:
  Basis Set: 6-31G*
  Basis Set:
  @DF-RHF Final Energy:  -227.77715937977808
    Total Energy =                       -227.7771593797781691
  Basis Set: 6-31G*
  Basis Set:
  Charge       = 0
  Multiplicity = 1
  Basis Set: 6-31G*
  Basis Set:

    Orbital Energies (a.u.)
    -----------------------

    Doubly Occupied:

       1A    -20.604940     2A    -20.566715     3A    -11.382182
       4A    -11.293445     5A     -1.472006     6A     -1.378327
       7A     -0.992842     8A     -0.824056     9A     -0.740335
      10A     -0.682898    11A     -0.671409    12A     -0.614536
      13A     -0.560808    14A     -0.521769    15A     -0.468247
      16A     -0.454601

  @DF-RHF Final Energy:  -227.77715951110238

   => Energetics <=

    Nuclear Repulsion Energy =            122.6354543318692265
    One-Electron Energy =                -554.3669941443747575
    Two-Electron Energy =                 203.9543803014030914
    DFT Exchange-Correlation Energy =       0.0000000000000000
    Empirical Dispersion Energy =           0.0000000000000000
    PCM Polarization Energy =               0.0000000000000000
    EFP Energy =                            0.0000000000000000
    Total Energy =                       -227.7771595111024112
    Molecular point group: c1
  Basis Set: 6-31G*
  Basis Set:

  -Total Gradient:
     Atom            X                  Y                   Z
    ------   -----------------  -----------------  -----------------
       1        0.000002589031     0.000006127803    -0.000004979517
       2        0.003306683217     0.004827854575     0.005588048315
       3       -0.004659496026    -0.007048285663    -0.013765371757
       4       -0.000001841520     0.000007051497    -0.000005326961
       5       -0.000001055192     0.000006027372    -0.000004109265
       6        0.000844072040     0.001765351790     0.018755806814
       7        0.000498091920     0.000430651126    -0.010562488021
       8        0.000010956533     0.000005221499    -0.000001579607

  **** Optimization is complete! (in 7 steps) ****
    Final optimized geometry and variables:
    Molecular point group: c1

    Geometry (in Angstrom), charge = 0, multiplicity = 1:

    H            1.754036218757    -1.615008193917     0.509553668844
    C            0.841492805221    -1.075873642432     0.707712206259
    O            0.808411413990     0.001305856590    -0.215416730878
    H            0.857375340927    -0.693383199621     1.720606463974
    H           -0.010662756448    -1.725635939826     0.572412987173
    C           -0.280938150733     0.765091619476    -0.233521473925
    O           -1.391763941254     0.371545952387    -0.298982853402
    H           -0.016949105886     1.817026858323    -0.284786240192

  Mulliken Charges: (a.u.)
   Center  Symbol    Alpha    Beta     Spin     Total
       1     H     0.40350  0.40350  0.00000  0.19300
       2     C     3.09613  3.09613  0.00000 -0.19227
       3     O     4.29330  4.29330  0.00000 -0.58661
       4     H     0.41528  0.41528  0.00000  0.16943
       5     H     0.40187  0.40187  0.00000  0.19626
       6     C     2.72947  2.72947  0.00000  0.54105
       7     O     4.24448  4.24448  0.00000 -0.48896
       8     H     0.41595  0.41595  0.00000  0.16809

   Total alpha = 16.00000, Total beta = 16.00000, Total charge =  0.00000
