                              Psi4 1.0.54 Driver

  ==> Input File <==

--------------------------------------------------------------------------
set {
	reference rhf
	basis cc-pvtz
}

set_num_threads( 4 )
memory 2 gb

molecule MOL {
0 1

O	 -2.369711	 0.264291	 -1.122559
C	 -1.922978	 0.063265	 -0.045005
C	 -2.732645	 -0.329438	 1.158605
O	 -0.637375	 0.157174	 0.243149
H	 -2.603268	 0.408271	 1.940121
H	 -3.772845	 -0.402511	 0.886057
H	 -2.379356	 -1.278466	 1.540835
C	 0.162530	 -1.009518	 0.097799
C	 1.587210	 -0.664190	 0.477086
H	 0.096803	 -1.356267	 -0.924704
H	 -0.233803	 -1.785900	 0.736810
C	 2.256770	 0.342732	 -0.454344
H	 2.154716	 -1.590834	 0.479041
H	 1.598751	 -0.289614	 1.496104
C	 3.698146	 0.643205	 -0.057145
H	 2.235038	 -0.042575	 -1.470299
H	 1.683491	 1.262594	 -0.461300
H	 4.150202	 1.356548	 -0.736242
H	 4.305463	 -0.255904	 -0.069842
H	 3.749130	 1.061068	 0.942759

	symmetry c1
}
set optking {
	frozen_dihedral = ("
		1 2 4 8
	")
}

ee,wfn = optimize('scf', return_wfn=True)
oeprop( wfn, 'DIPOLE', 'QUADRUPOLE', 'MULLIKEN_CHARGES')
f=open( 'psi4out.xyz', 'w' )
f.write( "20  " )
f.write( str(ee) + "\n" )
f.write( MOL.save_string_xyz() )
f.close()
--------------------------------------------------------------------------

    Molecular point group: c1
  Charge       = 0
  Multiplicity = 1
  Basis Set: CC-PVTZ
  Basis Set:
  @DF-RHF Final Energy:  -384.06734814489965
    Total Energy =                       -384.0673481449000519
    Molecular point group: c1
  Basis Set: CC-PVTZ
  Basis Set:
  Basis Set: CC-PVTZ
  Basis Set:
  @DF-RHF Final Energy:  -383.72103217085834
    Total Energy =                       -383.7210321708586207
  Basis Set: CC-PVTZ
  Basis Set:
  Basis Set: CC-PVTZ
  Basis Set:
  @DF-RHF Final Energy:  -383.88465633578915
    Total Energy =                       -383.8846563357892592
  Basis Set: CC-PVTZ
  Basis Set:
  Basis Set: CC-PVTZ
  Basis Set:
  @DF-RHF Final Energy:  -384.02718680817043
    Total Energy =                       -384.0271868081701996
  Basis Set: CC-PVTZ
  Basis Set:
  @DF-RHF Final Energy:  -384.06135541607409
    Total Energy =                       -384.0613554160740932
  @DF-RHF Final Energy:  -384.06699479722789
    Total Energy =                       -384.0669947972280625
  @DF-RHF Final Energy:  -384.06309004259060
    Total Energy =                       -384.0630900425909431
  @DF-RHF Final Energy:  -384.06645249905614
    Total Energy =                       -384.0664524990559130
  @DF-RHF Final Energy:  -384.06864901954134
    Total Energy =                       -384.0686490195412262
  @DF-RHF Final Energy:  -384.06889215010369
    Total Energy =                       -384.0688921501039204
  Basis Set: CC-PVTZ
  Basis Set:
  @DF-RHF Final Energy:  -384.06890102817187
    Total Energy =                       -384.0689010281714673
  Basis Set: CC-PVTZ
  Basis Set:
  Basis Set: CC-PVTZ
  Basis Set:
  @DF-RHF Final Energy:  -384.06890378247022
    Total Energy =                       -384.0689037824701018
  Basis Set: CC-PVTZ
  Basis Set:
  Basis Set: CC-PVTZ
  Basis Set:
  @DF-RHF Final Energy:  -384.06890478866654
    Total Energy =                       -384.0689047886662593
  Basis Set: CC-PVTZ
  Basis Set:
  Charge       = 0
  Multiplicity = 1
  Basis Set: CC-PVTZ
  Basis Set:

    Orbital Energies (a.u.)
    -----------------------

    Doubly Occupied:

       1A    -20.575695     2A    -20.544905     3A    -11.369961
       4A    -11.290645     5A    -11.236091     6A    -11.225464
       7A    -11.216050     8A    -11.209779     9A     -1.460935
      10A     -1.369311    11A     -1.084393    12A     -1.022559
      13A     -0.989246    14A     -0.881810    15A     -0.809382
      16A     -0.778191    17A     -0.698515    18A     -0.686437
      19A     -0.653799    20A     -0.635542    21A     -0.614944
      22A     -0.590998    23A     -0.581313    24A     -0.564570
      25A     -0.543434    26A     -0.529065    27A     -0.497877
      28A     -0.485630    29A     -0.482142    30A     -0.473732
      31A     -0.449612    32A     -0.439611

  @DF-RHF Final Energy:  -384.06890471398788

   => Energetics <=

    Nuclear Repulsion Energy =            384.5951231209146499
    One-Electron Energy =               -1285.3447800715998710
    Two-Electron Energy =                 516.6807522366975718
    DFT Exchange-Correlation Energy =       0.0000000000000000
    Empirical Dispersion Energy =           0.0000000000000000
    PCM Polarization Energy =               0.0000000000000000
    EFP Energy =                            0.0000000000000000
    Total Energy =                       -384.0689047139876493
    Molecular point group: c1
  Basis Set: CC-PVTZ
  Basis Set:

  -Total Gradient:
     Atom            X                  Y                   Z
    ------   -----------------  -----------------  -----------------
       1        0.001103155501     0.002339056774    -0.000836625591
       2       -0.001763374477    -0.003006847043     0.002139048899
       3       -0.000014972230    -0.000110728226    -0.000057202016
       4        0.000614496705     0.000080873235    -0.003464931068
       5        0.000033231934     0.000023379448     0.000029444617
       6        0.000027692956    -0.000015579156    -0.000003783701
       7       -0.000009346639    -0.000006264053     0.000045867750
       8        0.000040335394     0.000720626362     0.002114896005
       9       -0.000019894000    -0.000023612946     0.000002508301
      10       -0.000032437474    -0.000024009171    -0.000043266048
      11        0.000003371708    -0.000025534681     0.000061443205
      12        0.000010119313     0.000020735472     0.000005501417
      13       -0.000014179717     0.000016746918     0.000016517919
      14        0.000028564545     0.000022289476     0.000051101025
      15       -0.000000557978    -0.000027020938     0.000011669501
      16       -0.000015400112    -0.000023226120    -0.000041469079
      17        0.000013032916     0.000000006385    -0.000020122535
      18       -0.000006592833     0.000006789449    -0.000047096661
      19       -0.000013035648     0.000014420488     0.000005811678
      20        0.000015790130     0.000017898327     0.000030686384

  **** Optimization is complete! (in 14 steps) ****
    Final optimized geometry and variables:
    Molecular point group: c1

    Geometry (in Angstrom), charge = 0, multiplicity = 1:

    O           -2.126487141399     1.158293474505    -0.970403711711
    C           -1.526693819632     1.179525649536     0.041008981830
    C           -1.978478341983     1.898068175795     1.281509596004
    O           -0.310180935693     0.609974105526     0.157029193876
    H           -1.269089505900     2.685443710033     1.505257850691
    H           -2.960961038408     2.315888498846     1.132671805550
    H           -1.986769625402     1.220643246544     2.126475574094
    C           -0.267197169878    -0.750364122828     0.556751517182
    C            1.173288829856    -1.217100837003     0.554304598157
    H           -0.865328302767    -1.339587784912    -0.129630052252
    H           -0.690352247935    -0.848406059242     1.551676165365
    C            1.818063172785    -1.227630640672    -0.828769347208
    H            1.192215023297    -2.218664046046     0.975782980542
    H            1.744355775325    -0.583152039724     1.225593932235
    C            3.265605111515    -1.705827064826    -0.796425062534
    H            1.239220956586    -1.869892819495    -1.486815915200
    H            1.771448730714    -0.232162801126    -1.252735705672
    H            3.697440723975    -1.707056352053    -1.790282140773
    H            3.339498607529    -2.714313102906    -0.402524216665
    H            3.876450455127    -1.062366013261    -0.171871974624

  Mulliken Charges: (a.u.)
   Center  Symbol    Alpha    Beta     Spin     Total
       1     O     4.16991  4.16991  0.00000 -0.33983
       2     C     2.80520  2.80520  0.00000  0.38960
       3     C     3.14358  3.14358  0.00000 -0.28717
       4     O     4.17325  4.17325  0.00000 -0.34650
       5     H     0.44380  0.44380  0.00000  0.11240
       6     H     0.43665  0.43665  0.00000  0.12670
       7     H     0.45070  0.45070  0.00000  0.09861
       8     C     2.98804  2.98804  0.00000  0.02391
       9     C     3.08687  3.08687  0.00000 -0.17373
      10     H     0.45338  0.45338  0.00000  0.09323
      11     H     0.45451  0.45451  0.00000  0.09098
      12     C     3.08479  3.08479  0.00000 -0.16959
      13     H     0.45323  0.45323  0.00000  0.09354
      14     H     0.45114  0.45114  0.00000  0.09772
      15     C     3.15041  3.15041  0.00000 -0.30083
      16     H     0.45434  0.45434  0.00000  0.09132
      17     H     0.44223  0.44223  0.00000  0.11553
      18     H     0.44661  0.44661  0.00000  0.10678
      19     H     0.45663  0.45663  0.00000  0.08674
      20     H     0.45472  0.45472  0.00000  0.09057

   Total alpha = 32.00000, Total beta = 32.00000, Total charge =  0.00000

*** Psi4 exiting successfully. Buy a developer a beer!
