                              Psi4 1.0.54 Driver

  ==> Input File <==

--------------------------------------------------------------------------
set {
	reference rhf
	basis cc-pvtz
}

set_num_threads( 4 )
memory 2 gb

molecule MOL {
0 1

H	 -0.384567	 1.336808	 -0.987015
O	 0.057669	 1.301365	 -0.158528
C	 0.004145	 -0.005141	 0.363049
C	 1.199168	 -0.827145	 -0.096690
C	 -1.316386	 -0.602081	 -0.083515
H	 0.012026	 0.043363	 1.450619
H	 1.216685	 -0.896776	 -1.178167
H	 2.129940	 -0.372354	 0.228035
H	 1.160783	 -1.829622	 0.314294
H	 -1.357882	 -0.655920	 -1.165207
H	 -2.140147	 0.011735	 0.257253
H	 -1.440790	 -1.601175	 0.317669

	symmetry c1
}
set optking {
	frozen_dihedral = ("
		1 2 3 4
	")
}

ee,wfn = optimize('scf', return_wfn=True)
oeprop( wfn, 'DIPOLE', 'QUADRUPOLE', 'MULLIKEN_CHARGES')
f=open( 'psi4out.xyz', 'w' )
f.write( "12  " )
f.write( str(ee) + "\n" )
f.write( MOL.save_string_xyz() )
f.close()
--------------------------------------------------------------------------

    Molecular point group: c1
  Charge       = 0
  Multiplicity = 1
  Basis Set: CC-PVTZ
  Basis Set:
  @DF-RHF Final Energy:  -193.19293128269285
    Total Energy =                       -193.1929312826929959
    Molecular point group: c1
  Basis Set: CC-PVTZ
  Basis Set:
  Basis Set: CC-PVTZ
  Basis Set:
  @DF-RHF Final Energy:  -193.19444862233794
    Total Energy =                       -193.1944486223379727
  Basis Set: CC-PVTZ
  Basis Set:
  Basis Set: CC-PVTZ
  Basis Set:
  @DF-RHF Final Energy:  -193.19483824305897
    Total Energy =                       -193.1948382430589959
  Basis Set: CC-PVTZ
  Basis Set:
  Charge       = 0
  Multiplicity = 1
  Basis Set: CC-PVTZ
  Basis Set:

    Orbital Energies (a.u.)
    -----------------------

    Doubly Occupied:

       1A    -20.543140     2A    -11.273927     3A    -11.215398
       4A    -11.206831     5A     -1.363816     6A     -1.043340
       7A     -0.942644     8A     -0.818944     9A     -0.663198
      10A     -0.648637    11A     -0.605623    12A     -0.570651
      13A     -0.545666    14A     -0.517231    15A     -0.512807
      16A     -0.466685    17A     -0.433039

  @DF-RHF Final Energy:  -193.19484156133376

   => Energetics <=

    Nuclear Repulsion Energy =            135.5716775428100505
    One-Electron Energy =                -530.7898832597472847
    Two-Electron Energy =                 202.0233641556034172
    DFT Exchange-Correlation Energy =       0.0000000000000000
    Empirical Dispersion Energy =           0.0000000000000000
    PCM Polarization Energy =               0.0000000000000000
    EFP Energy =                            0.0000000000000000
    Total Energy =                       -193.1948415613338170
    Molecular point group: c1
  Basis Set: CC-PVTZ
  Basis Set:

  -Total Gradient:
     Atom            X                  Y                   Z
    ------   -----------------  -----------------  -----------------
       1       -0.001421855355     0.000321300822     0.000658361673
       2        0.002021227663    -0.000385603351    -0.000467706254
       3       -0.000939372710    -0.000313058785    -0.000969437907
       4        0.000381901942     0.000406478593     0.000827369025
       5       -0.000110480355    -0.000084465796    -0.000087633224
       6        0.000030513101     0.000004181042    -0.000035041977
       7       -0.000003587859     0.000005793250     0.000019812095
       8        0.000047370755    -0.000015384538    -0.000001569196
       9       -0.000046891472     0.000042101133     0.000019871399
      10       -0.000001532810    -0.000001237336     0.000000735491
      11        0.000016796938     0.000015347801     0.000023231495
      12        0.000025910159     0.000004547166     0.000012007381

  **** Optimization is complete! (in 4 steps) ****
    Final optimized geometry and variables:
    Molecular point group: c1

    Geometry (in Angstrom), charge = 0, multiplicity = 1:

    H           -0.260936155974     1.416848000558    -0.951613596857
    O            0.113573483603     1.328306303012    -0.094064053476
    C           -0.003682342484    -0.002120135821     0.353497839483
    C            1.215341373379    -0.811794633370    -0.061066237921
    C           -1.310300812538    -0.627765401501    -0.108401896811
    H           -0.017550143760     0.064959556241     1.435211748376
    H            1.268104466580    -0.904379318676    -1.141606831035
    H            2.119224904374    -0.323464143760     0.279527532854
    H            1.181488246556    -1.809699341425     0.362545010590
    H           -1.339460595251    -0.704261825383    -1.192440455812
    H           -2.153174859945    -0.028895596875     0.214599765981
    H           -1.425678670517    -1.626453478510     0.295431447994

  Mulliken Charges: (a.u.)
   Center  Symbol    Alpha    Beta     Spin     Total
       1     H     0.39401  0.39401  0.00000  0.21198
       2     O     4.20992  4.20992  0.00000 -0.41984
       3     C     2.92475  2.92475  0.00000  0.15050
       4     C     3.14062  3.14062  0.00000 -0.28124
       5     C     3.15298  3.15298  0.00000 -0.30597
       6     H     0.45392  0.45392  0.00000  0.09215
       7     H     0.46116  0.46116  0.00000  0.07767
       8     H     0.44597  0.44597  0.00000  0.10806
       9     H     0.45859  0.45859  0.00000  0.08281
      10     H     0.46071  0.46071  0.00000  0.07859
      11     H     0.44418  0.44418  0.00000  0.11164
      12     H     0.45318  0.45318  0.00000  0.09364

   Total alpha = 17.00000, Total beta = 17.00000, Total charge =  0.00000

*** Psi4 exiting successfully. Buy a developer a beer!
