  ==> Input File <==

--------------------------------------------------------------------------
set {
	reference rhf
	basis cc-pvtz
}

set_num_threads( 4 )
memory 2 gb

molecule MOL {
0 1

H	 -2.065796	 -0.729479	 -0.556332
O	 -2.041679	 -0.058866	 0.103463
C	 -0.959304	 0.780994	 -0.094939
C	 0.354905	 0.037902	 -0.006215
H	 -0.985899	 1.279578	 -1.057596
H	 -0.969809	 1.529522	 0.682889
F	 0.412060	 -0.931028	 -0.902708
F	 1.359641	 0.856111	 -0.239961
F	 0.545380	 -0.506387	 1.171682

	symmetry c1
}
set optking {
	frozen_dihedral = ("
		1 2 3 5
	")
}

ee = optimize('scf')
oeprop('DIPOLE', 'QUADRUPOLE', 'MULLIKEN_CHARGES')
f=open( 'psi4out.xyz', 'w' )
f.write( "9  " )
f.write( str(ee) + "\n" )
f.write( MOL.save_string_xyz() )
f.close()
--------------------------------------------------------------------------

    Molecular point group: c1
  Charge       = 0
  Multiplicity = 1
  Basis Set: CC-PVTZ
  Basis Set:
  @DF-RHF Final Energy:  -450.84719417103088
    Total Energy =                       -450.8471941710308784
    Molecular point group: c1
  Basis Set: CC-PVTZ
  Basis Set:
  Basis Set: CC-PVTZ
  Basis Set:
  @DF-RHF Final Energy:  -450.84719998565390
    Total Energy =                       -450.8471999856540720
  Basis Set: CC-PVTZ
  Basis Set:
  Basis Set: CC-PVTZ
  Basis Set:
  @DF-RHF Final Energy:  -450.84720108194608
    Total Energy =                       -450.8472010819462525
  Basis Set: CC-PVTZ
  Basis Set:
  Charge       = 0
  Multiplicity = 1
  Basis Set: CC-PVTZ
  Basis Set:

    Orbital Energies (a.u.)
    -----------------------

    Doubly Occupied:

       1A    -26.341012     2A    -26.340481     3A    -26.336621
       4A    -20.583600     5A    -11.494865     6A    -11.309968
       7A     -1.748908     8A     -1.646119     9A     -1.643834
      10A     -1.407111    11A     -1.050947    12A     -0.930619
      13A     -0.838892    14A     -0.837266    15A     -0.813644
      16A     -0.730930    17A     -0.719894    18A     -0.702803
      19A     -0.672669    20A     -0.667058    21A     -0.650373
      22A     -0.632954    23A     -0.621982    24A     -0.533285
      25A     -0.484764

  @DF-RHF Final Energy:  -450.84720116350206

   => Energetics <=

    Nuclear Repulsion Energy =            277.7762586165066523
    One-Electron Energy =               -1177.7657204685970100
    Two-Electron Energy =                 449.1422606885882942
    DFT Exchange-Correlation Energy =       0.0000000000000000
    Empirical Dispersion Energy =           0.0000000000000000
    PCM Polarization Energy =               0.0000000000000000
    EFP Energy =                            0.0000000000000000
    Total Energy =                       -450.8472011635020635
    Molecular point group: c1
  Basis Set: CC-PVTZ
  Basis Set:

  -Total Gradient:
     Atom            X                  Y                   Z
    ------   -----------------  -----------------  -----------------
       1        0.000429608619    -0.000457526943     0.000435984781
       2       -0.000647862653     0.000707590865    -0.000453534740
       3        0.000567645361    -0.000772890093    -0.000267719749
       4       -0.000040930269    -0.000024668172     0.000009896796
       5       -0.000339822443     0.000512071348     0.000281259358
       6        0.000004425718     0.000003300852     0.000001723508
       7        0.000007769902     0.000022680263     0.000037641768
       8        0.000025277112     0.000019384050    -0.000018776286
       9       -0.000006111346    -0.000009942168    -0.000026475432

  **** Optimization is complete! (in 4 steps) ****
    Final optimized geometry and variables:
    Molecular point group: c1

    Geometry (in Angstrom), charge = 0, multiplicity = 1:

    H           -2.071043324570    -0.725518021718    -0.563884370196
    O           -2.043942670142    -0.058864504881     0.100139393635
    C           -0.960185185125     0.779965954661    -0.095079517507
    C            0.354912473871     0.039299999148    -0.006158538637
    H           -0.988580422386     1.284257793693    -1.054873489615
    H           -0.972654333090     1.526089710790     0.685106174462
    F            0.409785261593    -0.934881290262    -0.897733184064
    F            1.358356769551     0.856282763499    -0.246788899670
    F            0.548883841903    -0.499913357986     1.173687332818

  Mulliken Charges: (a.u.)
   Center  Symbol    Alpha    Beta     Spin     Total
       1     H     0.38656  0.38656  0.00000  0.22689
       2     O     4.19262  4.19262  0.00000 -0.38524
       3     C     2.98840  2.98840  0.00000  0.02320
       4     C     2.68503  2.68503  0.00000  0.62994
       5     H     0.46253  0.46253  0.00000  0.07493
       6     H     0.44811  0.44811  0.00000  0.10378
       7     F     4.61780  4.61780  0.00000 -0.23559
       8     F     4.61157  4.61157  0.00000 -0.22313
       9     F     4.60738  4.60738  0.00000 -0.21477

   Total alpha = 25.00000, Total beta = 25.00000, Total charge = -0.00000
