                              Psi4 1.0.54 Driver

  ==> Input File <==

--------------------------------------------------------------------------
set {
	reference rhf
	basis cc-pvtz
}

set_num_threads( 4 )
memory 2 gb

molecule MOL {
0 1

H	 -2.816458	 -0.841657	 -0.064679
N	 -1.878861	 -0.711874	 0.250184
C	 -1.341419	 0.551458	 -0.220231
H	 -1.333674	 -1.468530	 -0.105118
C	 -0.862336	 0.424768	 -1.648193
H	 -2.055787	 1.372195	 -0.169101
H	 -0.492799	 0.819922	 0.399302
O	 -1.960190	 0.165907	 -2.470030
H	 -0.373172	 1.347509	 -1.957129
H	 -0.139822	 -0.384942	 -1.720793
C	 -1.643345	 -0.040956	 -3.806457
H	 -2.563486	 -0.227198	 -4.341285
H	 -1.158103	 0.831120	 -4.239722
H	 -0.985634	 -0.897912	 -3.931374

	symmetry c1
}
set optking {
	frozen_dihedral = ("
		6 3 2 4
	")
}

ee,wfn = optimize('scf', return_wfn=True)
oeprop( wfn, 'DIPOLE', 'QUADRUPOLE', 'MULLIKEN_CHARGES')
f=open( 'psi4out.xyz', 'w' )
f.write( "14  " )
f.write( str(ee) + "\n" )
f.write( MOL.save_string_xyz() )
f.close()
--------------------------------------------------------------------------

    Molecular point group: c1
  Charge       = 0
  Multiplicity = 1
  Basis Set: CC-PVTZ
  Basis Set:
  @DF-RHF Final Energy:  -248.22221300006413
    Total Energy =                       -248.2222130000641300
    Molecular point group: c1
  Basis Set: CC-PVTZ
  Basis Set:
  Basis Set: CC-PVTZ
  Basis Set:
  @DF-RHF Final Energy:  -247.32986567442506
    Total Energy =                       -247.3298656744249797
  Basis Set: CC-PVTZ
  Basis Set:
  Basis Set: CC-PVTZ
  Basis Set:
  @DF-RHF Final Energy:  -247.52042325849527
    Total Energy =                       -247.5204232584953274
  Basis Set: CC-PVTZ
  Basis Set:
  Basis Set: CC-PVTZ
  Basis Set:
  @DF-RHF Final Energy:  -247.82461414457637
    Total Energy =                       -247.8246141445764579
  Basis Set: CC-PVTZ
  Basis Set:
  @DF-RHF Final Energy:  -248.09996838293850
    Total Energy =                       -248.0999683829384708
  @DF-RHF Final Energy:  -248.20993178884379
    Total Energy =                       -248.2099317888437895
  @DF-RHF Final Energy:  -248.22016388179208
    Total Energy =                       -248.2201638817920184
  @DF-RHF Final Energy:  -248.22144542272409
    Total Energy =                       -248.2214454227241731
  Basis Set: CC-PVTZ
  Basis Set:
  @DF-RHF Final Energy:  -248.22428247177785
    Total Energy =                       -248.2242824717777125
  Basis Set: CC-PVTZ
  Basis Set:
  Basis Set: CC-PVTZ
  Basis Set:
  @DF-RHF Final Energy:  -248.22443906815633
    Total Energy =                       -248.2244390681564141
  Basis Set: CC-PVTZ
  Basis Set:
  Basis Set: CC-PVTZ
  Basis Set:
  @DF-RHF Final Energy:  -248.22444616905520
    Total Energy =                       -248.2244461690550565
  Basis Set: CC-PVTZ
  Basis Set:
  Charge       = 0
  Multiplicity = 1
  Basis Set: CC-PVTZ
  Basis Set:

    Orbital Energies (a.u.)
    -----------------------

    Doubly Occupied:

       1A    -20.553979     2A    -15.525021     3A    -11.267812
       4A    -11.267109     5A    -11.240802     6A     -1.388341
       7A     -1.177307     8A     -1.001763     9A     -0.910314
      10A     -0.824066    11A     -0.687683    12A     -0.670344
      13A     -0.647722    14A     -0.638314    15A     -0.583064
      16A     -0.546971    17A     -0.531729    18A     -0.507233
      19A     -0.477379    20A     -0.423705    21A     -0.385831

  @DF-RHF Final Energy:  -248.22444688443451

   => Energetics <=

    Nuclear Repulsion Energy =            194.2873838295266467
    One-Electron Energy =                -722.5106853042220791
    Two-Electron Energy =                 279.9988545902608053
    DFT Exchange-Correlation Energy =       0.0000000000000000
    Empirical Dispersion Energy =           0.0000000000000000
    PCM Polarization Energy =               0.0000000000000000
    EFP Energy =                            0.0000000000000000
    Total Energy =                       -248.2244468844345988
    Molecular point group: c1
  Basis Set: CC-PVTZ
  Basis Set:

  -Total Gradient:
     Atom            X                  Y                   Z
    ------   -----------------  -----------------  -----------------
       1       -0.000004809856     0.000001276196     0.000007111815
       2        0.001854341366    -0.002636048303     0.001177090545
       3        0.000623325932    -0.001917492153     0.002171617419
       4       -0.001656092057     0.002485427171    -0.001347739481
       5       -0.000050175776     0.000024926574    -0.000010279536
       6       -0.000810111459     0.002061019219    -0.002001883182
       7        0.000008690105    -0.000007137447     0.000009100047
       8        0.000010778444    -0.000018300417     0.000000235208
       9        0.000014657168    -0.000001722026     0.000018510720
      10        0.000016040180    -0.000013660305    -0.000010213497
      11       -0.000010967610    -0.000011848417    -0.000005154907
      12        0.000002782766     0.000017802948    -0.000008493414
      13        0.000004246926     0.000013384300     0.000001168394
      14       -0.000002706128     0.000002372663    -0.000001070131

  **** Optimization is complete! (in 12 steps) ****
    Final optimized geometry and variables:
    Molecular point group: c1

    Geometry (in Angstrom), charge = 0, multiplicity = 1:

    H           -1.653312846984    -1.414693422147     0.391937035859
    N           -0.779353178512    -1.873828723565     0.539355572634
    C            0.169511452357    -0.936492605391     1.114796653830
    H           -0.477551726194    -2.171812973882    -0.365773557662
    C            0.758933727960     0.066748914582     0.140433389398
    H           -0.336815238553    -0.378898026261     1.893344394830
    H            0.984292964348    -1.483968066068     1.576478064212
    O           -0.260853537723     0.866594213260    -0.370008445092
    H            1.501894349986     0.680286877688     0.649928864332
    H            1.268929589422    -0.453946217294    -0.671899657492
    C            0.155692798331     1.816445780179    -1.293823697505
    H           -0.713990024085     2.370933192566    -1.615447786000
    H            0.870840873339     2.510269378013    -0.857374926033
    H            0.615607862864     1.351763256467    -2.163357115520

  Mulliken Charges: (a.u.)
   Center  Symbol    Alpha    Beta     Spin     Total
       1     H     0.42655  0.42655  0.00000  0.14690
       2     N     3.68451  3.68451  0.00000 -0.36903
       3     C     3.02736  3.02736  0.00000 -0.05472
       4     H     0.43494  0.43494  0.00000  0.13013
       5     C     2.97078  2.97078  0.00000  0.05844
       6     H     0.45387  0.45387  0.00000  0.09225
       7     H     0.45597  0.45597  0.00000  0.08805
       8     O     4.17632  4.17632  0.00000 -0.35264
       9     H     0.47130  0.47130  0.00000  0.05740
      10     H     0.47784  0.47784  0.00000  0.04432
      11     C     3.03116  3.03116  0.00000 -0.06232
      12     H     0.44702  0.44702  0.00000  0.10595
      13     H     0.47070  0.47070  0.00000  0.05861
      14     H     0.47167  0.47167  0.00000  0.05666

   Total alpha = 21.00000, Total beta = 21.00000, Total charge = -0.00000

*** Psi4 exiting successfully. Buy a developer a beer!
