  ==> Input File <==

--------------------------------------------------------------------------
set {
	reference rhf
	basis 6-31G*
}

set_num_threads( 4 )
memory 2 gb

molecule MOL {
0 1

H	 1.458104	 0.840257	 -2.048411
O	 0.608676	 0.667878	 -1.668575
C	 0.702312	 0.627605	 -0.264544
C	 -0.714990	 0.596302	 0.266387
H	 1.211291	 1.510650	 0.112319
H	 1.247311	 -0.254464	 0.064781
O	 -1.405996	 -0.526611	 -0.195820
H	 -1.257453	 1.468809	 -0.075599
H	 -0.688972	 0.618407	 1.353696
H	 -0.890587	 -1.292708	 0.022039

	symmetry c1
}
set optking {
	frozen_dihedral = ("
		5 3 4 7
	")
}

ee = optimize('scf')
oeprop('DIPOLE', 'QUADRUPOLE', 'MULLIKEN_CHARGES')
f=open( 'psi4out.xyz', 'w' )
f.write( "10  " )
f.write( str(ee) + "\n" )
f.write( MOL.save_string_xyz() )
f.close()
--------------------------------------------------------------------------

    Molecular point group: c1
  Charge       = 0
  Multiplicity = 1
  Basis Set: 6-31G*
  Basis Set:
  @DF-RHF Final Energy:  -228.91782587557267
    Total Energy =                       -228.9178258755727882
    Molecular point group: c1
  Basis Set: 6-31G*
  Basis Set:
  Basis Set: 6-31G*
  Basis Set:
  @DF-RHF Final Energy:  -228.91860391847320
    Total Energy =                       -228.9186039184730532
  Basis Set: 6-31G*
  Basis Set:
  Basis Set: 6-31G*
  Basis Set:
  @DF-RHF Final Energy:  -228.91875170419070
    Total Energy =                       -228.9187517041906972
  Basis Set: 6-31G*
  Basis Set:
  Basis Set: 6-31G*
  Basis Set:
  @DF-RHF Final Energy:  -228.91875888651828
    Total Energy =                       -228.9187588865183614
  Basis Set: 6-31G*
  Basis Set:
  Charge       = 0
  Multiplicity = 1
  Basis Set: 6-31G*
  Basis Set:

    Orbital Energies (a.u.)
    -----------------------

    Doubly Occupied:

       1A    -20.559206     2A    -20.552469     3A    -11.277680
       4A    -11.270293     5A     -1.375886     6A     -1.352940
       7A     -1.002899     8A     -0.845825     9A     -0.719598
      10A     -0.674373    11A     -0.658702    12A     -0.597401
      13A     -0.570347    14A     -0.541861    15A     -0.475735
      16A     -0.446452    17A     -0.436937

  @DF-RHF Final Energy:  -228.91875923038035

   => Energetics <=

    Nuclear Repulsion Energy =            133.5868899934020249
    One-Electron Energy =                -578.2940899797429211
    Two-Electron Energy =                 215.7884407559606643
    DFT Exchange-Correlation Energy =       0.0000000000000000
    Empirical Dispersion Energy =           0.0000000000000000
    PCM Polarization Energy =               0.0000000000000000
    EFP Energy =                            0.0000000000000000
    Total Energy =                       -228.9187592303802603
    Molecular point group: c1
  Basis Set: 6-31G*
  Basis Set:

  -Total Gradient:
     Atom            X                  Y                   Z
    ------   -----------------  -----------------  -----------------
       1       -0.000003793448     0.000000990390     0.000011376868
       2       -0.000010572718     0.000005151733     0.000044557551
       3        0.000408534805    -0.000651500495     0.000924043317
       4        0.000383127344    -0.000616955245     0.000827872906
       5       -0.000415590576     0.000707330334    -0.001011647899
       6       -0.000004832167     0.000005200506     0.000003583708
       7       -0.000391247210     0.000537384539    -0.000802109720
       8        0.000004507659     0.000012103058     0.000011193195
       9        0.000018193250     0.000012279145    -0.000000686555
      10        0.000011673064    -0.000011983963    -0.000008183369

  **** Optimization is complete! (in 5 steps) ****
    Final optimized geometry and variables:
    Molecular point group: c1

    Geometry (in Angstrom), charge = 0, multiplicity = 1:

    H            1.699209136073     0.432013935610    -1.548625687307
    O            0.824527331470     0.379666948316    -1.190766959610
    C            0.888757249444     0.323833426276     0.205171084658
    C           -0.518972628244     0.247182143771     0.762899338446
    H            1.370614626543     1.213472376044     0.608961580301
    H            1.464912585325    -0.542561144973     0.534346143599
    O           -1.242672194480    -0.860451139567     0.313858238118
    H           -1.074883887219     1.117610473053     0.442156006281
    H           -0.461864659602     0.266983042744     1.851103652538
    H           -0.764687519384    -1.656109239105     0.502587389987

  Mulliken Charges: (a.u.)
   Center  Symbol    Alpha    Beta     Spin     Total
       1     H     0.27973  0.27973  0.00000  0.44055
       2     O     4.36112  4.36112  0.00000 -0.72225
       3     C     3.01260  3.01260  0.00000 -0.02520
       4     C     2.99462  2.99462  0.00000  0.01077
       5     H     0.42944  0.42944  0.00000  0.14111
       6     H     0.43643  0.43643  0.00000  0.12715
       7     O     4.36241  4.36241  0.00000 -0.72481
       8     H     0.40853  0.40853  0.00000  0.18294
       9     H     0.43178  0.43178  0.00000  0.13644
      10     H     0.28335  0.28335  0.00000  0.43330

   Total alpha = 17.00000, Total beta = 17.00000, Total charge = -0.00000
