                              Psi4 1.0.54 Driver

  ==> Input File <==

--------------------------------------------------------------------------
set {
	reference rhf
	basis cc-pvtz
}

set_num_threads( 4 )
memory 2 gb

molecule MOL {
0 1

O	 1.294769	 -2.648328	 0.774054
C	 0.397710	 -1.966923	 0.412320
C	 -1.041334	 -2.393613	 0.359935
O	 0.550743	 -0.719877	 0.000412
H	 -1.637213	 -1.737785	 0.981404
H	 -1.128983	 -3.411694	 0.702515
H	 -1.408377	 -2.308138	 -0.654663
C	 1.863204	 -0.194033	 0.000410
H	 2.031502	 0.409177	 -0.879273
H	 2.524488	 -1.045142	 0.000793
H	 2.031291	 0.409823	 0.879686

	symmetry c1
}
set optking {
	frozen_dihedral = ("
		2 4 8 9
	")
}

ee,wfn = optimize('scf', return_wfn=True)
oeprop( wfn, 'DIPOLE', 'QUADRUPOLE', 'MULLIKEN_CHARGES')
f=open( 'psi4out.xyz', 'w' )
f.write( "11  " )
f.write( str(ee) + "\n" )
f.write( MOL.save_string_xyz() )
f.close()
--------------------------------------------------------------------------

    Molecular point group: c1
  Charge       = 0
  Multiplicity = 1
  Basis Set: CC-PVTZ
  Basis Set:
  @DF-RHF Final Energy:  -266.93582751390369
    Total Energy =                       -266.9358275139038597
    Molecular point group: c1
  Basis Set: CC-PVTZ
  Basis Set:
  Basis Set: CC-PVTZ
  Basis Set:
  @DF-RHF Final Energy:  -266.91984620625658
    Total Energy =                       -266.9198462062565795
  Basis Set: CC-PVTZ
  Basis Set:
  Basis Set: CC-PVTZ
  Basis Set:
  @DF-RHF Final Energy:  -266.93737436808340
    Total Energy =                       -266.9373743680835105
  Basis Set: CC-PVTZ
  Basis Set:
  Basis Set: CC-PVTZ
  Basis Set:
  @DF-RHF Final Energy:  -266.93757207053523
    Total Energy =                       -266.9375720705351114
  Basis Set: CC-PVTZ
  Basis Set:
  @DF-RHF Final Energy:  -266.93076180509331
    Total Energy =                       -266.9307618050931978
  Basis Set: CC-PVTZ
  Basis Set:
  @DF-RHF Final Energy:  -266.93659657886781
    Total Energy =                       -266.9365965788679205
  Basis Set: CC-PVTZ
  Basis Set:
  Basis Set: CC-PVTZ
  Basis Set:
  @DF-RHF Final Energy:  -266.93760556975133
    Total Energy =                       -266.9376055697516108
  Basis Set: CC-PVTZ
  Basis Set:
  Basis Set: CC-PVTZ
  Basis Set:
  @DF-RHF Final Energy:  -266.93761580283046
    Total Energy =                       -266.9376158028303507
  Basis Set: CC-PVTZ
  Basis Set:
  Charge       = 0
  Multiplicity = 1
  Basis Set: CC-PVTZ
  Basis Set:

    Orbital Energies (a.u.)
    -----------------------

    Doubly Occupied:

       1A    -20.597873     2A    -20.534649     3A    -11.369873
       4A    -11.278849     5A    -11.232703     6A     -1.472104
       7A     -1.368092     8A     -1.036968     9A     -0.954082
      10A     -0.779353    11A     -0.699023    12A     -0.682810
      13A     -0.680947    14A     -0.598077    15A     -0.592454
      16A     -0.561535    17A     -0.530420    18A     -0.520922
      19A     -0.459605    20A     -0.445893

  @DF-RHF Final Energy:  -266.93761617031902

   => Energetics <=

    Nuclear Repulsion Energy =            183.3206995697008210
    One-Electron Energy =                -727.7241642293458881
    Two-Electron Energy =                 277.4658484893261061
    DFT Exchange-Correlation Energy =       0.0000000000000000
    Empirical Dispersion Energy =           0.0000000000000000
    PCM Polarization Energy =               0.0000000000000000
    EFP Energy =                            0.0000000000000000
    Total Energy =                       -266.9376161703190178
    Molecular point group: c1
  Basis Set: CC-PVTZ
  Basis Set:

  -Total Gradient:
     Atom            X                  Y                   Z
    ------   -----------------  -----------------  -----------------
       1       -0.000013803745     0.000017016882     0.000001144496
       2       -0.000196465223     0.000184146620    -0.001091232012
       3       -0.000020779134    -0.000033382530    -0.000014659153
       4        0.000293356528    -0.000438320905     0.001361643204
       5        0.000008471032    -0.000005981245    -0.000011139954
       6       -0.000010616652     0.000008525160     0.000000593283
       7        0.000011428428    -0.000008909268     0.000017766508
       8       -0.000361048112     0.000877351574     0.000808453973
       9        0.000292279158    -0.000622241868    -0.001067472561
      10       -0.000019131646     0.000013714390     0.000011020898
      11        0.000016309365     0.000008081186    -0.000016118682

  **** Optimization is complete! (in 9 steps) ****
    Final optimized geometry and variables:
    Molecular point group: c1

    Geometry (in Angstrom), charge = 0, multiplicity = 1:

    O            0.796932724435    -1.096874690832    -0.181979400345
    C           -0.175177085262    -0.443896907523    -0.015639540597
    C           -1.568698235459    -0.995353100821     0.089045250340
    O           -0.172888905299     0.873798659382     0.104563563468
    H           -1.996432078839    -0.719681631983     1.044235734867
    H           -1.541153812268    -2.068123774693    -0.010436121374
    H           -2.188964561861    -0.563676346979    -0.685661855918
    C            1.052699137733     1.574486184869     0.005399426110
    H            0.856476941273     2.473304905371    -0.558256673903
    H            1.795882784472     0.978408762086    -0.496126070253
    H            1.399878861165     1.829912601882     0.996571245118

  Mulliken Charges: (a.u.)
   Center  Symbol    Alpha    Beta     Spin     Total
       1     O     4.19704  4.19704  0.00000 -0.39407
       2     C     2.79868  2.79868  0.00000  0.40264
       3     C     3.13937  3.13937  0.00000 -0.27874
       4     O     4.14964  4.14964  0.00000 -0.29928
       5     H     0.44540  0.44540  0.00000  0.10920
       6     H     0.43796  0.43796  0.00000  0.12409
       7     H     0.44581  0.44581  0.00000  0.10838
       8     C     3.03565  3.03565  0.00000 -0.07130
       9     H     0.44974  0.44974  0.00000  0.10052
      10     H     0.44526  0.44526  0.00000  0.10948
      11     H     0.45547  0.45547  0.00000  0.08907

   Total alpha = 20.00000, Total beta = 20.00000, Total charge = -0.00000

*** Psi4 exiting successfully. Buy a developer a beer!
