  ==> Input File <==

--------------------------------------------------------------------------
set {
	reference rhf
	basis 6-31G*
}

set_num_threads( 4 )
memory 2 gb

molecule MOL {
0 1

H	 -2.494981	 -2.320061	 0.017232
C	 -1.940169	 -1.400546	 0.009979
C	 -2.590141	 -0.178088	 0.001118
C	 -0.562021	 -1.426175	 0.009487
H	 -3.664504	 -0.137027	 0.001452
C	 -1.863206	 0.997586	 -0.008138
H	 -0.029680	 -2.354260	 0.016366
C	 0.154804	 -0.237046	 -0.000077
H	 -2.386154	 1.935977	 -0.014735
C	 -0.469895	 1.014632	 -0.009240
N	 1.611208	 -0.370857	 -0.000034
C	 0.222974	 2.359532	 -0.019592
O	 2.274126	 0.622059	 -0.008063
O	 2.068510	 -1.474748	 0.007823
H	 0.850583	 2.476621	 -0.892247
H	 -0.524323	 3.143061	 -0.021558
H	 0.856723	 2.486929	 0.847158

	symmetry c1
}
set optking {
	frozen_dihedral = ("
		4 8 11 13
	")
}

ee = optimize('scf')
oeprop('DIPOLE', 'QUADRUPOLE', 'MULLIKEN_CHARGES')
f=open( 'psi4out.xyz', 'w' )
f.write( "17  " )
f.write( str(ee) + "\n" )
f.write( MOL.save_string_xyz() )
f.close()
--------------------------------------------------------------------------

    Molecular point group: c1
  Charge       = 0
  Multiplicity = 1
  Basis Set: 6-31G*
  Basis Set:
  @DF-RHF Final Energy:  -473.20649207371753
    Total Energy =                       -473.2064920737172997
    Molecular point group: c1
  Basis Set: 6-31G*
  Basis Set:
  Basis Set: 6-31G*
  Basis Set:
  @DF-RHF Final Energy:  -473.20648892183419
    Total Energy =                       -473.2064889218345343
  Basis Set: 6-31G*
  Basis Set:
  Basis Set: 6-31G*
  Basis Set:
  @DF-RHF Final Energy:  -473.20648999643345
    Total Energy =                       -473.2064899964332199
  Basis Set: 6-31G*
  Basis Set:
  Charge       = 0
  Multiplicity = 1
  Basis Set: 6-31G*
  Basis Set:

    Orbital Energies (a.u.)
    -----------------------

    Doubly Occupied:

       1A    -20.597881     2A    -20.595656     3A    -15.853117
       4A    -11.300881     5A    -11.283403     6A    -11.265562
       7A    -11.264705     8A    -11.253694     9A    -11.252844
      10A    -11.232562    11A     -1.631474    12A     -1.413233
      13A     -1.199215    14A     -1.091214    15A     -1.071433
      16A     -0.979745    17A     -0.930196    18A     -0.846089
      19A     -0.823056    20A     -0.768445    21A     -0.731182
      22A     -0.724843    23A     -0.692931    24A     -0.664480
      25A     -0.637958    26A     -0.597601    27A     -0.588385
      28A     -0.561308    29A     -0.541013    30A     -0.519779
      31A     -0.518607    32A     -0.484280    33A     -0.475904
      34A     -0.448093    35A     -0.370159    36A     -0.353400

  @DF-RHF Final Energy:  -473.20649224907294

   => Energetics <=

    Nuclear Repulsion Energy =            509.7379062976612545
    One-Electron Energy =               -1654.7601441751080529
    Two-Electron Energy =                 671.8157456283740885
    DFT Exchange-Correlation Energy =       0.0000000000000000
    Empirical Dispersion Energy =           0.0000000000000000
    PCM Polarization Energy =               0.0000000000000000
    EFP Energy =                            0.0000000000000000
    Total Energy =                       -473.2064922490726531
    Molecular point group: c1
  Basis Set: 6-31G*
  Basis Set:

  -Total Gradient:
     Atom            X                  Y                   Z
    ------   -----------------  -----------------  -----------------
       1       -0.000000135684     0.000000044066     0.000001416579
       2       -0.000003191192     0.000001914438     0.000000324811
       3       -0.000000284540    -0.000003430515     0.000000433031
       4        0.000004540654     0.000005490761     0.000001726465
       5        0.000000724475     0.000000129979    -0.000001676635
       6        0.000003547589     0.000000500525    -0.000005456435
       7        0.000001210368    -0.000001568040     0.000001596166
       8        0.000003829755    -0.000005543438     0.000025336424
       9       -0.000000778401    -0.000000158779     0.000000068573
      10       -0.000004228124     0.000001141753     0.000000261292
      11       -0.000000646833    -0.000002951134    -0.000106326449
      12        0.000001186159     0.000001333017     0.000036177709
      13       -0.000000153768     0.000005311281     0.000034822616
      14       -0.000005258377    -0.000002406082     0.000036806693
      15        0.000005648436    -0.000003177960    -0.000010589257
      16        0.000000251748     0.000000258046    -0.000004055124
      17       -0.000006262273     0.000003112086    -0.000010866459

  **** Optimization is complete! (in 4 steps) ****
    Final optimized geometry and variables:
    Molecular point group: c1

    Geometry (in Angstrom), charge = 0, multiplicity = 1:

    H           -2.494940849693    -2.320046937287     0.019363189766
    C           -1.940124777361    -1.400514437861     0.012032645692
    C           -2.590108504662    -0.178080923963     0.003455690104
    C           -0.561974713049    -1.426144283094     0.011044008928
    H           -3.664432892146    -0.137037935783     0.004000589109
    C           -1.863204311648     0.997583085265    -0.005855441953
    H           -0.029578606201    -2.354232305190     0.017491644659
    C            0.154812361174    -0.237001956773     0.001596714861
    H           -2.386186809014     1.935976565168    -0.012366679623
    C           -0.469874667613     1.014656595766    -0.007102636167
    N            1.611200764143    -0.370859973299     0.001217234715
    C            0.222988559589     2.359568561243    -0.017524721325
    O            2.274142802503     0.622041474814    -0.006731545940
    O            2.068359868851    -1.474810364511     0.009457127253
    H            0.853057295275     2.475359514634    -0.888614605984
    H           -0.524270426273     3.143108473311    -0.022825968636
    H            0.854304938083     2.488282222720     0.850807769152

  Mulliken Charges: (a.u.)
   Center  Symbol    Alpha    Beta     Spin     Total
       1     H     0.38932  0.38932  0.00000  0.22136
       2     C     3.11184  3.11184  0.00000 -0.22368
       3     C     3.08022  3.08022  0.00000 -0.16043
       4     C     3.08444  3.08444  0.00000 -0.16887
       5     H     0.38935  0.38935  0.00000  0.22131
       6     C     3.12628  3.12628  0.00000 -0.25257
       7     H     0.36221  0.36221  0.00000  0.27558
       8     C     2.93783  2.93783  0.00000  0.12433
       9     H     0.39271  0.39271  0.00000  0.21458
      10     C     2.96281  2.96281  0.00000  0.07437
      11     N     3.24171  3.24171  0.00000  0.51658
      12     C     3.23511  3.23511  0.00000 -0.47023
      13     O     4.23804  4.23804  0.00000 -0.47609
      14     O     4.23745  4.23745  0.00000 -0.47490
      15     H     0.39766  0.39766  0.00000  0.20468
      16     H     0.41534  0.41534  0.00000  0.16932
      17     H     0.39767  0.39767  0.00000  0.20467

   Total alpha = 36.00000, Total beta = 36.00000, Total charge = -0.00000
