                              Psi4 1.0.54 Driver

  ==> Input File <==

--------------------------------------------------------------------------
set {
	reference rhf
	basis cc-pvtz
}

set_num_threads( 4 )
memory 2 gb

molecule MOL {
0 1

O	 0.623971	 1.347241	 -0.000777
C	 0.485107	 0.171416	 -0.000134
C	 1.606966	 -0.836201	 0.000174
O	 -0.695554	 -0.422406	 0.000602
C	 2.988788	 -0.202529	 -0.000115
H	 1.465110	 -1.474645	 -0.864821
H	 1.465209	 -1.474077	 0.865596
H	 3.131767	 0.419673	 -0.873407
H	 3.750876	 -0.972315	 0.000098
H	 3.131883	 0.420264	 0.872742
C	 -0.925169	 -1.442437	 -0.961220
C	 -2.329437	 -1.961208	 -0.757758
H	 -0.190316	 -2.224034	 -0.829144
H	 -0.794067	 -1.029842	 -1.951624
H	 -2.449045	 -2.370821	 0.237372
H	 -2.538028	 -2.743607	 -1.477879
H	 -3.056245	 -1.169869	 -0.891559

	symmetry c1
}
set optking {
	frozen_dihedral = ("
		11 4 2 3
	")
}

ee,wfn = optimize('scf', return_wfn=True)
oeprop( wfn, 'DIPOLE', 'QUADRUPOLE', 'MULLIKEN_CHARGES')
f=open( 'psi4out.xyz', 'w' )
f.write( "17  " )
f.write( str(ee) + "\n" )
f.write( MOL.save_string_xyz() )
f.close()
--------------------------------------------------------------------------

    Molecular point group: c1
  Charge       = 0
  Multiplicity = 1
  Basis Set: CC-PVTZ
  Basis Set:
  @DF-RHF Final Energy:  -345.01645596703156
    Total Energy =                       -345.0164559670316748
    Molecular point group: c1
  Basis Set: CC-PVTZ
  Basis Set:
  Basis Set: CC-PVTZ
  Basis Set:
  @DF-RHF Final Energy:  -345.01245290183556
    Total Energy =                       -345.0124529018354451
  Basis Set: CC-PVTZ
  Basis Set:
  Basis Set: CC-PVTZ
  Basis Set:
  @DF-RHF Final Energy:  -345.02197719515857
    Total Energy =                       -345.0219771951586836
  Basis Set: CC-PVTZ
  Basis Set:
  Basis Set: CC-PVTZ
  Basis Set:
  @DF-RHF Final Energy:  -345.02136153145648
    Total Energy =                       -345.0213615314562503
  Basis Set: CC-PVTZ
  Basis Set:
  @DF-RHF Final Energy:  -345.02309800526604
    Total Energy =                       -345.0230980052666609
  Basis Set: CC-PVTZ
  Basis Set:
  @DF-RHF Final Energy:  -345.02320464200858
    Total Energy =                       -345.0232046420085226
  Basis Set: CC-PVTZ
  Basis Set:
  Basis Set: CC-PVTZ
  Basis Set:
  @DF-RHF Final Energy:  -345.02325160344543
    Total Energy =                       -345.0232516034456580
  Basis Set: CC-PVTZ
  Basis Set:
  Basis Set: CC-PVTZ
  Basis Set:
  @DF-RHF Final Energy:  -345.02325295195897
    Total Energy =                       -345.0232529519586251
  Basis Set: CC-PVTZ
  Basis Set:
  Charge       = 0
  Multiplicity = 1
  Basis Set: CC-PVTZ
  Basis Set:

    Orbital Energies (a.u.)
    -----------------------

    Doubly Occupied:

       1A    -20.583240     2A    -20.536151     3A    -11.365475
       4A    -11.296272     5A    -11.243144     6A    -11.224196
       7A    -11.217634     8A     -1.461625     9A     -1.368631
      10A     -1.064266    11A     -1.043609    12A     -0.902031
      13A     -0.876230    14A     -0.771341    15A     -0.704889
      16A     -0.691967    17A     -0.658602    18A     -0.638577
      19A     -0.600887    20A     -0.565896    21A     -0.560468
      22A     -0.538075    23A     -0.527489    24A     -0.518705
      25A     -0.510251    26A     -0.490664    27A     -0.452704
      28A     -0.435486

  @DF-RHF Final Energy:  -345.02325313787344

   => Energetics <=

    Nuclear Repulsion Energy =            315.4273170369802983
    One-Electron Energy =               -1095.2041297381701952
    Two-Electron Energy =                 434.7535595633164576
    DFT Exchange-Correlation Energy =       0.0000000000000000
    Empirical Dispersion Energy =           0.0000000000000000
    PCM Polarization Energy =               0.0000000000000000
    EFP Energy =                            0.0000000000000000
    Total Energy =                       -345.0232531378734393
    Molecular point group: c1
  Basis Set: CC-PVTZ
  Basis Set:

  -Total Gradient:
     Atom            X                  Y                   Z
    ------   -----------------  -----------------  -----------------
       1        0.000015272636     0.000015933587     0.000004357381
       2       -0.001123208954     0.002168643561    -0.005056125173
       3        0.000243951462    -0.000553261520     0.002845501590
       4        0.002186155737    -0.004152967976     0.003733766694
       5       -0.000008643824     0.000001673989    -0.000007686110
       6        0.000003982077     0.000004635153    -0.000009111904
       7        0.000009775439     0.000002850595    -0.000008992158
       8       -0.000004669643    -0.000002527289     0.000001057305
       9       -0.000001083204    -0.000003853720     0.000000567594
      10       -0.000002811189    -0.000000358800     0.000003747912
      11       -0.001316723834     0.002501421997    -0.001520178451
      12       -0.000007024753     0.000006764132     0.000005742064
      13        0.000003417674     0.000005788628     0.000001656351
      14        0.000004653030     0.000002952882     0.000005392233
      15        0.000000348301     0.000000994874    -0.000001591838
      16        0.000004387825     0.000003179410     0.000000229692
      17       -0.000007778779    -0.000001869502     0.000001666818

  **** Optimization is complete! (in 9 steps) ****
    Final optimized geometry and variables:
    Molecular point group: c1

    Geometry (in Angstrom), charge = 0, multiplicity = 1:

    O            0.343405845564     1.672640342470     0.604305983998
    C            0.286277234228     0.537314163946     0.298231186273
    C            1.502878017395    -0.320794836314     0.028230129722
    O           -0.896178701161    -0.091217443705     0.277806484834
    C            2.814351928044     0.409018393448     0.273850225841
    H            1.456973674055    -0.677614855727    -0.995400234743
    H            1.418939095180    -1.201118179603     0.656795534116
    H            2.899998910906     1.277835145846    -0.364152336334
    H            3.649640957690    -0.250330122606     0.071185632917
    H            2.884493786601     0.746793796534     1.298758599590
    C           -1.255685535552    -0.929431783923    -0.803691815243
    C           -2.721734859149    -1.266130802451    -0.658530421390
    H           -0.658106592292    -1.833413070913    -0.794998412858
    H           -1.075804007098    -0.410741551779    -1.738880649763
    H           -2.901933263423    -1.776353774592     0.278953983135
    H           -3.034176569287    -1.913101863549    -1.469947561939
    H           -3.321827726348    -0.366267437141    -0.679456584156

  Mulliken Charges: (a.u.)
   Center  Symbol    Alpha    Beta     Spin     Total
       1     O     4.17244  4.17244  0.00000 -0.34488
       2     C     2.81056  2.81056  0.00000  0.37887
       3     C     3.11859  3.11859  0.00000 -0.23717
       4     O     4.14576  4.14576  0.00000 -0.29153
       5     C     3.13885  3.13885  0.00000 -0.27769
       6     H     0.44441  0.44441  0.00000  0.11118
       7     H     0.43719  0.43719  0.00000  0.12562
       8     H     0.44665  0.44665  0.00000  0.10671
       9     H     0.45137  0.45137  0.00000  0.09727
      10     H     0.44582  0.44582  0.00000  0.10836
      11     C     2.98632  2.98632  0.00000  0.02736
      12     C     3.13289  3.13289  0.00000 -0.26577
      13     H     0.45962  0.45962  0.00000  0.08076
      14     H     0.45832  0.45832  0.00000  0.08337
      15     H     0.44887  0.44887  0.00000  0.10226
      16     H     0.45703  0.45703  0.00000  0.08594
      17     H     0.44532  0.44532  0.00000  0.10935

   Total alpha = 28.00000, Total beta = 28.00000, Total charge = -0.00000

*** Psi4 exiting successfully. Buy a developer a beer!
