                              Psi4 1.0.54 Driver

  ==> Input File <==

--------------------------------------------------------------------------
set {
	reference rhf
	basis cc-pvtz
}

set_num_threads( 4 )
memory 2 gb

molecule MOL {
0 1

H	 -3.401682	 -1.036167	 0.000000
O	 -3.113760	 -0.140926	 0.000000
C	 -1.775087	 -0.058754	 0.000000
C	 -1.025922	 -0.217567	 -1.159295
C	 -1.149292	 0.193337	 1.209551
H	 -1.518634	 -0.412919	 -2.093907
C	 0.344367	 -0.123527	 -1.103099
H	 -1.745598	 0.312577	 2.091719
C	 0.223722	 0.284550	 1.248793
H	 0.933657	 -0.244105	 -1.990402
C	 0.986332	 0.128659	 0.101374
H	 0.710271	 0.480094	 2.186637
C	 2.456036	 0.230637	 0.167955
O	 3.188507	 0.112190	 -0.757038
H	 2.856554	 0.431786	 1.167418

	symmetry c1
}
set optking {
	frozen_dihedral = ("
		5 3 2 1
	")
}

ee,wfn = optimize('scf', return_wfn=True)
oeprop( wfn, 'DIPOLE', 'QUADRUPOLE', 'MULLIKEN_CHARGES')
f=open( 'psi4out.xyz', 'w' )
f.write( "15  " )
f.write( str(ee) + "\n" )
f.write( MOL.save_string_xyz() )
f.close()
--------------------------------------------------------------------------

    Molecular point group: c1
  Charge       = 0
  Multiplicity = 1
  Basis Set: CC-PVTZ
  Basis Set:
  @DF-RHF Final Energy:  -418.43608651211127
    Total Energy =                       -418.4360865121111601
    Molecular point group: c1
  Basis Set: CC-PVTZ
  Basis Set:
  Basis Set: CC-PVTZ
  Basis Set:
  @DF-RHF Final Energy:  -418.43684314068872
    Total Energy =                       -418.4368431406886657
  Basis Set: CC-PVTZ
  Basis Set:
  Basis Set: CC-PVTZ
  Basis Set:
  @DF-RHF Final Energy:  -418.43680032421400
    Total Energy =                       -418.4368003242141185
  Basis Set: CC-PVTZ
  Basis Set:
  Basis Set: CC-PVTZ
  Basis Set:
  @DF-RHF Final Energy:  -418.43670303424534
    Total Energy =                       -418.4367030342452836
  Basis Set: CC-PVTZ
  Basis Set:
  Basis Set: CC-PVTZ
  Basis Set:
  @DF-RHF Final Energy:  -418.43691454519234
    Total Energy =                       -418.4369145451923941
  Basis Set: CC-PVTZ
  Basis Set:
  Charge       = 0
  Multiplicity = 1
  Basis Set: CC-PVTZ
  Basis Set:

    Orbital Energies (a.u.)
    -----------------------

    Doubly Occupied:

       1A    -20.587636     2A    -20.550861     3A    -11.326473
       4A    -11.312465     5A    -11.257919     6A    -11.251863
       7A    -11.243469     8A    -11.241009     9A    -11.240916
      10A     -1.416772    11A     -1.406972    12A     -1.175740
      13A     -1.045195    14A     -1.040864    15A     -0.890560
      16A     -0.862028    17A     -0.799916    18A     -0.755922
      19A     -0.711457    20A     -0.676167    21A     -0.651348
      22A     -0.636491    23A     -0.622494    24A     -0.609963
      25A     -0.564953    26A     -0.558635    27A     -0.540962
      28A     -0.502424    29A     -0.487580    30A     -0.425365
      31A     -0.359957    32A     -0.346133

  @DF-RHF Final Energy:  -418.43691585960931

   => Energetics <=

    Nuclear Repulsion Energy =            401.7001297325678593
    One-Electron Energy =               -1366.0730751143455564
    Two-Electron Energy =                 545.9360295221681554
    DFT Exchange-Correlation Energy =       0.0000000000000000
    Empirical Dispersion Energy =           0.0000000000000000
    PCM Polarization Energy =               0.0000000000000000
    EFP Energy =                            0.0000000000000000
    Total Energy =                       -418.4369158596095986
    Molecular point group: c1
  Basis Set: CC-PVTZ
  Basis Set:

  -Total Gradient:
     Atom            X                  Y                   Z
    ------   -----------------  -----------------  -----------------
       1       -0.000051920270     0.000006152688     0.001091170486
       2       -0.000015122945    -0.000440057575    -0.001275511635
       3        0.000042018573     0.001229245030    -0.000198980510
       4       -0.000202649528    -0.000045561312     0.000106176537
       5        0.000188504153    -0.000742949201     0.000250802284
       6        0.000005615287     0.000009140091    -0.000001941512
       7        0.000175113954     0.000033426354     0.000122635793
       8       -0.000000881440     0.000003095990    -0.000017965135
       9       -0.000137895501    -0.000077429484     0.000109172557
      10       -0.000014340633     0.000001090972    -0.000002578429
      11        0.000011171648    -0.000009012397    -0.000194001265
      12        0.000018634838     0.000015357945    -0.000009843711
      13       -0.000027829273     0.000054260122     0.000061642068
      14        0.000012957332    -0.000022319251    -0.000030181704
      15       -0.000003376190    -0.000014439970    -0.000010595823

  **** Optimization is complete! (in 6 steps) ****
    Final optimized geometry and variables:
    Molecular point group: c1

    Geometry (in Angstrom), charge = 0, multiplicity = 1:

    H           -3.421051777963    -1.062022342038     0.010485502490
    O           -3.126496456647    -0.167619449759     0.008591007726
    C           -1.766683847952    -0.104400284642     0.056256613863
    C           -1.025086402148    -0.259215923834    -1.106147489679
    C           -1.141235016092     0.151911661523     1.259289312210
    H           -1.535074758741    -0.442704144526    -2.031610653100
    C            0.345532211406    -0.162744899155    -1.057984627456
    H           -1.734304659589     0.278527119641     2.143153957180
    C            0.236190410427     0.251890259316     1.297581630820
    H            0.933860702280    -0.279206997868    -1.946357017757
    C            0.987643122572     0.093727492500     0.147277076559
    H            0.727004394860     0.453601508560     2.231765871102
    C            2.461560690700     0.202209254618     0.210502233041
    O            3.189534013330     0.077799394780    -0.715610725161
    H            2.863183746598     0.412937401166     1.207349600392

  Mulliken Charges: (a.u.)
   Center  Symbol    Alpha    Beta     Spin     Total
       1     H     0.38624  0.38624  0.00000  0.22753
       2     O     4.18633  4.18633  0.00000 -0.37267
       3     C     2.86512  2.86512  0.00000  0.26977
       4     C     3.11147  3.11147  0.00000 -0.22293
       5     C     3.10731  3.10731  0.00000 -0.21463
       6     H     0.41401  0.41401  0.00000  0.17198
       7     C     3.07110  3.07110  0.00000 -0.14220
       8     H     0.41374  0.41374  0.00000  0.17253
       9     C     3.07764  3.07764  0.00000 -0.15527
      10     H     0.40674  0.40674  0.00000  0.18652
      11     C     2.99543  2.99543  0.00000  0.00914
      12     H     0.42073  0.42073  0.00000  0.15853
      13     C     2.91009  2.91009  0.00000  0.17982
      14     O     4.17497  4.17497  0.00000 -0.34994
      15     H     0.45909  0.45909  0.00000  0.08182

   Total alpha = 32.00000, Total beta = 32.00000, Total charge = -0.00000

*** Psi4 exiting successfully. Buy a developer a beer!
