  ==> Input File <==

--------------------------------------------------------------------------
set {
	reference rhf
	basis 6-31G*
}

set_num_threads( 1 )
memory 2 gb

molecule MOL {
0 1

O	 1.186239	 3.985224	 1.324856
C	 0.259259	 4.216398	 2.039015
C	 -1.008975	 3.382163	 2.015073
C	 0.289576	 5.367416	 3.023594
C	 -0.982526	 2.239411	 1.004305
H	 -1.176621	 3.001805	 3.021856
H	 -1.844780	 4.051973	 1.817120
C	 -2.275539	 1.422187	 1.009343
H	 -0.136862	 1.593840	 1.219294
H	 -0.806009	 2.645141	 0.013158
C	 -2.259874	 0.272531	 0.000494
H	 -2.448239	 1.021186	 2.007051
H	 -3.119672	 2.075965	 0.794681
C	 -3.549786	 -0.549746	 -0.000374
H	 -1.416840	 -0.382059	 0.214563
H	 -2.088168	 0.672303	 -0.997352
C	 -4.809590	 0.315458	 -0.000369
H	 -3.560515	 -1.202009	 -0.871156
H	 -3.561123	 -1.202955	 0.869711
H	 -4.844746	 0.956611	 -0.876632
H	 -5.706986	 -0.295590	 -0.001609
H	 -4.845960	 0.954827	 0.877144
H	 0.151503	 5.002779	 4.037297
H	 1.236497	 5.884143	 2.951701
H	 -0.519213	 6.062667	 2.818363

	symmetry c1
}
set optking {
	frozen_dihedral = ("
		9 5 8 12,
		15 11 8 12,
		1 2 3 6,
		9 5 3 6
	")
}

ee = energy('scf')
oeprop('DIPOLE', 'QUADRUPOLE', 'MULLIKEN_CHARGES')
f=open( 'psi4out.xyz', 'w' )
f.write( "25  " )
f.write( str(ee) + "\n" )
f.write( MOL.save_string_xyz() )
f.close()
--------------------------------------------------------------------------

    Molecular point group: c1

    Geometry (in Angstrom), charge = 0, multiplicity = 1:

       Center              X                  Y                   Z               Mass
    ------------   -----------------  -----------------  -----------------  -----------------
           O          2.653883912064     1.684140448757     0.167198977250    15.994914619560
           C          1.726903912064     1.915314448757     0.881357977250    12.000000000000
           C          0.458669912064     1.081079448757     0.857415977250    12.000000000000
           C          1.757220912064     3.066332448757     1.865936977250    12.000000000000
           C          0.485118912064    -0.061672551243    -0.153352022750    12.000000000000
           H          0.291023912064     0.700721448757     1.864198977250     1.007825032070
           H         -0.377135087936     1.750889448757     0.659462977250     1.007825032070
           C         -0.807894087936    -0.878896551243    -0.148314022750    12.000000000000
           H          1.330782912064    -0.707243551243     0.061636977250     1.007825032070
           H          0.661635912064     0.344057448757    -1.144499022750     1.007825032070
           C         -0.792229087936    -2.028552551243    -1.157163022750    12.000000000000
           H         -0.980594087936    -1.279897551243     0.849393977250     1.007825032070
           H         -1.652027087936    -0.225118551243    -0.362976022750     1.007825032070
           C         -2.082141087936    -2.850829551243    -1.158031022750    12.000000000000
           H          0.050804912064    -2.683142551243    -0.943094022750     1.007825032070
           H         -0.620523087936    -1.628780551243    -2.155009022750     1.007825032070
           C         -3.341945087936    -1.985625551243    -1.158026022750    12.000000000000
           H         -2.092870087936    -3.503092551243    -2.028813022750     1.007825032070
           H         -2.093478087936    -3.504038551243    -0.287946022750     1.007825032070
           H         -3.377101087936    -1.344472551243    -2.034289022750     1.007825032070
           H         -4.239341087936    -2.596673551243    -1.159266022750     1.007825032070
           H         -3.378315087936    -1.346256551243    -0.280513022750     1.007825032070
           H          1.619147912064     2.701695448757     2.879639977250     1.007825032070
           H          2.704141912064     3.583059448757     1.794043977250     1.007825032070
           H          0.948431912064     3.761583448757     1.660705977250     1.007825032070

  Charge       = 0
  Multiplicity = 1
  Basis Set: 6-31G*
  Basis Set:

    Orbital Energies (a.u.)
    -----------------------

    Doubly Occupied:

       1A    -20.550361     2A    -11.326202     3A    -11.231733
       4A    -11.228282     5A    -11.216519     6A    -11.215651
       7A    -11.215350     8A    -11.213360     9A    -11.208463
      10A     -1.395659    11A     -1.095109    12A     -1.056848
      13A     -1.012825    14A     -0.965204    15A     -0.897254
      16A     -0.826538    17A     -0.774737    18A     -0.729331
      19A     -0.659120    20A     -0.652912    21A     -0.626940
      22A     -0.623322    23A     -0.608011    24A     -0.591293
      25A     -0.564445    26A     -0.555847    27A     -0.546907
      28A     -0.521276    29A     -0.510559    30A     -0.494075
      31A     -0.489092    32A     -0.476177    33A     -0.458787
      34A     -0.456015    35A     -0.451518    36A     -0.399426

  @DF-RHF Final Energy:  -387.13190398199015

   => Energetics <=

    Nuclear Repulsion Energy =            444.9912002120822763
    One-Electron Energy =               -1406.5559368161686962
    Two-Electron Energy =                 574.4328326220970666
    DFT Exchange-Correlation Energy =       0.0000000000000000
    Empirical Dispersion Energy =           0.0000000000000000
    PCM Polarization Energy =               0.0000000000000000
    EFP Energy =                            0.0000000000000000
    Total Energy =                       -387.1319039819893533

  Mulliken Charges: (a.u.)
   Center  Symbol    Alpha    Beta     Spin     Total
       1     O     4.26117  4.26117  0.00000 -0.52235
       2     C     2.73571  2.73571  0.00000  0.52857
       3     C     3.21080  3.21080  0.00000 -0.42159
       4     C     3.28663  3.28663  0.00000 -0.57325
       5     C     3.14666  3.14666  0.00000 -0.29331
       6     H     0.41012  0.41012  0.00000  0.17976
       7     H     0.41017  0.41017  0.00000  0.17966
       8     C     3.15955  3.15955  0.00000 -0.31910
       9     H     0.41246  0.41246  0.00000  0.17508
      10     H     0.41229  0.41229  0.00000  0.17541
      11     C     3.15210  3.15210  0.00000 -0.30420
      12     H     0.42538  0.42538  0.00000  0.14925
      13     H     0.42075  0.42075  0.00000  0.15850
      14     C     3.15162  3.15162  0.00000 -0.30323
      15     H     0.42022  0.42022  0.00000  0.15957
      16     H     0.42243  0.42243  0.00000  0.15515
      17     C     3.24488  3.24488  0.00000 -0.48975
      18     H     0.41996  0.41996  0.00000  0.16009
      19     H     0.42312  0.42312  0.00000  0.15376
      20     H     0.42208  0.42208  0.00000  0.15585
      21     H     0.41872  0.41872  0.00000  0.16256
      22     H     0.41926  0.41926  0.00000  0.16149
      23     H     0.40876  0.40876  0.00000  0.18248
      24     H     0.39647  0.39647  0.00000  0.20706
      25     H     0.40872  0.40872  0.00000  0.18256

   Total alpha = 36.00000, Total beta = 36.00000, Total charge =  0.00000
