  ==> Input File <==

--------------------------------------------------------------------------
set {
	reference rhf
	basis 6-31G*
}

set_num_threads( 4 )
memory 2 gb

molecule MOL {
0 1

O	 -0.291628	 1.323815	 -0.000732
C	 -0.449655	 0.146360	 0.000961
C	 -1.783294	 -0.549321	 -0.000296
O	 0.550821	 -0.724572	 0.000672
H	 -1.863538	 -1.185371	 -0.874187
H	 -2.574672	 0.185258	 -0.002793
H	 -1.866414	 -1.182381	 0.875436
C	 0.398651	 -1.876540	 -0.809324
H	 -0.460788	 -2.450807	 -0.494781
H	 1.301806	 -2.451441	 -0.676850
H	 0.280203	 -1.598054	 -1.846512

	symmetry c1
}
set optking {
	frozen_dihedral = ("
		8 4 2 1
	")
}

ee = optimize('scf')
oeprop('DIPOLE', 'QUADRUPOLE', 'MULLIKEN_CHARGES')
f=open( 'psi4out.xyz', 'w' )
f.write( "11  " )
f.write( str(ee) + "\n" )
f.write( MOL.save_string_xyz() )
f.close()
--------------------------------------------------------------------------

    Molecular point group: c1
  Charge       = 0
  Multiplicity = 1
  Basis Set: 6-31G*
  Basis Set:
  @DF-RHF Final Energy:  -266.81145100388949
    Total Energy =                       -266.8114510038896015
    Molecular point group: c1
  Basis Set: 6-31G*
  Basis Set:
  Basis Set: 6-31G*
  Basis Set:
  @DF-RHF Final Energy:  -266.81210187416127
    Total Energy =                       -266.8121018741611010
  Basis Set: 6-31G*
  Basis Set:
  Basis Set: 6-31G*
  Basis Set:
  @DF-RHF Final Energy:  -266.81701021960089
    Total Energy =                       -266.8170102196007747
  Basis Set: 6-31G*
  Basis Set:
  Basis Set: 6-31G*
  Basis Set:
  @DF-RHF Final Energy:  -266.81822379783068
    Total Energy =                       -266.8182237978306262
  Basis Set: 6-31G*
  Basis Set:
  @DF-RHF Final Energy:  -266.81828141122105
    Total Energy =                       -266.8182814112211076
  @DF-RHF Final Energy:  -266.81834909716571
    Total Energy =                       -266.8183490971659353
  Basis Set: 6-31G*
  Basis Set:
  @DF-RHF Final Energy:  -266.81856493742919
    Total Energy =                       -266.8185649374289596
  Basis Set: 6-31G*
  Basis Set:
  Basis Set: 6-31G*
  Basis Set:
  @DF-RHF Final Energy:  -266.81858177133859
    Total Energy =                       -266.8185817713384722
  Basis Set: 6-31G*
  Basis Set:
  Basis Set: 6-31G*
  Basis Set:
  @DF-RHF Final Energy:  -266.81858725603490
    Total Energy =                       -266.8185872560349026
  Basis Set: 6-31G*
  Basis Set:
  Charge       = 0
  Multiplicity = 1
  Basis Set: 6-31G*
  Basis Set:

    Orbital Energies (a.u.)
    -----------------------

    Doubly Occupied:

       1A    -20.598224     2A    -20.548212     3A    -11.378736
       4A    -11.297791     5A    -11.243320     6A     -1.463500
       7A     -1.369252     8A     -1.022778     9A     -0.980489
      10A     -0.783012    11A     -0.697147    12A     -0.684543
      13A     -0.677216    14A     -0.610842    15A     -0.592265
      16A     -0.579198    17A     -0.546090    18A     -0.504276
      19A     -0.455487    20A     -0.438162

  @DF-RHF Final Energy:  -266.81858750248688

   => Energetics <=

    Nuclear Repulsion Energy =            182.7442183751834364
    One-Electron Energy =                -726.1845338857641536
    Two-Electron Energy =                 276.6217280080938963
    DFT Exchange-Correlation Energy =       0.0000000000000000
    Empirical Dispersion Energy =           0.0000000000000000
    PCM Polarization Energy =               0.0000000000000000
    EFP Energy =                            0.0000000000000000
    Total Energy =                       -266.8185875024868210
    Molecular point group: c1
  Basis Set: 6-31G*
  Basis Set:

  -Total Gradient:
     Atom            X                  Y                   Z
    ------   -----------------  -----------------  -----------------
       1        0.000013962020    -0.000103946984    -0.003850612390
       2        0.000641385415     0.000972159076     0.004222067831
       3        0.000004968039    -0.000004707650     0.000013688931
       4       -0.001983568370    -0.002469980172     0.002165338564
       5       -0.000004852003     0.000000053588    -0.000005634004
       6       -0.000006236750    -0.000003435879    -0.000003654041
       7        0.000000966944     0.000006116888    -0.000002689839
       8        0.001336464932     0.001624473040    -0.002551530886
       9       -0.000009618817     0.000011909209     0.000023887612
      10       -0.000002130692     0.000004726003     0.000005976204
      11        0.000008659278    -0.000037367122    -0.000016837982

  **** Optimization is complete! (in 10 steps) ****
    Final optimized geometry and variables:
    Molecular point group: c1

    Geometry (in Angstrom), charge = 0, multiplicity = 1:

    O            0.033526257293     1.652491089219     0.146369661472
    C           -0.168963396641     0.488208482305     0.157526368204
    C           -1.556753794165    -0.109195507111     0.189051240446
    O            0.859345575000    -0.373055428020     0.163611438431
    H           -1.800426869933    -0.567567477984    -0.763719679534
    H           -2.265747399557     0.680662621432     0.385633397693
    H           -1.630418610394    -0.871911373718     0.955781745182
    C            0.807790021092    -1.552091240105    -0.606231783766
    H            0.062622446463    -2.245474835463    -0.235229969397
    H            1.782906425812    -2.005328524242    -0.522432903338
    H            0.610141641888    -1.328310883979    -1.647999813702

  Mulliken Charges: (a.u.)
   Center  Symbol    Alpha    Beta     Spin     Total
       1     O     4.25522  4.25522  0.00000 -0.51045
       2     C     2.62107  2.62107  0.00000  0.75786
       3     C     3.30442  3.30442  0.00000 -0.60883
       4     O     4.29941  4.29941  0.00000 -0.59882
       5     H     0.40315  0.40315  0.00000  0.19371
       6     H     0.38900  0.38900  0.00000  0.22200
       7     H     0.40175  0.40175  0.00000  0.19649
       8     C     3.09424  3.09424  0.00000 -0.18848
       9     H     0.41825  0.41825  0.00000  0.16349
      10     H     0.39846  0.39846  0.00000  0.20308
      11     H     0.41502  0.41502  0.00000  0.16995

   Total alpha = 20.00000, Total beta = 20.00000, Total charge = -0.00000
