  ==> Input File <==

--------------------------------------------------------------------------
set {
	reference rhf
	basis 6-31G*
}

set_num_threads( 1 )
memory 2 gb

molecule MOL {
0 1

H	 3.246943	 -1.937699	 -2.331899
C	 2.943443	 -1.658604	 -1.328034
C	 1.678153	 -0.802255	 -1.353909
H	 2.786256	 -2.574207	 -0.764836
H	 3.771928	 -1.126584	 -0.868890
C	 1.217350	 -0.386724	 0.039429
H	 0.870356	 -1.341574	 -1.838665
H	 1.858924	 0.088955	 -1.952624
N	 0.000003	 0.397874	 -0.023260
H	 1.011782	 -1.276130	 0.629059
H	 2.028388	 0.142560	 0.550756
C	 -1.217365	 -0.386708	 0.039277
H	 -0.000031	 1.072115	 0.718656
C	 -2.452633	 0.504241	 -0.042481
H	 -1.215291	 -1.074557	 -0.802042
H	 -1.269739	 -1.003477	 0.942735
C	 -3.758029	 -0.289423	 -0.010781
H	 -2.394220	 1.093569	 -0.952170
H	 -2.440793	 1.210787	 0.785871
H	 -3.816659	 -0.981993	 -0.845726
H	 -4.617837	 0.370165	 -0.069296
H	 -3.847478	 -0.867502	 0.904682

	symmetry c1
}
set optking {
	frozen_dihedral = ("
		15 12 14 18
	")
}

ee = energy('scf')
oeprop('DIPOLE', 'QUADRUPOLE', 'MULLIKEN_CHARGES')
f=open( 'psi4out.xyz', 'w' )
f.write( "22  " )
f.write( str(ee) + "\n" )
f.write( MOL.save_string_xyz() )
f.close()
--------------------------------------------------------------------------

    Molecular point group: c1

    Geometry (in Angstrom), charge = 0, multiplicity = 1:

       Center              X                  Y                   Z               Mass
    ------------   -----------------  -----------------  -----------------  -----------------
           H          3.475659507869    -1.552692821770    -1.954683387547     1.007825032070
           C          3.172159507869    -1.273597821770    -0.950818387547    12.000000000000
           C          1.906869507869    -0.417248821770    -0.976693387547    12.000000000000
           H          3.014972507869    -2.189200821770    -0.387620387547     1.007825032070
           H          4.000644507869    -0.741577821770    -0.491674387547     1.007825032070
           C          1.446066507869    -0.001717821770     0.416644612453    12.000000000000
           H          1.099072507869    -0.956567821770    -1.461449387547     1.007825032070
           H          2.087640507869     0.473961178230    -1.575408387547     1.007825032070
           N          0.228719507869     0.782880178230     0.353955612453    14.003074004780
           H          1.240498507869    -0.891123821770     1.006274612453     1.007825032070
           H          2.257104507869     0.527566178230     0.927971612453     1.007825032070
           C         -0.988648492131    -0.001701821770     0.416492612453    12.000000000000
           H          0.228685507869     1.457121178230     1.095871612453     1.007825032070
           C         -2.223916492131     0.889247178230     0.334734612453    12.000000000000
           H         -0.986574492131    -0.689550821770    -0.424826387547     1.007825032070
           H         -1.041022492131    -0.618470821770     1.319950612453     1.007825032070
           C         -3.529312492131     0.095583178230     0.366434612453    12.000000000000
           H         -2.165503492131     1.478575178230    -0.574954387547     1.007825032070
           H         -2.212076492131     1.595793178230     1.163086612453     1.007825032070
           H         -3.587942492131    -0.596986821770    -0.468510387547     1.007825032070
           H         -4.389120492131     0.755171178230     0.307919612453     1.007825032070
           H         -3.618761492131    -0.482495821770     1.281897612453     1.007825032070

  Charge       = 0
  Multiplicity = 1
  Basis Set: 6-31G*
  Basis Set:

    Orbital Energies (a.u.)
    -----------------------

    Doubly Occupied:

       1A    -15.532782     2A    -11.238947     3A    -11.238028
       4A    -11.214150     5A    -11.210213     6A    -11.207354
       7A    -11.206281     8A     -1.205802     9A     -1.056410
      10A     -1.025399    11A     -0.927652    12A     -0.872318
      13A     -0.806715    14A     -0.790187    15A     -0.665198
      16A     -0.638657    17A     -0.614296    18A     -0.601615
      19A     -0.580677    20A     -0.555093    21A     -0.547941
      22A     -0.522710    23A     -0.499917    24A     -0.489315
      25A     -0.480306    26A     -0.473416    27A     -0.459453
      28A     -0.455479    29A     -0.357126

  @DF-RHF Final Energy:  -290.37938347259160

   => Energetics <=

    Nuclear Repulsion Energy =            316.9599750961971267
    One-Electron Energy =               -1019.7318722015651247
    Two-Electron Energy =                 412.3925136327778205
    DFT Exchange-Correlation Energy =       0.0000000000000000
    Empirical Dispersion Energy =           0.0000000000000000
    PCM Polarization Energy =               0.0000000000000000
    EFP Energy =                            0.0000000000000000
    Total Energy =                       -290.3793834725901775

  Mulliken Charges: (a.u.)
   Center  Symbol    Alpha    Beta     Spin     Total
       1     H     0.41830  0.41830  0.00000  0.16341
       2     C     3.24500  3.24500  0.00000 -0.49000
       3     C     3.14454  3.14454  0.00000 -0.28908
       4     H     0.42266  0.42266  0.00000  0.15469
       5     H     0.42270  0.42270  0.00000  0.15461
       6     C     3.05961  3.05961  0.00000 -0.11923
       7     H     0.42257  0.42257  0.00000  0.15485
       8     H     0.41710  0.41710  0.00000  0.16580
       9     N     3.85499  3.85499  0.00000 -0.70998
      10     H     0.43245  0.43245  0.00000  0.13510
      11     H     0.42173  0.42173  0.00000  0.15655
      12     C     3.05201  3.05201  0.00000 -0.10402
      13     H     0.33262  0.33262  0.00000  0.33477
      14     C     3.15498  3.15498  0.00000 -0.30997
      15     H     0.42090  0.42090  0.00000  0.15821
      16     H     0.43543  0.43543  0.00000  0.12914
      17     C     3.24334  3.24334  0.00000 -0.48669
      18     H     0.41269  0.41269  0.00000  0.17462
      19     H     0.42652  0.42652  0.00000  0.14696
      20     H     0.42064  0.42064  0.00000  0.15872
      21     H     0.41756  0.41756  0.00000  0.16488
      22     H     0.42167  0.42167  0.00000  0.15666

   Total alpha = 29.00000, Total beta = 29.00000, Total charge = -0.00000
