                              Psi4 1.0.54 Driver

  ==> Input File <==

--------------------------------------------------------------------------
set {
	reference rhf
	basis cc-pvtz
}

set_num_threads( 4 )
memory 2 gb

molecule MOL {
0 1

O	 1.451864	 1.980981	 -0.402384
C	 0.556779	 2.109777	 -1.166107
C	 -0.737730	 1.338425	 -1.136039
O	 0.579756	 2.970813	 -2.170351
C	 -0.824290	 0.329213	 -0.000115
H	 -1.542336	 2.064248	 -1.079132
H	 -0.845052	 0.854153	 -2.101132
C	 -2.146151	 -0.432825	 -0.000068
H	 -0.695754	 0.843652	 0.945456
H	 0.002508	 -0.367704	 -0.077589
C	 -3.366283	 0.483552	 0.000557
H	 -2.189286	 -1.084450	 -0.869996
H	 -2.188867	 -1.085083	 0.869399
C	 -4.687436	 -0.278003	 0.000108
H	 -3.325150	 1.134819	 -0.867957
H	 -3.325087	 1.133730	 0.869885
H	 -4.773783	 -0.912098	 -0.876078
H	 -5.531922	 0.401392	 0.000363
H	 -4.773901	 -0.912898	 0.875703
C	 1.739771	 3.764408	 -2.318324
H	 1.899578	 4.373439	 -1.440967
H	 1.564777	 4.389778	 -3.178636
H	 2.608556	 3.143497	 -2.479250

	symmetry c1
}
set optking {
	frozen_dihedral = ("
		9 5 8 12
	")
}

ee,wfn = optimize('scf', return_wfn=True)
oeprop( wfn, 'DIPOLE', 'QUADRUPOLE', 'MULLIKEN_CHARGES')
f=open( 'psi4out.xyz', 'w' )
f.write( "23  " )
f.write( str(ee) + "\n" )
f.write( MOL.save_string_xyz() )
f.close()
--------------------------------------------------------------------------

    Molecular point group: c1
  Charge       = 0
  Multiplicity = 1
  Basis Set: CC-PVTZ
  Basis Set:
  @DF-RHF Final Energy:  -423.12732437334427
    Total Energy =                       -423.1273243733442087
    Molecular point group: c1
  Basis Set: CC-PVTZ
  Basis Set:
  Basis Set: CC-PVTZ
  Basis Set:
  @DF-RHF Final Energy:  -423.12718706837813
    Total Energy =                       -423.1271870683780207
  Basis Set: CC-PVTZ
  Basis Set:
  Basis Set: CC-PVTZ
  Basis Set:
  @DF-RHF Final Energy:  -423.12888243154697
    Total Energy =                       -423.1288824315470265
  Basis Set: CC-PVTZ
  Basis Set:
  Basis Set: CC-PVTZ
  Basis Set:
  @DF-RHF Final Energy:  -423.12879079423021
    Total Energy =                       -423.1287907942303264
  Basis Set: CC-PVTZ
  Basis Set:
  Basis Set: CC-PVTZ
  Basis Set:
  @DF-RHF Final Energy:  -423.12876934508529
    Total Energy =                       -423.1287693450854022
  Basis Set: CC-PVTZ
  Basis Set:
  Basis Set: CC-PVTZ
  Basis Set:
  @DF-RHF Final Energy:  -423.12902252619477
    Total Energy =                       -423.1290225261943760
  Basis Set: CC-PVTZ
  Basis Set:
  Basis Set: CC-PVTZ
  Basis Set:
  @DF-RHF Final Energy:  -423.12902536364072
    Total Energy =                       -423.1290253636409489
  Basis Set: CC-PVTZ
  Basis Set:
  Charge       = 0
  Multiplicity = 1
  Basis Set: CC-PVTZ
  Basis Set:

    Orbital Energies (a.u.)
    -----------------------

    Doubly Occupied:

       1A    -20.596155     2A    -20.534025     3A    -11.364458
       4A    -11.278380     5A    -11.233288     6A    -11.217321
       7A    -11.216801     8A    -11.215768     9A    -11.209138
      10A     -1.472096    11A     -1.365679    12A     -1.094707
      13A     -1.043239    14A     -0.988234    15A     -0.933934
      16A     -0.851759    17A     -0.793022    18A     -0.764670
      19A     -0.703167    20A     -0.685686    21A     -0.675945
      22A     -0.641261    23A     -0.618274    24A     -0.601685
      25A     -0.578252    26A     -0.558435    27A     -0.556136
      28A     -0.528881    29A     -0.522017    30A     -0.510237
      31A     -0.491899    32A     -0.468081    33A     -0.465407
      34A     -0.461045    35A     -0.454356    36A     -0.440567

  @DF-RHF Final Energy:  -423.12902623431052

   => Energetics <=

    Nuclear Repulsion Energy =            458.2340520959366472
    One-Electron Energy =               -1484.4581503359283943
    Two-Electron Energy =                 603.0950720056806631
    DFT Exchange-Correlation Energy =       0.0000000000000000
    Empirical Dispersion Energy =           0.0000000000000000
    PCM Polarization Energy =               0.0000000000000000
    EFP Energy =                            0.0000000000000000
    Total Energy =                       -423.1290262343110271
    Molecular point group: c1
  Basis Set: CC-PVTZ
  Basis Set:

  -Total Gradient:
     Atom            X                  Y                   Z
    ------   -----------------  -----------------  -----------------
       1       -0.000030426452    -0.000005986676    -0.000036786593
       2       -0.000007766118     0.000051244639     0.000027749873
       3        0.000013900370    -0.000016160231    -0.000011328392
       4        0.000006664323    -0.000048243555     0.000024786431
       5       -0.000997502437     0.001595873100    -0.000661914455
       6        0.000009416023    -0.000004307224     0.000003610855
       7       -0.000006114060     0.000004188070     0.000008190996
       8       -0.000868033232     0.001391731055    -0.001105364031
       9        0.000961121886    -0.001564842246     0.000710139187
      10       -0.000000691214    -0.000001236795     0.000004979635
      11       -0.000001691655    -0.000005856868     0.000032548872
      12        0.000886694891    -0.001429456755     0.001025052931
      13       -0.000000263716     0.000014286926    -0.000012152808
      14       -0.000003396900     0.000009214212    -0.000001087791
      15       -0.000003525666    -0.000031573907     0.000026294761
      16       -0.000001584896     0.000019591528     0.000013975296
      17       -0.000008018556    -0.000010652346    -0.000000815718
      18        0.000038504834    -0.000023833311    -0.000001432540
      19        0.000006455320     0.000045027740    -0.000040165872
      20        0.000020976156     0.000018924725    -0.000012499934
      21       -0.000003138370    -0.000007095075    -0.000008171980
      22        0.000003583381    -0.000008495883     0.000011488012
      23       -0.000015163901     0.000007658876     0.000002903263

  **** Optimization is complete! (in 8 steps) ****
    Final optimized geometry and variables:
    Molecular point group: c1

    Geometry (in Angstrom), charge = 0, multiplicity = 1:

    O            2.272004336523     0.565798081842     0.398109505890
    C            1.382637658114     0.750617590916    -0.360674432704
    C            0.047984716707     0.050044628260    -0.336299786347
    O            1.448529961473     1.621370374609    -1.354824233205
    C           -0.081340815691    -0.966163453934     0.790387351086
    H           -0.709852487596     0.821759601409    -0.276683930964
    H           -0.083663686607    -0.421128621801    -1.305430697060
    C           -1.374185210366    -1.782719809734     0.756275001857
    H            0.012534965356    -0.466076587146     1.748131750717
    H            0.759607768036    -1.647177307880     0.738007535362
    C           -2.667861659450    -0.973607866359     0.816320680774
    H           -1.378452358047    -2.417941517063    -0.126872553626
    H           -1.354494388101    -2.463588632190     1.602700842069
    C           -3.908226331230    -1.855037310750     0.922129341252
    H           -2.757795619163    -0.345755875835    -0.064108057302
    H           -2.630142994545    -0.301160297971     1.669712743755
    H           -3.985394060094    -2.524533868995     0.071771427650
    H           -4.812401935944    -1.258367594896     0.955654334769
    H           -3.879913487399    -2.464268210725     1.819086397423
    C            2.648741880448     2.353600309811    -1.497630357198
    H            2.843288230759     2.943115980175    -0.613984657936
    H            2.505083824445     2.997344235395    -2.350166732903
    H            3.482777819479     1.689240171326    -1.668550946281

  Mulliken Charges: (a.u.)
   Center  Symbol    Alpha    Beta     Spin     Total
       1     O     4.19673  4.19673  0.00000 -0.39346
       2     C     2.80611  2.80611  0.00000  0.38778
       3     C     3.10206  3.10206  0.00000 -0.20413
       4     O     4.14702  4.14702  0.00000 -0.29404
       5     C     3.09261  3.09261  0.00000 -0.18521
       6     H     0.43806  0.43806  0.00000  0.12388
       7     H     0.43943  0.43943  0.00000  0.12114
       8     C     3.09907  3.09907  0.00000 -0.19814
       9     H     0.44567  0.44567  0.00000  0.10867
      10     H     0.44031  0.44031  0.00000  0.11939
      11     C     3.08882  3.08882  0.00000 -0.17764
      12     H     0.45304  0.45304  0.00000  0.09393
      13     H     0.44715  0.44715  0.00000  0.10571
      14     C     3.14978  3.14978  0.00000 -0.29956
      15     H     0.45317  0.45317  0.00000  0.09366
      16     H     0.45255  0.45255  0.00000  0.09489
      17     H     0.45493  0.45493  0.00000  0.09014
      18     H     0.44800  0.44800  0.00000  0.10400
      19     H     0.45359  0.45359  0.00000  0.09281
      20     C     3.03809  3.03809  0.00000 -0.07618
      21     H     0.45437  0.45437  0.00000  0.09126
      22     H     0.44523  0.44523  0.00000  0.10954
      23     H     0.45422  0.45422  0.00000  0.09156

   Total alpha = 36.00000, Total beta = 36.00000, Total charge = -0.00000

*** Psi4 exiting successfully. Buy a developer a beer!
