  ==> Input File <==

--------------------------------------------------------------------------
set {
	reference rhf
	basis 6-31G*
}

set_num_threads( 4 )
memory 2 gb

molecule MOL {
0 1

H	 -1.070890	 -1.366565	 0.180696
O	 -1.422729	 -0.573567	 -0.196946
C	 -0.731407	 0.539437	 0.309156
C	 0.680193	 0.672443	 -0.251532
H	 -1.319765	 1.404033	 0.030086
H	 -0.700012	 0.506517	 1.397677
C	 1.703727	 1.160683	 0.773994
H	 0.988369	 -0.291830	 -0.645043
H	 0.649607	 1.363879	 -1.090890
H	 1.812799	 0.455229	 1.592305
H	 2.682524	 1.279669	 0.321482
H	 1.415976	 2.122000	 1.192721

	symmetry c1
}
set optking {
	frozen_dihedral = ("
		8 4 3 2
	")
}

ee = optimize('scf')
oeprop('DIPOLE', 'QUADRUPOLE', 'MULLIKEN_CHARGES')
f=open( 'psi4out.xyz', 'w' )
f.write( "12  " )
f.write( str(ee) + "\n" )
f.write( MOL.save_string_xyz() )
f.close()
--------------------------------------------------------------------------

    Molecular point group: c1
  Charge       = 0
  Multiplicity = 1
  Basis Set: 6-31G*
  Basis Set:
  @DF-RHF Final Energy:  -193.10499793161199
    Total Energy =                       -193.1049979316119902
    Molecular point group: c1
  Basis Set: 6-31G*
  Basis Set:
  Basis Set: 6-31G*
  Basis Set:
  @DF-RHF Final Energy:  -193.10548130938457
    Total Energy =                       -193.1054813093845155
  Basis Set: 6-31G*
  Basis Set:
  Basis Set: 6-31G*
  Basis Set:
  @DF-RHF Final Energy:  -193.10554139892224
    Total Energy =                       -193.1055413989222416
  Basis Set: 6-31G*
  Basis Set:
  Basis Set: 6-31G*
  Basis Set:
  @DF-RHF Final Energy:  -193.10554425498165
    Total Energy =                       -193.1055442549815666
  Basis Set: 6-31G*
  Basis Set:
  Charge       = 0
  Multiplicity = 1
  Basis Set: 6-31G*
  Basis Set:

    Orbital Energies (a.u.)
    -----------------------

    Doubly Occupied:

       1A    -20.552244     2A    -11.268157     3A    -11.219787
       4A    -11.217428     5A     -1.359422     6A     -1.051554
       7A     -0.919138     8A     -0.819402     9A     -0.691817
      10A     -0.636182    11A     -0.596493    12A     -0.574819
      13A     -0.561309    14A     -0.508083    15A     -0.491098
      16A     -0.464596    17A     -0.428378

  @DF-RHF Final Energy:  -193.10554427399256

   => Energetics <=

    Nuclear Repulsion Energy =            130.8022874720330719
    One-Electron Energy =                -521.0958503344210158
    Two-Electron Energy =                 197.1880185883954653
    DFT Exchange-Correlation Energy =       0.0000000000000000
    Empirical Dispersion Energy =           0.0000000000000000
    PCM Polarization Energy =               0.0000000000000000
    EFP Energy =                            0.0000000000000000
    Total Energy =                       -193.1055442739924786
    Molecular point group: c1
  Basis Set: 6-31G*
  Basis Set:

  -Total Gradient:
     Atom            X                  Y                   Z
    ------   -----------------  -----------------  -----------------
       1       -0.000005476533    -0.000018900834    -0.000003718120
       2        0.001245588204    -0.002066943212     0.002727948235
       3       -0.002055636548     0.003080538240    -0.004616467911
       4        0.002542144862    -0.002125747657     0.005973204619
       5        0.000012074227     0.000004905876    -0.000009782680
       6       -0.000007092301    -0.000015857194     0.000004837932
       7        0.000001277878    -0.000034091998    -0.000014845740
       8       -0.001702402022     0.001140415447    -0.004056144188
       9       -0.000017129867     0.000019438967    -0.000004994119
      10       -0.000006075800     0.000013160028    -0.000005032170
      11       -0.000002498578    -0.000013311339     0.000017574870
      12       -0.000004773525     0.000016393678    -0.000012580726

  **** Optimization is complete! (in 5 steps) ****
    Final optimized geometry and variables:
    Molecular point group: c1

    Geometry (in Angstrom), charge = 0, multiplicity = 1:

    H           -1.042173457261    -1.772519505288    -0.079507158396
    O           -1.470238588042    -0.973010008563    -0.351434754873
    C           -0.758067306099     0.126114197969     0.154255477812
    C            0.665062690228     0.241490571004    -0.415200129135
    H           -1.344083515627     1.000742919568    -0.093423207024
    H           -0.717056441411     0.068202449391     1.241591081283
    C            1.686937398120     0.750919062475     0.598691336567
    H            0.959456194414    -0.725935319355    -0.814352294848
    H            0.652267356101     0.902505921906    -1.277934047433
    H            1.775009016793     0.074676096925     1.444424110812
    H            2.669348211801     0.851139852251     0.149345943333
    H            1.402301381710     1.725490876785     0.985888242344

  Mulliken Charges: (a.u.)
   Center  Symbol    Alpha    Beta     Spin     Total
       1     H     0.28348  0.28348  0.00000  0.43304
       2     O     4.37033  4.37033  0.00000 -0.74065
       3     C     2.99292  2.99292  0.00000  0.01416
       4     C     3.17046  3.17046  0.00000 -0.34092
       5     H     0.41389  0.41389  0.00000  0.17221
       6     H     0.43046  0.43046  0.00000  0.13909
       7     C     3.24570  3.24570  0.00000 -0.49140
       8     H     0.42018  0.42018  0.00000  0.15963
       9     H     0.41530  0.41530  0.00000  0.16940
      10     H     0.42148  0.42148  0.00000  0.15705
      11     H     0.41637  0.41637  0.00000  0.16726
      12     H     0.41943  0.41943  0.00000  0.16114

   Total alpha = 17.00000, Total beta = 17.00000, Total charge =  0.00000
