                              Psi4 1.0.54 Driver

  ==> Input File <==

--------------------------------------------------------------------------
set {
	reference rhf
	basis cc-pvtz
}

set_num_threads( 4 )
memory 2 gb

molecule MOL {
0 1

H	 0.928126	 -1.060654	 0.292402
C	 0.862491	 -0.391462	 -0.576341
C	 0.062554	 0.862911	 -0.350953
O	 1.404630	 -0.678616	 -1.586678
C	 -1.339253	 0.577611	 0.196911
H	 0.020918	 1.416730	 -1.279955
H	 0.614381	 1.459933	 0.371631
C	 -1.813142	 -0.849710	 -0.061612
H	 -2.032833	 1.276441	 -0.256032
H	 -1.357249	 0.782269	 1.263793
H	 -1.839268	 -1.063526	 -1.124230
H	 -2.810118	 -1.001930	 0.334000
H	 -1.159274	 -1.579980	 0.402282

	symmetry c1
}
set optking {
	frozen_dihedral = ("
		6 3 5 9
	")
}

ee,wfn = optimize('scf', return_wfn=True)
oeprop( wfn, 'DIPOLE', 'QUADRUPOLE', 'MULLIKEN_CHARGES')
f=open( 'psi4out.xyz', 'w' )
f.write( "13  " )
f.write( str(ee) + "\n" )
f.write( MOL.save_string_xyz() )
f.close()
--------------------------------------------------------------------------

    Molecular point group: c1
  Charge       = 0
  Multiplicity = 1
  Basis Set: CC-PVTZ
  Basis Set:
  @DF-RHF Final Energy:  -231.06233605456524
    Total Energy =                       -231.0623360545651224
    Molecular point group: c1
  Basis Set: CC-PVTZ
  Basis Set:
  Basis Set: CC-PVTZ
  Basis Set:
  @DF-RHF Final Energy:  -231.06112356513742
    Total Energy =                       -231.0611235651373931
  Basis Set: CC-PVTZ
  Basis Set:
  Basis Set: CC-PVTZ
  Basis Set:
  @DF-RHF Final Energy:  -231.06321376085765
    Total Energy =                       -231.0632137608575931
  Basis Set: CC-PVTZ
  Basis Set:
  Basis Set: CC-PVTZ
  Basis Set:
  @DF-RHF Final Energy:  -231.06222778360350
    Total Energy =                       -231.0622277836034186
  Basis Set: CC-PVTZ
  Basis Set:
  Basis Set: CC-PVTZ
  Basis Set:
  @DF-RHF Final Energy:  -231.06437654376549
    Total Energy =                       -231.0643765437654338
  Basis Set: CC-PVTZ
  Basis Set:
  Basis Set: CC-PVTZ
  Basis Set:
  @DF-RHF Final Energy:  -231.06441902861312
    Total Energy =                       -231.0644190286129174
  Basis Set: CC-PVTZ
  Basis Set:
  Basis Set: CC-PVTZ
  Basis Set:
  @DF-RHF Final Energy:  -231.06442964347715
    Total Energy =                       -231.0644296434773537
  Basis Set: CC-PVTZ
  Basis Set:
  Charge       = 0
  Multiplicity = 1
  Basis Set: CC-PVTZ
  Basis Set:

    Orbital Energies (a.u.)
    -----------------------

    Doubly Occupied:

       1A    -20.551530     2A    -11.321635     3A    -11.237287
       4A    -11.234421     5A    -11.220714     6A     -1.406466
       7A     -1.083801     8A     -0.974191     9A     -0.855768
      10A     -0.781325    11A     -0.672910    12A     -0.641369
      13A     -0.633380    14A     -0.603252    15A     -0.557403
      16A     -0.531405    17A     -0.514593    18A     -0.488734
      19A     -0.480540    20A     -0.412099

  @DF-RHF Final Energy:  -231.06443081063890

   => Energetics <=

    Nuclear Repulsion Energy =            174.4799564423486800
    One-Electron Energy =                -658.6831254298753038
    Two-Electron Energy =                 253.1387381768877276
    DFT Exchange-Correlation Energy =       0.0000000000000000
    Empirical Dispersion Energy =           0.0000000000000000
    PCM Polarization Energy =               0.0000000000000000
    EFP Energy =                            0.0000000000000000
    Total Energy =                       -231.0644308106388962
    Molecular point group: c1
  Basis Set: CC-PVTZ
  Basis Set:

  -Total Gradient:
     Atom            X                  Y                   Z
    ------   -----------------  -----------------  -----------------
       1        0.000006546590    -0.000002139675    -0.000016131833
       2        0.000029768281    -0.000028243964     0.000034679191
       3       -0.000358827714    -0.006333996289    -0.005002571467
       4       -0.000027036811     0.000010483622     0.000009428173
       5        0.001126441567     0.004960739919     0.006093927535
       6        0.000155244470     0.004564353672     0.003251514039
       7       -0.000016293968    -0.000017857704    -0.000010237792
       8       -0.000006762097     0.000001988441    -0.000004058808
       9       -0.000914368208    -0.003166246510    -0.004351635728
      10       -0.000001981236     0.000006679257    -0.000000205791
      11       -0.000013924111    -0.000015450240     0.000031392572
      12        0.000049816863    -0.000004991636    -0.000016380743
      13       -0.000028623629     0.000024681108    -0.000019719352

  **** Optimization is complete! (in 8 steps) ****
    Final optimized geometry and variables:
    Molecular point group: c1

    Geometry (in Angstrom), charge = 0, multiplicity = 1:

    H            1.286352654222    -0.909404583792     0.764056439715
    C            1.100558406785    -0.242464997927    -0.086669043493
    C            0.226235681101     0.944680058588     0.203911707125
    O            1.596116592488    -0.472361917532    -1.135356089547
    C           -1.184458580683     0.609731575751     0.745709736149
    H            0.169715654519     1.573460726160    -0.673771936209
    H            0.755290987174     1.528425458953     0.954558598593
    C           -1.725944620444    -0.758825012094     0.324998818698
    H           -1.867543451116     1.351257496838     0.350808834141
    H           -1.202552491925     0.688838414375     1.825249832621
    H           -1.714535225472    -0.870601727538    -0.753388706052
    H           -2.749637129660    -0.875313468931     0.659320452755
    H           -1.152857180505    -1.575860322250     0.747359890142

  Mulliken Charges: (a.u.)
   Center  Symbol    Alpha    Beta     Spin     Total
       1     H     0.46199  0.46199  0.00000  0.07603
       2     C     2.90372  2.90372  0.00000  0.19256
       3     C     3.08971  3.08971  0.00000 -0.17942
       4     O     4.16686  4.16686  0.00000 -0.33371
       5     C     3.09714  3.09714  0.00000 -0.19429
       6     H     0.44113  0.44113  0.00000  0.11774
       7     H     0.44756  0.44756  0.00000  0.10488
       8     C     3.15173  3.15173  0.00000 -0.30347
       9     H     0.44599  0.44599  0.00000  0.10803
      10     H     0.44735  0.44735  0.00000  0.10531
      11     H     0.44533  0.44533  0.00000  0.10933
      12     H     0.44622  0.44622  0.00000  0.10757
      13     H     0.45527  0.45527  0.00000  0.08945

   Total alpha = 20.00000, Total beta = 20.00000, Total charge = -0.00000

*** Psi4 exiting successfully. Buy a developer a beer!
