  ==> Input File <==

--------------------------------------------------------------------------
set {
	reference rhf
	basis cc-pvtz
}

set_num_threads( 4 )
memory 2 gb

molecule MOL {
0 1

H	 1.571029	 -1.217956	 -0.776939
O	 1.583947	 -0.677544	 -0.001533
C	 0.489979	 0.078084	 0.002623
C	 -0.763662	 -0.754014	 0.000816
O	 0.539051	 1.259395	 -0.000088
C	 -2.038001	 0.074705	 -0.000833
H	 -0.712945	 -1.405886	 -0.864342
H	 -0.715137	 -1.405770	 0.866182
H	 -2.087267	 0.710831	 -0.874232
H	 -2.903419	 -0.576199	 -0.001922
H	 -2.089467	 0.710909	 0.872389

	symmetry c1
}
set optking {
	frozen_dihedral = ("
		1 2 3 5
	")
}

ee = optimize('scf')
oeprop('DIPOLE', 'QUADRUPOLE', 'MULLIKEN_CHARGES')
f=open( 'psi4out.xyz', 'w' )
f.write( "11  " )
f.write( str(ee) + "\n" )
f.write( MOL.save_string_xyz() )
f.close()
--------------------------------------------------------------------------

    Molecular point group: c1
  Charge       = 0
  Multiplicity = 1
  Basis Set: CC-PVTZ
  Basis Set:
  @DF-RHF Final Energy:  -266.93386342481756
    Total Energy =                       -266.9338634248175595
    Molecular point group: c1
  Basis Set: CC-PVTZ
  Basis Set:
  Basis Set: CC-PVTZ
  Basis Set:
  @DF-RHF Final Energy:  -266.93522060205919
    Total Energy =                       -266.9352206020590188
  Basis Set: CC-PVTZ
  Basis Set:
  Basis Set: CC-PVTZ
  Basis Set:
  @DF-RHF Final Energy:  -266.93471216718626
    Total Energy =                       -266.9347121671863761
  Basis Set: CC-PVTZ
  Basis Set:
  Basis Set: CC-PVTZ
  Basis Set:
  @DF-RHF Final Energy:  -266.93539933969834
    Total Energy =                       -266.9353993396982787
  Basis Set: CC-PVTZ
  Basis Set:
  Basis Set: CC-PVTZ
  Basis Set:
  @DF-RHF Final Energy:  -266.93540681846230
    Total Energy =                       -266.9354068184624111
  Basis Set: CC-PVTZ
  Basis Set:
  Charge       = 0
  Multiplicity = 1
  Basis Set: CC-PVTZ
  Basis Set:

    Orbital Energies (a.u.)
    -----------------------

    Doubly Occupied:

       1A    -20.591782     2A    -20.548275     3A    -11.374659
       4A    -11.248994     5A    -11.222331     6A     -1.465982
       7A     -1.373542     8A     -1.067278     9A     -0.909890
      10A     -0.818788    11A     -0.717619    12A     -0.673351
      13A     -0.662637    14A     -0.617733    15A     -0.577291
      16A     -0.532983    17A     -0.523085    18A     -0.507772
      19A     -0.492589    20A     -0.448677

  @DF-RHF Final Energy:  -266.93540765616837

   => Energetics <=

    Nuclear Repulsion Energy =            179.5663741139980516
    One-Electron Energy =                -720.2530461706085134
    Two-Electron Energy =                 273.7512644004418689
    DFT Exchange-Correlation Energy =       0.0000000000000000
    Empirical Dispersion Energy =           0.0000000000000000
    PCM Polarization Energy =               0.0000000000000000
    EFP Energy =                            0.0000000000000000
    Total Energy =                       -266.9354076561685361
    Molecular point group: c1
  Basis Set: CC-PVTZ
  Basis Set:

  -Total Gradient:
     Atom            X                  Y                   Z
    ------   -----------------  -----------------  -----------------
       1        0.002633041949     0.004172928417    -0.002709211819
       2       -0.003429537851    -0.005193824753     0.001251364612
       3        0.000752996426     0.000910607895     0.006345115691
       4        0.000078455586    -0.000001708972     0.000037032652
       5       -0.000027224290     0.000110745263    -0.004903046308
       6       -0.000009380852     0.000012752968    -0.000007313327
       7        0.000015510024     0.000006893612    -0.000009689417
       8       -0.000013233374    -0.000014846628    -0.000013609660
       9        0.000005197944    -0.000004122950     0.000005523243
      10       -0.000003319805     0.000000365003     0.000003055476
      11       -0.000002505755     0.000000210147     0.000000778857

  **** Optimization is complete! (in 6 steps) ****
    Final optimized geometry and variables:
    Molecular point group: c1

    Geometry (in Angstrom), charge = 0, multiplicity = 1:

    H            1.687296152014    -1.192069572453    -0.781648906967
    O            1.631132878920    -0.652082437918    -0.011507893204
    C            0.495822472570     0.084218694118     0.007534388557
    C           -0.771242162796    -0.735281034192     0.013168304865
    O            0.538864589722     1.256677350839     0.035304345486
    C           -2.040840518568     0.100576030004     0.008189701150
    H           -0.740132227593    -1.399697982663    -0.846601323428
    H           -0.724820852921    -1.380395623045     0.884054949857
    H           -2.088870193470     0.730219828214    -0.870197970371
    H           -2.911698097298    -0.543208702770     0.016634305181
    H           -2.081895843471     0.744338227657     0.876075186921

  Mulliken Charges: (a.u.)
   Center  Symbol    Alpha    Beta     Spin     Total
       1     H     0.38905  0.38905  0.00000  0.22190
       2     O     4.16438  4.16438  0.00000 -0.32876
       3     C     2.80517  2.80517  0.00000  0.38965
       4     C     3.10739  3.10739  0.00000 -0.21478
       5     O     4.16201  4.16201  0.00000 -0.32402
       6     C     3.13942  3.13942  0.00000 -0.27884
       7     H     0.45242  0.45242  0.00000  0.09516
       8     H     0.43698  0.43698  0.00000  0.12603
       9     H     0.44814  0.44814  0.00000  0.10373
      10     H     0.45020  0.45020  0.00000  0.09961
      11     H     0.44484  0.44484  0.00000  0.11032

   Total alpha = 20.00000, Total beta = 20.00000, Total charge = -0.00000
