  ==> Input File <==

--------------------------------------------------------------------------
set {
	reference rhf
	basis 6-31G*
}

set_num_threads( 4 )
memory 2 gb

molecule MOL {
0 1

H	 1.836257	 2.433592	 -0.259778
N	 1.008266	 1.877854	 -0.355170
C	 1.267428	 0.496480	 0.024474
H	 0.732792	 1.931751	 -1.317524
C	 -0.016086	 -0.325158	 -0.029487
H	 1.648361	 0.499881	 1.041289
H	 2.030480	 0.017360	 -0.594053
C	 -1.282277	 0.529072	 0.046735
H	 -0.012495	 -0.908639	 -0.945788
H	 -0.015903	 -1.041248	 0.791956
C	 -2.563920	 -0.301775	 -0.006060
H	 -1.284084	 1.244622	 -0.773004
H	 -1.271387	 1.115393	 0.963286
H	 -2.621848	 -0.873522	 -0.927727
H	 -3.445135	 0.329952	 0.047812
H	 -2.609542	 -1.004582	 0.821105

	symmetry c1
}
set optking {
	frozen_dihedral = ("
		6 3 5 9
	")
}

ee = optimize('scf')
oeprop('DIPOLE', 'QUADRUPOLE', 'MULLIKEN_CHARGES')
f=open( 'psi4out.xyz', 'w' )
f.write( "16  " )
f.write( str(ee) + "\n" )
f.write( MOL.save_string_xyz() )
f.close()
--------------------------------------------------------------------------

    Molecular point group: c1
  Charge       = 0
  Multiplicity = 1
  Basis Set: 6-31G*
  Basis Set:
  @DF-RHF Final Energy:  -212.30818907529272
    Total Energy =                       -212.3081890752926597
    Molecular point group: c1
  Basis Set: 6-31G*
  Basis Set:
  Basis Set: 6-31G*
  Basis Set:
  @DF-RHF Final Energy:  -212.30924387754388
    Total Energy =                       -212.3092438775437358
  Basis Set: 6-31G*
  Basis Set:
  Basis Set: 6-31G*
  Basis Set:
  @DF-RHF Final Energy:  -212.31078434936461
    Total Energy =                       -212.3107843493644964
  Basis Set: 6-31G*
  Basis Set:
  Basis Set: 6-31G*
  Basis Set:
  @DF-RHF Final Energy:  -212.31089789068392
    Total Energy =                       -212.3108978906840321
  Basis Set: 6-31G*
  Basis Set:
  Basis Set: 6-31G*
  Basis Set:
  @DF-RHF Final Energy:  -212.31090180337168
    Total Energy =                       -212.3109018033717916
  Basis Set: 6-31G*
  Basis Set:
  Basis Set: 6-31G*
  Basis Set:
  @DF-RHF Final Energy:  -212.31090835902882
    Total Energy =                       -212.3109083590287582
  Basis Set: 6-31G*
  Basis Set:
  Charge       = 0
  Multiplicity = 1
  Basis Set: 6-31G*
  Basis Set:

    Orbital Energies (a.u.)
    -----------------------

    Doubly Occupied:

       1A    -15.533963     2A    -11.241147     3A    -11.210391
       4A    -11.205596     5A    -11.202571     6A     -1.177293
       7A     -1.051245     8A     -0.957225     9A     -0.849234
      10A     -0.777562    11A     -0.667351    12A     -0.624622
      13A     -0.610827    14A     -0.575057    15A     -0.559321
      16A     -0.522177    17A     -0.497738    18A     -0.468164
      19A     -0.461404    20A     -0.451789    21A     -0.378853

  @DF-RHF Final Energy:  -212.31090976068390

   => Energetics <=

    Nuclear Repulsion Energy =            189.0436688851150961
    One-Electron Energy =                -660.6620966870358416
    Two-Electron Energy =                 259.3075180412366763
    DFT Exchange-Correlation Energy =       0.0000000000000000
    Empirical Dispersion Energy =           0.0000000000000000
    PCM Polarization Energy =               0.0000000000000000
    EFP Energy =                            0.0000000000000000
    Total Energy =                       -212.3109097606840692
    Molecular point group: c1
  Basis Set: 6-31G*
  Basis Set:

  -Total Gradient:
     Atom            X                  Y                   Z
    ------   -----------------  -----------------  -----------------
       1       -0.000009635127    -0.000003111246    -0.000000422509
       2       -0.000022813565     0.000018232296    -0.000029440520
       3       -0.003523462066     0.005365445559     0.002198952621
       4       -0.000001099399     0.000017526527    -0.000000582009
       5       -0.002553255302     0.004822787990    -0.004102727029
       6        0.003352651100    -0.005345396299    -0.001166597667
       7       -0.000001225885    -0.000016943487    -0.000002215531
       8        0.000007333493     0.000019702159    -0.000080529023
       9        0.002720001255    -0.004863186889     0.003125101338
      10        0.000023262972    -0.000021832263     0.000018884445
      11        0.000003909040    -0.000000698208     0.000047421300
      12        0.000005960867     0.000041082817    -0.000008555902
      13       -0.000011406920    -0.000038237614    -0.000011051405
      14        0.000023271269     0.000019931684     0.000006382812
      15        0.000004605316     0.000001604805    -0.000003618979
      16       -0.000018097046    -0.000016907830     0.000008998059

  **** Optimization is complete! (in 7 steps) ****
    Final optimized geometry and variables:
    Molecular point group: c1

    Geometry (in Angstrom), charge = 0, multiplicity = 1:

    H            2.286737217960     1.919908614886    -0.146976694435
    N            1.429742959975     1.427291655938    -0.309654408148
    C            1.556199449792     0.043591882529     0.122395304409
    H            1.254307197431     1.474175293566    -1.295531855511
    C            0.246763703267    -0.760190970061     0.005526267199
    H            1.895907116798     0.030698472972     1.152716059372
    H            2.329316731336    -0.495860720374    -0.430190129157
    C           -1.045660403983     0.046694203097     0.127979599317
    H            0.253104788501    -1.345640448182    -0.912220248188
    H            0.259181924712    -1.510598367674     0.794543979429
    C           -2.285490936207    -0.847491533625     0.116513160548
    H           -1.113262326660     0.769028084611    -0.678320855837
    H           -1.019645544298     0.627582232930     1.044984300070
    H           -2.347284562588    -1.424070004413    -0.802759346065
    H           -3.193958867472    -0.258310114163     0.197111541229
    H           -2.273878214684    -1.550824051740     0.944816413824

  Mulliken Charges: (a.u.)
   Center  Symbol    Alpha    Beta     Spin     Total
       1     H     0.33134  0.33134  0.00000  0.33731
       2     N     3.92093  3.92093  0.00000 -0.84187
       3     C     3.06091  3.06091  0.00000 -0.12181
       4     H     0.33491  0.33491  0.00000  0.33018
       5     C     3.16569  3.16569  0.00000 -0.33137
       6     H     0.41990  0.41990  0.00000  0.16020
       7     H     0.43294  0.43294  0.00000  0.13412
       8     C     3.14066  3.14066  0.00000 -0.28133
       9     H     0.42447  0.42447  0.00000  0.15107
      10     H     0.42212  0.42212  0.00000  0.15577
      11     C     3.24102  3.24102  0.00000 -0.48204
      12     H     0.42051  0.42051  0.00000  0.15897
      13     H     0.41710  0.41710  0.00000  0.16580
      14     H     0.42423  0.42423  0.00000  0.15154
      15     H     0.41975  0.41975  0.00000  0.16050
      16     H     0.42352  0.42352  0.00000  0.15296

   Total alpha = 21.00000, Total beta = 21.00000, Total charge = -0.00000
