  ==> Input File <==

--------------------------------------------------------------------------
set {
	reference rhf
	basis 6-31G*
}

set_num_threads( 4 )
memory 2 gb

molecule MOL {
0 1

H	 -2.172150	 0.880146	 0.502514
C	 -2.018062	 -0.000025	 -0.114509
O	 -0.774054	 0.001095	 -0.743181
H	 -2.760490	 0.003458	 -0.901350
H	 -2.173624	 -0.884374	 0.496163
C	 0.395487	 -0.249116	 0.015832
C	 1.519243	 -0.167506	 -1.014957
C	 0.595296	 0.822433	 1.092423
C	 0.360301	 -1.647401	 0.640873
H	 1.530054	 0.812490	 -1.478553
H	 1.366098	 -0.906374	 -1.793413
H	 2.485841	 -0.344112	 -0.554350
H	 0.547046	 1.812114	 0.650571
H	 1.565993	 0.705874	 1.563339
H	 -0.153586	 0.761199	 1.874714
H	 0.147403	 -2.392781	 -0.118162
H	 1.319610	 -1.882473	 1.090316
H	 -0.390724	 -1.728914	 1.419301

	symmetry c1
}
set optking {
	frozen_dihedral = ("
		6 3 2 5
	")
}

ee = optimize('scf')
oeprop('DIPOLE', 'QUADRUPOLE', 'MULLIKEN_CHARGES')
f=open( 'psi4out.xyz', 'w' )
f.write( "18  " )
f.write( str(ee) + "\n" )
f.write( MOL.save_string_xyz() )
f.close()
--------------------------------------------------------------------------

    Molecular point group: c1
  Charge       = 0
  Multiplicity = 1
  Basis Set: 6-31G*
  Basis Set:
  @DF-RHF Final Energy:  -271.17522345438636
    Total Energy =                       -271.1752234543863551
    Molecular point group: c1
  Basis Set: 6-31G*
  Basis Set:
  Basis Set: 6-31G*
  Basis Set:
  @DF-RHF Final Energy:  -271.17482253000145
    Total Energy =                       -271.1748225300013360
  Basis Set: 6-31G*
  Basis Set:
  Basis Set: 6-31G*
  Basis Set:
  @DF-RHF Final Energy:  -271.17539045364339
    Total Energy =                       -271.1753904536431605
  Basis Set: 6-31G*
  Basis Set:
  Basis Set: 6-31G*
  Basis Set:
  @DF-RHF Final Energy:  -271.17535598980203
    Total Energy =                       -271.1753559898018580
  Basis Set: 6-31G*
  Basis Set:
  @DF-RHF Final Energy:  -271.17539922050065
    Total Energy =                       -271.1753992205004806
  Basis Set: 6-31G*
  Basis Set:
  @DF-RHF Final Energy:  -271.17540394402658
    Total Energy =                       -271.1754039440265842
  Basis Set: 6-31G*
  Basis Set:
  Basis Set: 6-31G*
  Basis Set:
  @DF-RHF Final Energy:  -271.17540688199028
    Total Energy =                       -271.1754068819900567
  Basis Set: 6-31G*
  Basis Set:
  Basis Set: 6-31G*
  Basis Set:
  @DF-RHF Final Energy:  -271.17540862951381
    Total Energy =                       -271.1754086295137540
  Basis Set: 6-31G*
  Basis Set:
  Charge       = 0
  Multiplicity = 1
  Basis Set: 6-31G*
  Basis Set:

    Orbital Energies (a.u.)
    -----------------------

    Doubly Occupied:

       1A    -20.546680     2A    -11.281316     3A    -11.260719
       4A    -11.209634     5A    -11.207776     6A    -11.203266
       7A     -1.370025     8A     -1.072958     9A     -0.946203
      10A     -0.939467    11A     -0.912446    12A     -0.752402
      13A     -0.655342    14A     -0.644351    15A     -0.637638
      16A     -0.592221    17A     -0.574148    18A     -0.552815
      19A     -0.534444    20A     -0.524015    21A     -0.514723
      22A     -0.488196    23A     -0.486420    24A     -0.439030
      25A     -0.403906

  @DF-RHF Final Energy:  -271.17540866745344

   => Energetics <=

    Nuclear Repulsion Energy =            272.3373701150070474
    One-Electron Energy =                -907.5252753539591595
    Two-Electron Energy =                 364.0124965714986160
    DFT Exchange-Correlation Energy =       0.0000000000000000
    Empirical Dispersion Energy =           0.0000000000000000
    PCM Polarization Energy =               0.0000000000000000
    EFP Energy =                            0.0000000000000000
    Total Energy =                       -271.1754086674534960
    Molecular point group: c1
  Basis Set: 6-31G*
  Basis Set:

  -Total Gradient:
     Atom            X                  Y                   Z
    ------   -----------------  -----------------  -----------------
       1       -0.000007543585     0.000003168554     0.000004837152
       2       -0.000340773706    -0.000645064269    -0.000557660855
       3        0.000183770912     0.000808981416     0.000172642272
       4        0.000012473097    -0.000003046911    -0.000004555086
       5        0.000259668471     0.000313449705     0.000430005694
       6       -0.000072159985    -0.000485488289    -0.000029515158
       7       -0.000011049856     0.000004511483    -0.000004943574
       8       -0.000005794131     0.000003601830    -0.000007478085
       9       -0.000004056467    -0.000003337350    -0.000004304011
      10        0.000001882811     0.000001976452    -0.000005674703
      11       -0.000002132021    -0.000001143728     0.000004557598
      12       -0.000004245723     0.000003166662     0.000003637146
      13        0.000000137983     0.000002689284     0.000001720743
      14       -0.000000472779    -0.000001343812    -0.000003949737
      15       -0.000004319422    -0.000001932326    -0.000000026964
      16       -0.000001013707    -0.000001734565     0.000001068616
      17        0.000001558665    -0.000001099505     0.000002826087
      18       -0.000005930555     0.000002645369    -0.000003187133

  **** Optimization is complete! (in 9 steps) ****
    Final optimized geometry and variables:
    Molecular point group: c1

    Geometry (in Angstrom), charge = 0, multiplicity = 1:

    H           -2.099521309507     1.212586110273     0.439886116819
    C           -2.000345718172     0.265552202844    -0.082978365416
    O           -0.771199105869     0.152438342397    -0.730991790831
    H           -2.761950508130     0.218341510078    -0.849842958532
    H           -2.177186992459    -0.537887898895     0.625369443003
    C            0.404043423773    -0.055526982489     0.032088768825
    C            1.529421916272     0.057779695895    -0.993733888010
    C            0.567902459832     1.019210716176     1.110954550381
    C            0.404470607086    -1.456022483872     0.653607727989
    H            1.521755126933     1.041026972689    -1.450477625798
    H            1.394392960765    -0.678616144687    -1.777845199722
    H            2.497825840980    -0.102552605551    -0.530875919410
    H            0.500154618237     2.009133656256     0.671818944373
    H            1.536873076418     0.925409289095     1.590140271921
    H           -0.187433512116     0.937247327479     1.885481200668
    H            0.233897615067    -2.204173536162    -0.112943900736
    H            1.360484013410    -1.660423759638     1.124949627671
    H           -0.361347793815    -1.567062410033     1.413522307742

  Mulliken Charges: (a.u.)
   Center  Symbol    Alpha    Beta     Spin     Total
       1     H     0.42818  0.42818  0.00000  0.14365
       2     C     3.07932  3.07932  0.00000 -0.15864
       3     O     4.31874  4.31874  0.00000 -0.63748
       4     H     0.41294  0.41294  0.00000  0.17411
       5     H     0.43076  0.43076  0.00000  0.13849
       6     C     2.84292  2.84292  0.00000  0.31417
       7     C     3.23302  3.23302  0.00000 -0.46604
       8     C     3.24952  3.24952  0.00000 -0.49904
       9     C     3.24438  3.24438  0.00000 -0.48875
      10     H     0.41464  0.41464  0.00000  0.17072
      11     H     0.41369  0.41369  0.00000  0.17261
      12     H     0.42512  0.42512  0.00000  0.14977
      13     H     0.41352  0.41352  0.00000  0.17295
      14     H     0.41868  0.41868  0.00000  0.16263
      15     H     0.41982  0.41982  0.00000  0.16036
      16     H     0.41324  0.41324  0.00000  0.17352
      17     H     0.42083  0.42083  0.00000  0.15833
      18     H     0.42068  0.42068  0.00000  0.15864

   Total alpha = 25.00000, Total beta = 25.00000, Total charge = -0.00000
