  ==> Input File <==

--------------------------------------------------------------------------
set {
	reference rhf
	basis 6-31G*
}

set_num_threads( 1 )
memory 2 gb

molecule MOL {
0 1

O	 0.971784	 4.323827	 -0.745901
C	 -0.070399	 4.736905	 -1.153306
C	 -1.334679	 3.896430	 -1.141635
C	 -0.198968	 6.138799	 -1.713055
C	 -1.144447	 2.495077	 -0.568699
H	 -2.092324	 4.442079	 -0.580716
H	 -1.711528	 3.847140	 -2.162398
C	 -2.438342	 1.679247	 -0.573117
H	 -0.760971	 2.573704	 0.443672
H	 -0.379930	 1.977964	 -1.139887
C	 -2.259874	 0.272531	 0.000494
H	 -3.201666	 2.205213	 -0.001503
H	 -2.818290	 1.605704	 -1.591104
C	 -3.549786	 -0.549746	 -0.000374
H	 -1.880759	 0.344846	 1.018365
H	 -1.497652	 -0.254494	 -0.570697
C	 -4.809590	 0.315458	 -0.000369
H	 -3.560515	 -1.202009	 -0.871156
H	 -3.561123	 -1.202955	 0.869711
H	 -4.844746	 0.956611	 -0.876632
H	 -5.706986	 -0.295590	 -0.001609
H	 -4.845960	 0.954827	 0.877144
H	 -0.931459	 6.707102	 -1.147275
H	 0.758601	 6.638698	 -1.668381
H	 -0.542662	 6.105322	 -2.742807

	symmetry c1
}
set optking {
	frozen_dihedral = ("
		9 5 8 12,
		15 11 8 12,
		1 2 3 6,
		9 5 3 6
	")
}

ee = energy('scf')
oeprop('DIPOLE', 'QUADRUPOLE', 'MULLIKEN_CHARGES')
f=open( 'psi4out.xyz', 'w' )
f.write( "25  " )
f.write( str(ee) + "\n" )
f.write( MOL.save_string_xyz() )
f.close()
--------------------------------------------------------------------------

    Molecular point group: c1

    Geometry (in Angstrom), charge = 0, multiplicity = 1:

       Center              X                  Y                   Z               Mass
    ------------   -----------------  -----------------  -----------------  -----------------
           O          2.626492446774     1.727381812191    -0.090609558767    15.994914619560
           C          1.584309446774     2.140459812191    -0.498014558767    12.000000000000
           C          0.320029446774     1.299984812191    -0.486343558767    12.000000000000
           C          1.455740446774     3.542353812191    -1.057763558767    12.000000000000
           C          0.510261446774    -0.101368187809     0.086592441233    12.000000000000
           H         -0.437615553226     1.845633812191     0.074575441233     1.007825032070
           H         -0.056819553226     1.250694812191    -1.507106558767     1.007825032070
           C         -0.783633553226    -0.917198187809     0.082174441233    12.000000000000
           H          0.893737446774    -0.022741187809     1.098963441233     1.007825032070
           H          1.274778446774    -0.618481187809    -0.484595558767     1.007825032070
           C         -0.605165553226    -2.323914187809     0.655785441233    12.000000000000
           H         -1.546957553226    -0.391232187809     0.653788441233     1.007825032070
           H         -1.163581553226    -0.990741187809    -0.935812558767     1.007825032070
           C         -1.895077553226    -3.146191187809     0.654917441233    12.000000000000
           H         -0.226050553226    -2.251599187809     1.673656441233     1.007825032070
           H          0.157056446774    -2.850939187809     0.084594441233     1.007825032070
           C         -3.154881553226    -2.280987187809     0.654922441233    12.000000000000
           H         -1.905806553226    -3.798454187809    -0.215864558767     1.007825032070
           H         -1.906414553226    -3.799400187809     1.525002441233     1.007825032070
           H         -3.190037553226    -1.639834187809    -0.221340558767     1.007825032070
           H         -4.052277553226    -2.892035187809     0.653682441233     1.007825032070
           H         -3.191251553226    -1.641618187809     1.532435441233     1.007825032070
           H          0.723249446774     4.110656812191    -0.491983558767     1.007825032070
           H          2.413309446774     4.042252812191    -1.013089558767     1.007825032070
           H          1.112046446774     3.508876812191    -2.087515558767     1.007825032070

  Charge       = 0
  Multiplicity = 1
  Basis Set: 6-31G*
  Basis Set:

    Orbital Energies (a.u.)
    -----------------------

    Doubly Occupied:

       1A    -20.550207     2A    -11.326048     3A    -11.231512
       4A    -11.228185     5A    -11.215993     6A    -11.215290
       7A    -11.214540     8A    -11.212559     9A    -11.208255
      10A     -1.395507    11A     -1.095563    12A     -1.056885
      13A     -1.012208    14A     -0.963734    15A     -0.898958
      16A     -0.829029    17A     -0.769846    18A     -0.728996
      19A     -0.660905    20A     -0.652367    21A     -0.630251
      22A     -0.624279    23A     -0.603763    24A     -0.592537
      25A     -0.559979    26A     -0.555554    27A     -0.549914
      28A     -0.523495    29A     -0.510569    30A     -0.492622
      31A     -0.489963    32A     -0.477585    33A     -0.459249
      34A     -0.452114    35A     -0.448258    36A     -0.399280

  @DF-RHF Final Energy:  -387.12657700586294

   => Energetics <=

    Nuclear Repulsion Energy =            446.2772920513026520
    One-Electron Energy =               -1409.1356512532888701
    Two-Electron Energy =                 575.7317821961264599
    DFT Exchange-Correlation Energy =       0.0000000000000000
    Empirical Dispersion Energy =           0.0000000000000000
    PCM Polarization Energy =               0.0000000000000000
    EFP Energy =                            0.0000000000000000
    Total Energy =                       -387.1265770058597582

  Mulliken Charges: (a.u.)
   Center  Symbol    Alpha    Beta     Spin     Total
       1     O     4.26120  4.26120  0.00000 -0.52241
       2     C     2.73569  2.73569  0.00000  0.52863
       3     C     3.21077  3.21077  0.00000 -0.42154
       4     C     3.28660  3.28660  0.00000 -0.57320
       5     C     3.14602  3.14602  0.00000 -0.29204
       6     H     0.41021  0.41021  0.00000  0.17958
       7     H     0.41029  0.41029  0.00000  0.17942
       8     C     3.16130  3.16130  0.00000 -0.32260
       9     H     0.41250  0.41250  0.00000  0.17500
      10     H     0.41264  0.41264  0.00000  0.17471
      11     C     3.15356  3.15356  0.00000 -0.30712
      12     H     0.42033  0.42033  0.00000  0.15934
      13     H     0.42445  0.42445  0.00000  0.15109
      14     C     3.15292  3.15292  0.00000 -0.30584
      15     H     0.42117  0.42117  0.00000  0.15767
      16     H     0.41961  0.41961  0.00000  0.16077
      17     C     3.24640  3.24640  0.00000 -0.49281
      18     H     0.42160  0.42160  0.00000  0.15681
      19     H     0.41969  0.41969  0.00000  0.16062
      20     H     0.41901  0.41901  0.00000  0.16197
      21     H     0.41836  0.41836  0.00000  0.16328
      22     H     0.42164  0.42164  0.00000  0.15672
      23     H     0.40878  0.40878  0.00000  0.18244
      24     H     0.39650  0.39650  0.00000  0.20700
      25     H     0.40875  0.40875  0.00000  0.18251

   Total alpha = 36.00000, Total beta = 36.00000, Total charge =  0.00000
