                              Psi4 1.0.54 Driver

  ==> Input File <==

--------------------------------------------------------------------------
set {
	reference rhf
	basis cc-pvtz
}

set_num_threads( 4 )
memory 2 gb

molecule MOL {
0 1

O	 -0.694481	 1.313155	 -0.204815
C	 -0.862519	 0.151932	 -0.046791
C	 -2.171428	 -0.477048	 0.339095
O	 0.085519	 -0.757083	 -0.192238
H	 -2.467997	 -1.191667	 -0.417688
H	 -2.923379	 0.287970	 0.444097
H	 -2.053854	 -1.015120	 1.270901
C	 1.392036	 -0.330828	 -0.560749
C	 2.258385	 -1.494098	 -0.996800
H	 1.839418	 0.198837	 0.265762
H	 1.234888	 0.358682	 -1.376610
H	 3.220713	 -1.124392	 -1.332500
H	 2.424995	 -2.180269	 -0.177780
H	 1.794979	 -2.030264	 -1.816174

	symmetry c1
}
set optking {
	frozen_dihedral = ("
		10 8 4 2
	")
}

ee,wfn = optimize('scf', return_wfn=True)
oeprop( wfn, 'DIPOLE', 'QUADRUPOLE', 'MULLIKEN_CHARGES')
f=open( 'psi4out.xyz', 'w' )
f.write( "14  " )
f.write( str(ee) + "\n" )
f.write( MOL.save_string_xyz() )
f.close()
--------------------------------------------------------------------------

    Molecular point group: c1
  Charge       = 0
  Multiplicity = 1
  Basis Set: CC-PVTZ
  Basis Set:
  @DF-RHF Final Energy:  -305.99032859691448
    Total Energy =                       -305.9903285969143667
    Molecular point group: c1
  Basis Set: CC-PVTZ
  Basis Set:
  Basis Set: CC-PVTZ
  Basis Set:
  @DF-RHF Final Energy:  -305.99167337925326
    Total Energy =                       -305.9916733792531431
  Basis Set: CC-PVTZ
  Basis Set:
  Basis Set: CC-PVTZ
  Basis Set:
  @DF-RHF Final Energy:  -305.99185068178656
    Total Energy =                       -305.9918506817869570
  Basis Set: CC-PVTZ
  Basis Set:
  Basis Set: CC-PVTZ
  Basis Set:
  @DF-RHF Final Energy:  -305.99180330743434
    Total Energy =                       -305.9918033074342816
  Basis Set: CC-PVTZ
  Basis Set:
  Basis Set: CC-PVTZ
  Basis Set:
  @DF-RHF Final Energy:  -305.99198224726126
    Total Energy =                       -305.9919822472612623
  Basis Set: CC-PVTZ
  Basis Set:
  Charge       = 0
  Multiplicity = 1
  Basis Set: CC-PVTZ
  Basis Set:

    Orbital Energies (a.u.)
    -----------------------

    Doubly Occupied:

       1A    -20.594960     2A    -20.533054     3A    -11.367134
       4A    -11.283289     5A    -11.231766     6A    -11.220905
       7A     -1.471467     8A     -1.365782     9A     -1.059009
      10A     -1.001121    11A     -0.872158    12A     -0.782158
      13A     -0.693945    14A     -0.690293    15A     -0.669578
      16A     -0.612403    17A     -0.581590    18A     -0.565035
      19A     -0.554197    20A     -0.541371    21A     -0.510011
      22A     -0.504436    23A     -0.457149    24A     -0.442424

  @DF-RHF Final Energy:  -305.99198279856199

   => Energetics <=

    Nuclear Repulsion Energy =            246.0891985035555649
    One-Electron Energy =                -904.9518892772289291
    Two-Electron Energy =                 352.8707079751115430
    DFT Exchange-Correlation Energy =       0.0000000000000000
    Empirical Dispersion Energy =           0.0000000000000000
    PCM Polarization Energy =               0.0000000000000000
    EFP Energy =                            0.0000000000000000
    Total Energy =                       -305.9919827985618781
    Molecular point group: c1
  Basis Set: CC-PVTZ
  Basis Set:

  -Total Gradient:
     Atom            X                  Y                   Z
    ------   -----------------  -----------------  -----------------
       1        0.000003482459     0.000033310012     0.000002878699
       2       -0.000174082584    -0.000152010635    -0.000881342420
       3       -0.000007024891    -0.000010551548    -0.000007207920
       4        0.000466840793    -0.000062692629     0.001286201581
       5        0.000001535617    -0.000005105470     0.000005285267
       6        0.000009069644     0.000009585120    -0.000000468944
       7        0.000000052321     0.000001390811     0.000005919493
       8       -0.000612319699     0.001059334342    -0.000775160037
       9       -0.000063085502    -0.000017656375     0.000027320351
      10        0.000412022043    -0.000855839208     0.000359626335
      11       -0.000028884047    -0.000004137196    -0.000011656164
      12       -0.000012535971     0.000025021859     0.000004491883
      13        0.000007791517    -0.000010626062    -0.000002966236
      14       -0.000002861698    -0.000010023018    -0.000012921888

  **** Optimization is complete! (in 6 steps) ****
    Final optimized geometry and variables:
    Molecular point group: c1

    Geometry (in Angstrom), charge = 0, multiplicity = 1:

    O           -0.713950377348     1.572256966097     0.083271669836
    C           -0.865051644581     0.408265613176     0.235633288953
    C           -2.158998519053    -0.242858686700     0.634400136550
    O            0.097675969117    -0.482300861330     0.075161558180
    H           -2.455675414001    -0.956474312207    -0.123326246910
    H           -2.920458607653     0.510348822597     0.754816807260
    H           -2.021263106969    -0.785431501846     1.560803194932
    C            1.379124638107    -0.014513184306    -0.323299351291
    C            2.215887619327    -1.218396615603    -0.689563154115
    H            1.821804699429     0.532105522686     0.498543579026
    H            1.267993277433     0.662828863914    -1.156469199014
    H            3.207397071983    -0.897241556745    -0.986264796008
    H            2.312082675892    -1.892819618152     0.151989800386
    H            1.770493646071    -1.761136731250    -1.513902054998

  Mulliken Charges: (a.u.)
   Center  Symbol    Alpha    Beta     Spin     Total
       1     O     4.19732  4.19732  0.00000 -0.39464
       2     C     2.80729  2.80729  0.00000  0.38542
       3     C     3.13806  3.13806  0.00000 -0.27612
       4     O     4.15244  4.15244  0.00000 -0.30488
       5     H     0.44605  0.44605  0.00000  0.10789
       6     H     0.43803  0.43803  0.00000  0.12395
       7     H     0.44568  0.44568  0.00000  0.10864
       8     C     2.97808  2.97808  0.00000  0.04384
       9     C     3.13277  3.13277  0.00000 -0.26554
      10     H     0.45559  0.45559  0.00000  0.08883
      11     H     0.45117  0.45117  0.00000  0.09766
      12     H     0.45449  0.45449  0.00000  0.09102
      13     H     0.45139  0.45139  0.00000  0.09722
      14     H     0.45165  0.45165  0.00000  0.09670

   Total alpha = 24.00000, Total beta = 24.00000, Total charge = -0.00000

*** Psi4 exiting successfully. Buy a developer a beer!
