  ==> Input File <==

--------------------------------------------------------------------------
set {
	reference rhf
	basis 6-31G*
}

set_num_threads( 1 )
memory 2 gb

molecule MOL {
0 1

H	 -3.161837	 0.500524	 -0.000234
C	 -2.367097	 -0.232926	 -0.000000
O	 -1.158440	 0.455814	 -0.000122
H	 -2.468853	 -0.861886	 -0.882833
H	 -2.468942	 -0.861421	 0.883154
C	 -0.029776	 -0.365156	 0.000148
C	 1.212217	 0.508981	 0.000007
H	 -0.036772	 -1.013236	 -0.877259
H	 -0.036869	 -1.012778	 0.877897
C	 0.878712	 1.998202	 -0.076649
H	 1.781635	 0.298149	 0.899993
H	 1.836197	 0.220487	 -0.840302
H	 0.274170	 2.313135	 0.769382
H	 1.782653	 2.597982	 -0.075591
H	 0.328422	 2.234878	 -0.983053

	symmetry c1
}
set optking {
	frozen_dihedral = ("
		6 3 2 4,
		8 6 3 2
	")
}

ee = energy('scf')
oeprop('DIPOLE', 'QUADRUPOLE', 'MULLIKEN_CHARGES')
f=open( 'psi4out.xyz', 'w' )
f.write( "15  " )
f.write( str(ee) + "\n" )
f.write( MOL.save_string_xyz() )
f.close()
--------------------------------------------------------------------------

    Molecular point group: c1

    Geometry (in Angstrom), charge = 0, multiplicity = 1:

       Center              X                  Y                   Z               Mass
    ------------   -----------------  -----------------  -----------------  -----------------
           H         -2.832599620109     0.032739126989     0.015298158074     1.007825032070
           C         -2.037859620109    -0.700710873011     0.015532158074    12.000000000000
           O         -0.829202620109    -0.011970873011     0.015410158074    15.994914619560
           H         -2.139615620109    -1.329670873011    -0.867300841926     1.007825032070
           H         -2.139704620109    -1.329205873011     0.898686158074     1.007825032070
           C          0.299461379891    -0.832940873011     0.015680158074    12.000000000000
           C          1.541454379891     0.041196126989     0.015539158074    12.000000000000
           H          0.292465379891    -1.481020873011    -0.861726841926     1.007825032070
           H          0.292368379891    -1.480562873011     0.893429158074     1.007825032070
           C          1.207949379891     1.530417126989    -0.061116841926    12.000000000000
           H          2.110872379891    -0.169635873011     0.915525158074     1.007825032070
           H          2.165434379891    -0.247297873011    -0.824769841926     1.007825032070
           H          0.603407379891     1.845350126989     0.784914158074     1.007825032070
           H          2.111890379891     2.130197126989    -0.060058841926     1.007825032070
           H          0.657659379891     1.767093126989    -0.967520841926     1.007825032070

  Charge       = 0
  Multiplicity = 1
  Basis Set: 6-31G*
  Basis Set:

    Orbital Energies (a.u.)
    -----------------------

    Doubly Occupied:

       1A    -20.553674     2A    -11.265283     3A    -11.264355
       4A    -11.212256     5A    -11.197910     6A     -1.380090
       7A     -1.051755     8A     -0.945093     9A     -0.892035
      10A     -0.789850    11A     -0.674779    12A     -0.659695
      13A     -0.635017    14A     -0.601557    15A     -0.545592
      16A     -0.538227    17A     -0.505479    18A     -0.476843
      19A     -0.474710    20A     -0.462858    21A     -0.407460

  @DF-RHF Final Energy:  -232.12954871331036

   => Energetics <=

    Nuclear Repulsion Energy =            195.2311216252740849
    One-Electron Energy =                -701.6524661481124667
    Two-Electron Energy =                 274.2917958095283097
    DFT Exchange-Correlation Energy =       0.0000000000000000
    Empirical Dispersion Energy =           0.0000000000000000
    PCM Polarization Energy =               0.0000000000000000
    EFP Energy =                            0.0000000000000000
    Total Energy =                       -232.1295487133100437

  Mulliken Charges: (a.u.)
   Center  Symbol    Alpha    Beta     Spin     Total
       1     H     0.41257  0.41257  0.00000  0.17486
       2     C     3.07809  3.07809  0.00000 -0.15619
       3     O     4.30603  4.30603  0.00000 -0.61207
       4     H     0.43038  0.43038  0.00000  0.13925
       5     H     0.43042  0.43042  0.00000  0.13917
       6     C     2.98291  2.98291  0.00000  0.03417
       7     C     3.17593  3.17593  0.00000 -0.35186
       8     H     0.43092  0.43092  0.00000  0.13817
       9     H     0.43058  0.43058  0.00000  0.13883
      10     C     3.22861  3.22861  0.00000 -0.45721
      11     H     0.41924  0.41924  0.00000  0.16151
      12     H     0.41941  0.41941  0.00000  0.16117
      13     H     0.41345  0.41345  0.00000  0.17310
      14     H     0.42594  0.42594  0.00000  0.14813
      15     H     0.41551  0.41551  0.00000  0.16897

   Total alpha = 21.00000, Total beta = 21.00000, Total charge = -0.00000
