  ==> Input File <==

--------------------------------------------------------------------------
set {
	reference rhf
	basis cc-pvtz
}

set_num_threads( 4 )
memory 2 gb

molecule MOL {
0 1

H	 3.259374	 0.209088	 -0.280463
N	 2.423874	 -0.335923	 -0.258271
C	 1.263552	 0.494993	 0.021953
H	 2.543981	 -1.030541	 0.449130
C	 -0.016533	 -0.325589	 -0.026925
H	 1.220406	 1.270235	 -0.735762
H	 1.327690	 1.002479	 0.985451
C	 -1.280353	 0.525521	 0.047747
H	 -0.016686	 -0.912532	 -0.939714
H	 -0.014099	 -1.037598	 0.796369
C	 -2.560681	 -0.301323	 -0.007747
H	 -1.279957	 1.241025	 -0.770189
H	 -1.270445	 1.110526	 0.963468
H	 -2.617064	 -0.872870	 -0.928010
H	 -3.439525	 0.331102	 0.043462
H	 -2.609427	 -1.002736	 0.818585

	symmetry c1
}
set optking {
	frozen_dihedral = ("
		6 3 5 9
	")
}

ee = optimize('scf')
oeprop('DIPOLE', 'QUADRUPOLE', 'MULLIKEN_CHARGES')
f=open( 'psi4out.xyz', 'w' )
f.write( "16  " )
f.write( str(ee) + "\n" )
f.write( MOL.save_string_xyz() )
f.close()
--------------------------------------------------------------------------

    Molecular point group: c1
  Charge       = 0
  Multiplicity = 1
  Basis Set: CC-PVTZ
  Basis Set:
  @DF-RHF Final Energy:  -212.40008533992528
    Total Energy =                       -212.4000853399252833
    Molecular point group: c1
  Basis Set: CC-PVTZ
  Basis Set:
  Basis Set: CC-PVTZ
  Basis Set:
  @DF-RHF Final Energy:  -212.40011586334029
    Total Energy =                       -212.4001158633402611
  Basis Set: CC-PVTZ
  Basis Set:
  Basis Set: CC-PVTZ
  Basis Set:
  @DF-RHF Final Energy:  -212.40012683354675
    Total Energy =                       -212.4001268335467785
  Basis Set: CC-PVTZ
  Basis Set:
  Charge       = 0
  Multiplicity = 1
  Basis Set: CC-PVTZ
  Basis Set:

    Orbital Energies (a.u.)
    -----------------------

    Doubly Occupied:

       1A    -15.526783     2A    -11.238020     3A    -11.213097
       4A    -11.207871     5A    -11.205896     6A     -1.178478
       7A     -1.060913     8A     -0.959831     9A     -0.844183
      10A     -0.792779    11A     -0.663391    12A     -0.641359
      13A     -0.604549    14A     -0.577035    15A     -0.567302
      16A     -0.524013    17A     -0.501025    18A     -0.470026
      19A     -0.465170    20A     -0.463174    21A     -0.384012

  @DF-RHF Final Energy:  -212.40012706292981

   => Energetics <=

    Nuclear Repulsion Energy =            186.5528362702395384
    One-Electron Energy =                -655.7281178159232695
    Two-Electron Energy =                 256.7751544827540329
    DFT Exchange-Correlation Energy =       0.0000000000000000
    Empirical Dispersion Energy =           0.0000000000000000
    PCM Polarization Energy =               0.0000000000000000
    EFP Energy =                            0.0000000000000000
    Total Energy =                       -212.4001270629296982
    Molecular point group: c1
  Basis Set: CC-PVTZ
  Basis Set:

  -Total Gradient:
     Atom            X                  Y                   Z
    ------   -----------------  -----------------  -----------------
       1       -0.000000044966     0.000013821805    -0.000002808579
       2       -0.000000828004    -0.000025383358    -0.000024182424
       3        0.000963720025    -0.001443541113    -0.001062044423
       4       -0.000005258705     0.000005412426     0.000009191350
       5       -0.001019863774     0.001655600804    -0.000653907563
       6       -0.000655223720     0.000947092473     0.001029821332
       7        0.000000540598     0.000017334799     0.000004081557
       8        0.000002118449     0.000015969152    -0.000055150038
       9        0.000688003285    -0.001157849538     0.000739220242
      10        0.000013206784    -0.000014731035    -0.000000145044
      11        0.000005374345    -0.000007938594     0.000022617173
      12        0.000000604792     0.000006070986    -0.000003424339
      13        0.000008350907    -0.000013884018    -0.000007814260
      14        0.000001970677     0.000011163688    -0.000001138235
      15       -0.000001612771    -0.000000584730     0.000009235775
      16       -0.000001057924    -0.000008553746    -0.000003552523

  **** Optimization is complete! (in 4 steps) ****
    Final optimized geometry and variables:
    Molecular point group: c1

    Geometry (in Angstrom), charge = 0, multiplicity = 1:

    H            3.266754710964     0.202891854856    -0.197463917145
    N            2.429559483725    -0.340055505676    -0.206423801037
    C            1.265118909503     0.490228579725     0.055491004933
    H            2.528987893010    -1.044320435540     0.494821917573
    C           -0.016598818821    -0.327389859263    -0.010576625920
    H            1.231021700968     1.273073135798    -0.694937998691
    H            1.313542756865     0.995644087990     1.021384901415
    C           -1.280409157553     0.521416183507     0.077409898691
    H           -0.011093076182    -0.906039761807    -0.928646273849
    H           -0.015050693244    -1.052125016289     0.802047611316
    C           -2.559753623054    -0.308092793237     0.046556821407
    H           -1.293046556405     1.231488393929    -0.744866077423
    H           -1.257676705033     1.111919801034     0.989490807750
    H           -2.628229141290    -0.885905904874    -0.868972104130
    H           -3.438920945956     0.323181905793     0.106142032069
    H           -2.595194890039    -1.003855564147     0.878285381410

  Mulliken Charges: (a.u.)
   Center  Symbol    Alpha    Beta     Spin     Total
       1     H     0.43033  0.43033  0.00000  0.13933
       2     N     3.68845  3.68845  0.00000 -0.37690
       3     C     3.02554  3.02554  0.00000 -0.05108
       4     H     0.43100  0.43100  0.00000  0.13799
       5     C     3.08182  3.08182  0.00000 -0.16364
       6     H     0.45810  0.45810  0.00000  0.08380
       7     H     0.46873  0.46873  0.00000  0.06254
       8     C     3.08788  3.08788  0.00000 -0.17576
       9     H     0.44896  0.44896  0.00000  0.10207
      10     H     0.46078  0.46078  0.00000  0.07844
      11     C     3.14927  3.14927  0.00000 -0.29855
      12     H     0.45419  0.45419  0.00000  0.09163
      13     H     0.45653  0.45653  0.00000  0.08695
      14     H     0.45409  0.45409  0.00000  0.09183
      15     H     0.44880  0.44880  0.00000  0.10240
      16     H     0.45553  0.45553  0.00000  0.08895

   Total alpha = 21.00000, Total beta = 21.00000, Total charge = -0.00000
