  ==> Input File <==

--------------------------------------------------------------------------
set {
	reference rhf
	basis cc-pvtz
}

set_num_threads( 4 )
memory 2 gb

molecule MOL {
0 1

O	 -2.440701	 -0.934798	 -0.415053
C	 -1.922978	 0.063265	 -0.045005
C	 -2.632749	 1.372204	 0.158357
O	 -0.637375	 0.157174	 0.243149
H	 -2.187724	 2.129143	 -0.474664
H	 -3.677681	 1.257276	 -0.079438
H	 -2.516788	 1.693160	 1.185542
C	 0.162530	 -1.009518	 0.097799
C	 1.587210	 -0.664190	 0.477086
H	 0.096803	 -1.356267	 -0.924704
H	 -0.233803	 -1.785900	 0.736810
C	 2.256770	 0.342732	 -0.454344
H	 2.154716	 -1.590834	 0.479041
H	 1.598751	 -0.289614	 1.496104
C	 1.497638	 1.662786	 -0.536767
H	 3.269704	 0.529754	 -0.107812
H	 2.344591	 -0.087324	 -1.445395
H	 1.996074	 2.359629	 -1.200360
H	 1.419067	 2.133116	 0.437916
H	 0.490878	 1.512050	 -0.911907

	symmetry c1
}
set optking {
	frozen_dihedral = ("
		16 12 9 8
	")
}

ee = optimize('scf')
oeprop('DIPOLE', 'QUADRUPOLE', 'MULLIKEN_CHARGES')
f=open( 'psi4out.xyz', 'w' )
f.write( "20  " )
f.write( str(ee) + "\n" )
f.write( MOL.save_string_xyz() )
f.close()
--------------------------------------------------------------------------

    Molecular point group: c1
  Charge       = 0
  Multiplicity = 1
  Basis Set: CC-PVTZ
  Basis Set:
  @DF-RHF Final Energy:  -384.07784277835583
    Total Energy =                       -384.0778427783560574
    Molecular point group: c1
  Basis Set: CC-PVTZ
  Basis Set:
  Basis Set: CC-PVTZ
  Basis Set:
  @DF-RHF Final Energy:  -384.08303716069412
    Total Energy =                       -384.0830371606945164
  Basis Set: CC-PVTZ
  Basis Set:
  Basis Set: CC-PVTZ
  Basis Set:
  @DF-RHF Final Energy:  -384.08360690685333
    Total Energy =                       -384.0836069068534471
  Basis Set: CC-PVTZ
  Basis Set:
  Basis Set: CC-PVTZ
  Basis Set:
  @DF-RHF Final Energy:  -384.08162914711613
    Total Energy =                       -384.0816291471157911
  Basis Set: CC-PVTZ
  Basis Set:
  Basis Set: CC-PVTZ
  Basis Set:
  @DF-RHF Final Energy:  -384.08398749194032
    Total Energy =                       -384.0839874919405474
  Basis Set: CC-PVTZ
  Basis Set:
  Basis Set: CC-PVTZ
  Basis Set:
  @DF-RHF Final Energy:  -384.08402360808668
    Total Energy =                       -384.0840236080864543
  Basis Set: CC-PVTZ
  Basis Set:
  Basis Set: CC-PVTZ
  Basis Set:
  @DF-RHF Final Energy:  -384.08403049293730
    Total Energy =                       -384.0840304929365630
  Basis Set: CC-PVTZ
  Basis Set:
  Charge       = 0
  Multiplicity = 1
  Basis Set: CC-PVTZ
  Basis Set:

    Orbital Energies (a.u.)
    -----------------------

    Doubly Occupied:

       1A    -20.594101     2A    -20.532816     3A    -11.366703
       4A    -11.280594     5A    -11.231690     6A    -11.224369
       7A    -11.220972     8A    -11.207816     9A     -1.471200
      10A     -1.365265    11A     -1.085354    12A     -1.027807
      13A     -0.980295    14A     -0.891261    15A     -0.799182
      16A     -0.780462    17A     -0.693276    18A     -0.689942
      19A     -0.669217    20A     -0.622639    21A     -0.607930
      22A     -0.588997    23A     -0.574537    24A     -0.556464
      25A     -0.547481    26A     -0.532408    27A     -0.513590
      28A     -0.482701    29A     -0.476665    30A     -0.470176
      31A     -0.448667    32A     -0.441426

  @DF-RHF Final Energy:  -384.08403113399004

   => Energetics <=

    Nuclear Repulsion Energy =            394.1595285434646030
    One-Electron Energy =               -1304.5351196109977536
    Two-Electron Energy =                 526.2915599335434536
    DFT Exchange-Correlation Energy =       0.0000000000000000
    Empirical Dispersion Energy =           0.0000000000000000
    PCM Polarization Energy =               0.0000000000000000
    EFP Energy =                            0.0000000000000000
    Total Energy =                       -384.0840311339896971
    Molecular point group: c1
  Basis Set: CC-PVTZ
  Basis Set:

  -Total Gradient:
     Atom            X                  Y                   Z
    ------   -----------------  -----------------  -----------------
       1        0.000037680070     0.000002298705     0.000022166476
       2        0.000013518255     0.000004710913    -0.000077615308
       3       -0.000004102700     0.000000329721     0.000019751494
       4        0.000044911328     0.000005492472    -0.000017984910
       5       -0.000001991335    -0.000003060928     0.000004570421
       6        0.000001513735     0.000002668945     0.000003751097
       7       -0.000003647280     0.000008305855     0.000007030219
       8       -0.000543892488     0.001027307502     0.000726652307
       9        0.000564681957    -0.001202785443    -0.000744833718
      10       -0.000005662731     0.000014009244    -0.000027147288
      11        0.000035556211     0.000001319193    -0.000011266420
      12        0.000555333808    -0.001227164204    -0.000753387096
      13       -0.000030804370    -0.000014202085     0.000003995727
      14       -0.000012647001    -0.000006912349    -0.000003519467
      15       -0.000072798141    -0.000040836234    -0.000054458036
      16       -0.000615330434     0.001396536935     0.000831561638
      17        0.000000055320     0.000006191956     0.000014084150
      18       -0.000016407517     0.000010366052     0.000009235255
      19       -0.000002448489     0.000004510166     0.000020487103
      20        0.000056481805     0.000010913580     0.000026926357

  **** Optimization is complete! (in 8 steps) ****
    Final optimized geometry and variables:
    Molecular point group: c1

    Geometry (in Angstrom), charge = 0, multiplicity = 1:

    O           -2.168363870884    -1.072495758218    -0.447602951985
    C           -1.712589613578    -0.098090072619     0.046370077269
    C           -2.498256930603     1.135753089959     0.390133595788
    O           -0.437335355652     0.032723354299     0.364338455792
    H           -2.092387127618     1.985477623906    -0.143627983332
    H           -3.532849745147     0.990862159364     0.125003578049
    H           -2.409260645930     1.340154087570     1.449250073724
    C            0.424749547757    -1.068755988243     0.107644316810
    C            1.828864667191    -0.723762956226     0.570039181381
    H            0.395455356923    -1.303371106910    -0.948347842127
    H            0.048804354150    -1.927999245882     0.644309006577
    C            2.650208416799     0.180825239460    -0.352395756084
    H            2.363376754192    -1.661298738239     0.687046987716
    H            1.761165705715    -0.282300943964     1.559478595031
    C            2.049776408356     1.552665986008    -0.652053121146
    H            3.618129190243     0.330702133747     0.115657489011
    H            2.836979515189    -0.340641649963    -1.287009994391
    H            2.749330073766     2.148882766965    -1.226876462100
    H            1.824774532056     2.090878989787     0.261964085351
    H            1.133335580192     1.478153676900    -1.222014622307

  Mulliken Charges: (a.u.)
   Center  Symbol    Alpha    Beta     Spin     Total
       1     O     4.19714  4.19714  0.00000 -0.39428
       2     C     2.80961  2.80961  0.00000  0.38079
       3     C     3.13787  3.13787  0.00000 -0.27575
       4     O     4.15261  4.15261  0.00000 -0.30521
       5     H     0.44595  0.44595  0.00000  0.10810
       6     H     0.43766  0.43766  0.00000  0.12469
       7     H     0.44578  0.44578  0.00000  0.10843
       8     C     2.99786  2.99786  0.00000  0.00427
       9     C     3.09332  3.09332  0.00000 -0.18665
      10     H     0.44915  0.44915  0.00000  0.10171
      11     H     0.44144  0.44144  0.00000  0.11711
      12     C     3.09274  3.09274  0.00000 -0.18549
      13     H     0.44539  0.44539  0.00000  0.10921
      14     H     0.45081  0.45081  0.00000  0.09838
      15     C     3.14496  3.14496  0.00000 -0.28992
      16     H     0.44882  0.44882  0.00000  0.10235
      17     H     0.45249  0.45249  0.00000  0.09501
      18     H     0.44785  0.44785  0.00000  0.10430
      19     H     0.45342  0.45342  0.00000  0.09315
      20     H     0.45510  0.45510  0.00000  0.08979

   Total alpha = 32.00000, Total beta = 32.00000, Total charge = -0.00000
