                              Psi4 1.0.54 Driver

  ==> Input File <==

--------------------------------------------------------------------------
set {
	reference rhf
	basis cc-pvtz
}

set_num_threads( 4 )
memory 2 gb

molecule MOL {
0 1

O	 -2.071633	 -1.227563	 -0.223463
C	 -1.652164	 -0.152425	 0.058082
C	 -0.327811	 0.006324	 0.778296
C	 -2.402515	 1.108629	 -0.298924
C	 0.843231	 -0.001575	 -0.211665
H	 -0.319484	 0.928173	 1.350354
H	 -0.227804	 -0.823091	 1.466705
C	 2.197693	 0.138030	 0.476937
H	 0.722944	 0.805202	 -0.930230
H	 0.813976	 -0.926978	 -0.776588
C	 2.552603	 1.585376	 0.800032
H	 2.198679	 -0.447246	 1.392347
H	 2.966823	 -0.289050	 -0.159916
H	 1.819245	 2.029875	 1.464592
H	 2.590415	 2.188816	 -0.100412
H	 3.520013	 1.651832	 1.283874
H	 -3.240910	 0.874416	 -0.936711
H	 -1.747554	 1.818823	 -0.790984
H	 -2.760419	 1.579708	 0.610998

	symmetry c1
}
set optking {
	frozen_dihedral = ("
		11 8 5 9
	")
}

ee,wfn = optimize('scf', return_wfn=True)
oeprop( wfn, 'DIPOLE', 'QUADRUPOLE', 'MULLIKEN_CHARGES')
f=open( 'psi4out.xyz', 'w' )
f.write( "19  " )
f.write( str(ee) + "\n" )
f.write( MOL.save_string_xyz() )
f.close()
--------------------------------------------------------------------------

    Molecular point group: c1
  Charge       = 0
  Multiplicity = 1
  Basis Set: CC-PVTZ
  Basis Set:
  @DF-RHF Final Energy:  -309.17471410496063
    Total Energy =                       -309.1747141049605716
    Molecular point group: c1
  Basis Set: CC-PVTZ
  Basis Set:
  Basis Set: CC-PVTZ
  Basis Set:
  @DF-RHF Final Energy:  -309.17488692296814
    Total Energy =                       -309.1748869229683123
  Basis Set: CC-PVTZ
  Basis Set:
  Basis Set: CC-PVTZ
  Basis Set:
  @DF-RHF Final Energy:  -309.17458625766818
    Total Energy =                       -309.1745862576683521
  Basis Set: CC-PVTZ
  Basis Set:
  Basis Set: CC-PVTZ
  Basis Set:
  @DF-RHF Final Energy:  -309.17488798496123
    Total Energy =                       -309.1748879849612308
  Basis Set: CC-PVTZ
  Basis Set:
  Basis Set: CC-PVTZ
  Basis Set:
  @DF-RHF Final Energy:  -309.17495815915424
    Total Energy =                       -309.1749581591542437
  Basis Set: CC-PVTZ
  Basis Set:
  Basis Set: CC-PVTZ
  Basis Set:
  @DF-RHF Final Energy:  -309.17494316308625
    Total Energy =                       -309.1749431630862546
  Basis Set: CC-PVTZ
  Basis Set:
  Basis Set: CC-PVTZ
  Basis Set:
  @DF-RHF Final Energy:  -309.17496510617781
    Total Energy =                       -309.1749651061777513
  Basis Set: CC-PVTZ
  Basis Set:
  Charge       = 0
  Multiplicity = 1
  Basis Set: CC-PVTZ
  Basis Set:

    Orbital Energies (a.u.)
    -----------------------

    Doubly Occupied:

       1A    -20.536827     2A    -11.319260     3A    -11.229122
       4A    -11.227557     5A    -11.226917     6A    -11.223437
       7A    -11.215451     8A     -1.396951     9A     -1.092640
      10A     -1.029332    11A     -0.983574    12A     -0.897894
      13A     -0.802680    14A     -0.736543    15A     -0.660958
      16A     -0.651153    17A     -0.619925    18A     -0.610741
      19A     -0.599758    20A     -0.569728    21A     -0.554241
      22A     -0.537089    23A     -0.523129    24A     -0.501148
      25A     -0.483047    26A     -0.474080    27A     -0.466786
      28A     -0.399346

  @DF-RHF Final Energy:  -309.17496553538160

   => Energetics <=

    Nuclear Repulsion Energy =            304.6447619015424380
    One-Electron Energy =               -1022.5008171151998795
    Two-Electron Energy =                 408.6810896782756117
    DFT Exchange-Correlation Energy =       0.0000000000000000
    Empirical Dispersion Energy =           0.0000000000000000
    PCM Polarization Energy =               0.0000000000000000
    EFP Energy =                            0.0000000000000000
    Total Energy =                       -309.1749655353818298
    Molecular point group: c1
  Basis Set: CC-PVTZ
  Basis Set:

  -Total Gradient:
     Atom            X                  Y                   Z
    ------   -----------------  -----------------  -----------------
       1        0.000046181209     0.000070721374     0.000016266584
       2       -0.000024478535    -0.000038114914    -0.000013791123
       3        0.000019688503    -0.000013168035    -0.000004629365
       4       -0.000016542791     0.000006819472     0.000026236586
       5        0.001422716504    -0.002030908679    -0.002797716602
       6       -0.000021026400    -0.000025204402    -0.000016830560
       7       -0.000000369686     0.000013823227    -0.000004854343
       8       -0.001236661280     0.000389841157     0.002823205921
       9       -0.000922652455     0.001629783579     0.001701211152
      10        0.000002427835     0.000026994517     0.000007991087
      11        0.000735547554    -0.000001908657    -0.001715579093
      12        0.000009112537    -0.000006123811    -0.000013435572
      13       -0.000032417009     0.000008191257     0.000012081622
      14        0.000016239023    -0.000002530965    -0.000012008851
      15        0.000007577100    -0.000001186339     0.000011918744
      16       -0.000019480450    -0.000006666560    -0.000004562376
      17        0.000011250181     0.000003813099     0.000003714187
      18       -0.000008384685    -0.000016254314     0.000006573063
      19        0.000011272843    -0.000007921006    -0.000025791061

  **** Optimization is complete! (in 8 steps) ****
    Final optimized geometry and variables:
    Molecular point group: c1

    Geometry (in Angstrom), charge = 0, multiplicity = 1:

    O           -2.044259663251    -1.372419423244    -0.218658029490
    C           -1.554851402273    -0.303734191318    -0.046665857614
    C           -0.198481087411    -0.162200092658     0.614767253827
    C           -2.246205501839     0.963790282626    -0.489857769898
    C            0.932019018131    -0.322210233453    -0.413340289029
    H           -0.124629397252     0.799937925998     1.108890778266
    H           -0.116927199604    -0.938702436541     1.364339526482
    C            2.328297537521    -0.168093512648     0.197910754621
    H            0.803871302460     0.418198823092    -1.198416553461
    H            0.833871402859    -1.297818901878    -0.872580502288
    C            2.771862324301     1.281404519453     0.377128258175
    H            2.367182114752    -0.688942687233     1.149667636240
    H            3.044239545188    -0.665960934938    -0.447817632250
    H            2.102025526869     1.834395551108     1.026540242039
    H            2.805337136241     1.794987352955    -0.577658644538
    H            3.762243019235     1.331904163622     0.814125712820
    H           -3.115026673409     0.725059498207    -1.083717226577
    H           -1.569621748908     1.593564201730    -1.056311001936
    H           -2.550987523953     1.527282166089     0.386246813052

  Mulliken Charges: (a.u.)
   Center  Symbol    Alpha    Beta     Spin     Total
       1     O     4.17709  4.17709  0.00000 -0.35419
       2     C     2.85745  2.85745  0.00000  0.28509
       3     C     3.09970  3.09970  0.00000 -0.19939
       4     C     3.15564  3.15564  0.00000 -0.31129
       5     C     3.10506  3.10506  0.00000 -0.21011
       6     H     0.44912  0.44912  0.00000  0.10177
       7     H     0.43886  0.43886  0.00000  0.12227
       8     C     3.09118  3.09118  0.00000 -0.18236
       9     H     0.45285  0.45285  0.00000  0.09430
      10     H     0.43465  0.43465  0.00000  0.13071
      11     C     3.14939  3.14939  0.00000 -0.29878
      12     H     0.45248  0.45248  0.00000  0.09505
      13     H     0.44584  0.44584  0.00000  0.10832
      14     H     0.45598  0.45598  0.00000  0.08803
      15     H     0.45429  0.45429  0.00000  0.09141
      16     H     0.44537  0.44537  0.00000  0.10926
      17     H     0.43577  0.43577  0.00000  0.12846
      18     H     0.45089  0.45089  0.00000  0.09822
      19     H     0.44839  0.44839  0.00000  0.10321

   Total alpha = 28.00000, Total beta = 28.00000, Total charge = -0.00000

*** Psi4 exiting successfully. Buy a developer a beer!
