  ==> Input File <==

--------------------------------------------------------------------------
set {
	reference rhf
	basis 6-31G*
}

set_num_threads( 4 )
memory 2 gb

molecule MOL {
0 1

H	 -2.318326	 -0.396619	 2.284387
C	 -1.837208	 -0.279485	 1.331402
C	 -2.575483	 -0.018487	 0.189571
C	 -0.466708	 -0.388393	 1.232309
H	 -3.645474	 0.070171	 0.246138
C	 -1.942890	 0.129971	 -1.030476
H	 0.132417	 -0.589321	 2.095705
C	 0.154804	 -0.237046	 -0.000077
H	 -2.533437	 0.332329	 -1.904776
C	 -0.560599	 0.027029	 -1.172891
N	 1.611208	 -0.370857	 -0.000034
C	 0.025328	 0.207534	 -2.556017
O	 2.274126	 0.622059	 -0.008063
O	 2.068510	 -1.474748	 0.007823
H	 0.561134	 -0.674384	 -2.878912
H	 -0.775944	 0.403369	 -3.257434
H	 0.723223	 1.032806	 -2.587530

	symmetry c1
}
set optking {
	frozen_dihedral = ("
		4 8 11 13
	")
}

ee = optimize('scf')
oeprop('DIPOLE', 'QUADRUPOLE', 'MULLIKEN_CHARGES')
f=open( 'psi4out.xyz', 'w' )
f.write( "17  " )
f.write( str(ee) + "\n" )
f.write( MOL.save_string_xyz() )
f.close()
--------------------------------------------------------------------------

    Molecular point group: c1
  Charge       = 0
  Multiplicity = 1
  Basis Set: 6-31G*
  Basis Set:
  @DF-RHF Final Energy:  -473.19857434126459
    Total Energy =                       -473.1985743412647025
    Molecular point group: c1
  Basis Set: 6-31G*
  Basis Set:
  Basis Set: 6-31G*
  Basis Set:
  @DF-RHF Final Energy:  -473.19758825596472
    Total Energy =                       -473.1975882559652291
  Basis Set: 6-31G*
  Basis Set:
  Basis Set: 6-31G*
  Basis Set:
  @DF-RHF Final Energy:  -473.19860518057061
    Total Energy =                       -473.1986051805703255
  Basis Set: 6-31G*
  Basis Set:
  Basis Set: 6-31G*
  Basis Set:
  @DF-RHF Final Energy:  -473.20118609915608
    Total Energy =                       -473.2011860991560752
  Basis Set: 6-31G*
  Basis Set:
  @DF-RHF Final Energy:  -473.20124057538965
    Total Energy =                       -473.2012405753898747
  Basis Set: 6-31G*
  Basis Set:
  @DF-RHF Final Energy:  -473.20126016855954
    Total Energy =                       -473.2012601685596564
  Basis Set: 6-31G*
  Basis Set:
  Basis Set: 6-31G*
  Basis Set:
  @DF-RHF Final Energy:  -473.20127429807741
    Total Energy =                       -473.2012742980775784
  Basis Set: 6-31G*
  Basis Set:
  Basis Set: 6-31G*
  Basis Set:
  @DF-RHF Final Energy:  -473.20127682702861
    Total Energy =                       -473.2012768270286642
  Basis Set: 6-31G*
  Basis Set:
  Charge       = 0
  Multiplicity = 1
  Basis Set: 6-31G*
  Basis Set:

    Orbital Energies (a.u.)
    -----------------------

    Doubly Occupied:

       1A    -20.606136     2A    -20.605690     3A    -15.853301
       4A    -11.302258     5A    -11.276246     6A    -11.267456
       7A    -11.258302     8A    -11.256290     9A    -11.255312
      10A    -11.240368    11A     -1.636794    12A     -1.420578
      13A     -1.202465    14A     -1.092189    15A     -1.072991
      16A     -0.979382    17A     -0.936097    18A     -0.853811
      19A     -0.819766    20A     -0.772633    21A     -0.734232
      22A     -0.730117    23A     -0.695942    24A     -0.652648
      25A     -0.636488    26A     -0.600201    27A     -0.599142
      28A     -0.570828    29A     -0.542585    30A     -0.529100
      31A     -0.520665    32A     -0.492903    33A     -0.478527
      34A     -0.450732    35A     -0.363912    36A     -0.353369

  @DF-RHF Final Energy:  -473.20127740853201

   => Energetics <=

    Nuclear Repulsion Energy =            509.7800728743467857
    One-Electron Energy =               -1654.6437832421838721
    Two-Electron Energy =                 671.6624329593050788
    DFT Exchange-Correlation Energy =       0.0000000000000000
    Empirical Dispersion Energy =           0.0000000000000000
    PCM Polarization Energy =               0.0000000000000000
    EFP Energy =                            0.0000000000000000
    Total Energy =                       -473.2012774085319506
    Molecular point group: c1
  Basis Set: 6-31G*
  Basis Set:

  -Total Gradient:
     Atom            X                  Y                   Z
    ------   -----------------  -----------------  -----------------
       1        0.000016433160    -0.000004133054     0.000004455458
       2       -0.000128715754     0.000020358079    -0.000057373381
       3        0.000006346537    -0.000001783406     0.000126759510
       4        0.000288244588     0.001935915236     0.000208559886
       5        0.000000380603     0.000000233909    -0.000018022621
       6        0.000108536795    -0.000010274631    -0.000049870024
       7       -0.000000789921     0.000003923618     0.000012292974
       8       -0.000216602770    -0.002810116950     0.000532606434
       9       -0.000013920781     0.000001104466     0.000006034657
      10       -0.000093143412     0.000019028001    -0.000049340415
      11       -0.000076662754     0.000806667863    -0.003050535535
      12       -0.000012449536    -0.000025047793    -0.000023246903
      13        0.000138839920     0.000049087046     0.002311356741
      14       -0.000026923340    -0.000002568930     0.000022275143
      15       -0.000002245649    -0.000001192438     0.000005151927
      16        0.000003328228     0.000001119242     0.000015201864
      17        0.000009344082     0.000017679741     0.000003694290

  **** Optimization is complete! (in 9 steps) ****
    Final optimized geometry and variables:
    Molecular point group: c1

    Geometry (in Angstrom), charge = 0, multiplicity = 1:

    H           -2.272630733162    -0.200881870285     2.545039931213
    C           -1.799662215081    -0.089648621472     1.587078821098
    C           -2.550890845147     0.183943949929     0.457255728293
    C           -0.426630792477    -0.223426901613     1.475222589760
    H           -3.618224927322     0.285107884615     0.533801908073
    C           -1.937203164808     0.328380420778    -0.776920370224
    H            0.183464523633    -0.443668179660     2.331396813195
    C            0.151686260299    -0.072855375366     0.234182354080
    H           -2.535184650491     0.538644695478    -1.645200140775
    C           -0.560423301867     0.211503594463    -0.920212162521
    N            1.610035742144    -0.190707520847     0.154096856382
    C            0.120134383279     0.385476009009    -2.257392674345
    O            2.237688845025     0.822236701510     0.110312220207
    O            2.070539616227    -1.290465990769     0.159455507300
    H            0.765546142139    -0.457034309995    -2.481787027332
    H           -0.615062981114     0.464212902671    -3.047659195198
    H            0.730378339462     1.281435289669    -2.267356491116

  Mulliken Charges: (a.u.)
   Center  Symbol    Alpha    Beta     Spin     Total
       1     H     0.38986  0.38986  0.00000  0.22028
       2     C     3.10872  3.10872  0.00000 -0.21745
       3     C     3.08844  3.08844  0.00000 -0.17687
       4     C     3.08295  3.08295  0.00000 -0.16590
       5     H     0.39118  0.39118  0.00000  0.21765
       6     C     3.11917  3.11917  0.00000 -0.23833
       7     H     0.37702  0.37702  0.00000  0.24596
       8     C     2.90806  2.90806  0.00000  0.18387
       9     H     0.39272  0.39272  0.00000  0.21456
      10     C     2.96847  2.96847  0.00000  0.06306
      11     N     3.26408  3.26408  0.00000  0.47185
      12     C     3.25992  3.25992  0.00000 -0.51984
      13     O     4.22503  4.22503  0.00000 -0.45005
      14     O     4.22413  4.22413  0.00000 -0.44825
      15     H     0.39970  0.39970  0.00000  0.20060
      16     H     0.40722  0.40722  0.00000  0.18556
      17     H     0.39335  0.39335  0.00000  0.21330

   Total alpha = 36.00000, Total beta = 36.00000, Total charge =  0.00000
