  ==> Input File <==

--------------------------------------------------------------------------
set {
	reference rhf
	basis 6-31G*
}

set_num_threads( 4 )
memory 2 gb

molecule MOL {
0 1

H	 1.136379	 0.211822	 1.465562
C	 1.135357	 0.094285	 0.374742
C	 0.065331	 0.871482	 -0.349150
O	 1.941633	 -0.601957	 -0.151457
C	 -0.255394	 2.206435	 0.338250
H	 -0.815962	 0.245696	 -0.430558
H	 0.433248	 1.065466	 -1.355712
C	 -0.910089	 2.038062	 1.709909
H	 -0.913200	 2.777603	 -0.309104
H	 0.656874	 2.791205	 0.435471
H	 -1.841562	 1.486174	 1.630516
H	 -1.130986	 3.003412	 2.153330
H	 -0.267747	 1.498055	 2.399241

	symmetry c1
}
set optking {
	frozen_dihedral = ("
		6 3 2 4
	")
}

ee = optimize('scf')
oeprop('DIPOLE', 'QUADRUPOLE', 'MULLIKEN_CHARGES')
f=open( 'psi4out.xyz', 'w' )
f.write( "13  " )
f.write( str(ee) + "\n" )
f.write( MOL.save_string_xyz() )
f.close()
--------------------------------------------------------------------------

    Molecular point group: c1
  Charge       = 0
  Multiplicity = 1
  Basis Set: 6-31G*
  Basis Set:
  @DF-RHF Final Energy:  -230.98157970791527
    Total Energy =                       -230.9815797079149888
    Molecular point group: c1
  Basis Set: 6-31G*
  Basis Set:
  Basis Set: 6-31G*
  Basis Set:
  @DF-RHF Final Energy:  -230.98238726461145
    Total Energy =                       -230.9823872646112477
  Basis Set: 6-31G*
  Basis Set:
  Basis Set: 6-31G*
  Basis Set:
  @DF-RHF Final Energy:  -230.98251017475670
    Total Energy =                       -230.9825101747568112
  Basis Set: 6-31G*
  Basis Set:
  Basis Set: 6-31G*
  Basis Set:
  @DF-RHF Final Energy:  -230.98257144641164
    Total Energy =                       -230.9825714464116686
  Basis Set: 6-31G*
  Basis Set:
  @DF-RHF Final Energy:  -230.98274516328220
    Total Energy =                       -230.9827451632822601
  Basis Set: 6-31G*
  Basis Set:
  @DF-RHF Final Energy:  -230.98270955430945
    Total Energy =                       -230.9827095543095652
  Basis Set: 6-31G*
  Basis Set:
  Basis Set: 6-31G*
  Basis Set:
  @DF-RHF Final Energy:  -230.98275299320628
    Total Energy =                       -230.9827529932063044
  Basis Set: 6-31G*
  Basis Set:
  Basis Set: 6-31G*
  Basis Set:
  @DF-RHF Final Energy:  -230.98275698567335
    Total Energy =                       -230.9827569856733476
  Basis Set: 6-31G*
  Basis Set:
  Charge       = 0
  Multiplicity = 1
  Basis Set: 6-31G*
  Basis Set:

    Orbital Energies (a.u.)
    -----------------------

    Doubly Occupied:

       1A    -20.561761     2A    -11.327014     3A    -11.238317
       4A    -11.235990     5A    -11.225973     6A     -1.402084
       7A     -1.086568     8A     -0.973522     9A     -0.851153
      10A     -0.789372    11A     -0.670284    12A     -0.649711
      13A     -0.610407    14A     -0.595281    15A     -0.581734
      16A     -0.525813    17A     -0.507332    18A     -0.494072
      19A     -0.484237    20A     -0.409075

  @DF-RHF Final Energy:  -230.98275717707631

   => Energetics <=

    Nuclear Repulsion Energy =            171.9137262321587798
    One-Electron Energy =                -653.3535639270149886
    Two-Electron Energy =                 250.4570805177797865
    DFT Exchange-Correlation Energy =       0.0000000000000000
    Empirical Dispersion Energy =           0.0000000000000000
    PCM Polarization Energy =               0.0000000000000000
    EFP Energy =                            0.0000000000000000
    Total Energy =                       -230.9827571770764507
    Molecular point group: c1
  Basis Set: 6-31G*
  Basis Set:

  -Total Gradient:
     Atom            X                  Y                   Z
    ------   -----------------  -----------------  -----------------
       1        0.000008220072    -0.000011992116    -0.000004710018
       2        0.000184238724     0.000215411833    -0.000088629772
       3       -0.000074464122     0.000050979855     0.000178792253
       4       -0.000118803732    -0.000171058944     0.000034072620
       5       -0.000031212891    -0.000013110265     0.000021262004
       6        0.000047284727    -0.000085623573    -0.000172458761
       7       -0.000009344760    -0.000035177312     0.000015170576
       8       -0.000001153228     0.000031688145    -0.000010429048
       9       -0.000001752799     0.000016463523     0.000015839714
      10       -0.000002614281     0.000000098184     0.000010643960
      11        0.000004273867    -0.000006023642    -0.000003023842
      12       -0.000007561754     0.000006256432     0.000007283705
      13        0.000002890170     0.000002087881    -0.000003813390

  **** Optimization is complete! (in 9 steps) ****
    Final optimized geometry and variables:
    Molecular point group: c1

    Geometry (in Angstrom), charge = 0, multiplicity = 1:

    H            0.900122455974    -0.724963046542     1.042678781654
    C            0.795734487365    -0.828310717293    -0.042358879180
    C           -0.325263586129    -0.048775242286    -0.688896737781
    O            1.539233296057    -1.534730109025    -0.643353308962
    C           -0.639741119914     1.288200157592    -0.003722143893
    H           -1.209745434357    -0.684920875550    -0.679879402683
    H           -0.054238741386     0.094083752928    -1.728723299631
    C           -1.375345215634     1.150004132279     1.330970754318
    H           -1.248588313579     1.880689881761    -0.679281150571
    H            0.281365080771     1.848731655136     0.139949766127
    H           -2.322447436788     0.634834054809     1.199414556943
    H           -1.585707987690     2.125820773211     1.756084363079
    H           -0.798037666921     0.595035846917     2.063853798449

  Mulliken Charges: (a.u.)
   Center  Symbol    Alpha    Beta     Spin     Total
       1     H     0.42977  0.42977  0.00000  0.14047
       2     C     2.83194  2.83194  0.00000  0.33613
       3     C     3.20967  3.20967  0.00000 -0.41934
       4     O     4.23986  4.23986  0.00000 -0.47971
       5     C     3.16639  3.16639  0.00000 -0.33277
       6     H     0.40402  0.40402  0.00000  0.19195
       7     H     0.39666  0.39666  0.00000  0.20669
       8     C     3.24402  3.24402  0.00000 -0.48805
       9     H     0.41108  0.41108  0.00000  0.17784
      10     H     0.41556  0.41556  0.00000  0.16888
      11     H     0.41805  0.41805  0.00000  0.16391
      12     H     0.41348  0.41348  0.00000  0.17303
      13     H     0.41951  0.41951  0.00000  0.16098

   Total alpha = 20.00000, Total beta = 20.00000, Total charge = -0.00000
