  ==> Input File <==

--------------------------------------------------------------------------
set {
	reference rhf
	basis cc-pvtz
}

set_num_threads( 4 )
memory 2 gb

molecule MOL {
0 1

O	 -0.694481	 1.313155	 -0.204815
C	 -0.862519	 0.151932	 -0.046791
C	 -2.171428	 -0.477048	 0.339095
O	 0.085519	 -0.757083	 -0.192238
H	 -2.467997	 -1.191667	 -0.417688
H	 -2.923379	 0.287970	 0.444097
H	 -2.053854	 -1.015120	 1.270901
C	 0.877026	 -1.107592	 0.936984
C	 0.209735	 -2.175218	 1.778885
H	 1.077296	 -0.221856	 1.519376
H	 1.803987	 -1.470840	 0.519198
H	 0.869448	 -2.463495	 2.589519
H	 -0.713772	 -1.809325	 2.206249
H	 -0.002488	 -3.054968	 1.183407

	symmetry c1
}
set optking {
	frozen_dihedral = ("
		8 4 2 1
	")
}

ee = optimize('scf')
oeprop('DIPOLE', 'QUADRUPOLE', 'MULLIKEN_CHARGES')
f=open( 'psi4out.xyz', 'w' )
f.write( "14  " )
f.write( str(ee) + "\n" )
f.write( MOL.save_string_xyz() )
f.close()
--------------------------------------------------------------------------

    Molecular point group: c1
  Charge       = 0
  Multiplicity = 1
  Basis Set: CC-PVTZ
  Basis Set:
  @DF-RHF Final Energy:  -305.96456918083015
    Total Energy =                       -305.9645691808302104
    Molecular point group: c1
  Basis Set: CC-PVTZ
  Basis Set:
  Basis Set: CC-PVTZ
  Basis Set:
  @DF-RHF Final Energy:  -305.96890946401538
    Total Energy =                       -305.9689094640151552
  Basis Set: CC-PVTZ
  Basis Set:
  Basis Set: CC-PVTZ
  Basis Set:
  @DF-RHF Final Energy:  -305.96904388027292
    Total Energy =                       -305.9690438802730341
  Basis Set: CC-PVTZ
  Basis Set:
  Basis Set: CC-PVTZ
  Basis Set:
  @DF-RHF Final Energy:  -305.96953342791312
    Total Energy =                       -305.9695334279131202
  Basis Set: CC-PVTZ
  Basis Set:
  @DF-RHF Final Energy:  -305.96961118745600
    Total Energy =                       -305.9696111874554276
  @DF-RHF Final Energy:  -305.96981048033848
    Total Energy =                       -305.9698104803386514
  @DF-RHF Final Energy:  -305.96990572165078
    Total Energy =                       -305.9699057216506617
  @DF-RHF Final Energy:  -305.96997928147516
    Total Energy =                       -305.9699792814752186
  @DF-RHF Final Energy:  -305.97018644526963
    Total Energy =                       -305.9701864452695759
  @DF-RHF Final Energy:  -305.97036652640497
    Total Energy =                       -305.9703665264049732
  @DF-RHF Final Energy:  -305.97060440731184
    Total Energy =                       -305.9706044073119529
  @DF-RHF Final Energy:  -305.97078758799256
    Total Energy =                       -305.9707875879927315
  @DF-RHF Final Energy:  -305.97090725080375
    Total Energy =                       -305.9709072508039753
  @DF-RHF Final Energy:  -305.97120758783365
    Total Energy =                       -305.9712075878334758
  @DF-RHF Final Energy:  -305.96917640989926
    Total Energy =                       -305.9691764098992621
  @DF-RHF Final Energy:  -305.97156229388008
    Total Energy =                       -305.9715622938799697
  @DF-RHF Final Energy:  -305.97191759336886
    Total Energy =                       -305.9719175933688007
  @DF-RHF Final Energy:  -305.97039878976841
    Total Energy =                       -305.9703987897680690
  @DF-RHF Final Energy:  -305.97219477634098
    Total Energy =                       -305.9721947763413255
  @DF-RHF Final Energy:  -305.97296741090361
    Total Energy =                       -305.9729674109032658
  @DF-RHF Final Energy:  -305.97316361737535
    Total Energy =                       -305.9731636173751781
  @DF-RHF Final Energy:  -305.97323867316078
    Total Energy =                       -305.9732386731607221
  @DF-RHF Final Energy:  -305.97325716358745
    Total Energy =                       -305.9732571635875047
  @DF-RHF Final Energy:  -305.97326412398854
    Total Energy =                       -305.9732641239883151
  @DF-RHF Final Energy:  -305.97326914621294
    Total Energy =                       -305.9732691462129992
  @DF-RHF Final Energy:  -305.97219336954447
    Total Energy =                       -305.9721933695445273
  Basis Set: CC-PVTZ
  Basis Set:
  @DF-RHF Final Energy:  -305.97310896516422
    Total Energy =                       -305.9731089651643288
  Basis Set: CC-PVTZ
  Basis Set:
  Basis Set: CC-PVTZ
  Basis Set:
  @DF-RHF Final Energy:  -305.97327034127579
    Total Energy =                       -305.9732703412759065
  Basis Set: CC-PVTZ
  Basis Set:
  Basis Set: CC-PVTZ
  Basis Set:
  @DF-RHF Final Energy:  -305.97327432411237
    Total Energy =                       -305.9732743241127082
  Basis Set: CC-PVTZ
  Basis Set:
  Charge       = 0
  Multiplicity = 1
  Basis Set: CC-PVTZ
  Basis Set:

    Orbital Energies (a.u.)
    -----------------------

    Doubly Occupied:

       1A    -20.576370     2A    -20.545318     3A    -11.370256
       4A    -11.294011     5A    -11.236418     6A    -11.223320
       7A     -1.461505     8A     -1.369970     9A     -1.051182
      10A     -1.008894    11A     -0.873703    12A     -0.782765
      13A     -0.699223    14A     -0.690664    15A     -0.650549
      16A     -0.632464    17A     -0.585411    18A     -0.576404
      19A     -0.554975    20A     -0.534493    21A     -0.523420
      22A     -0.494693    23A     -0.456190    24A     -0.441701

  @DF-RHF Final Energy:  -305.97327447562702

   => Energetics <=

    Nuclear Repulsion Energy =            245.1608103994078647
    One-Electron Energy =                -903.0003739810651950
    Two-Electron Energy =                 351.8662891060301376
    DFT Exchange-Correlation Energy =       0.0000000000000000
    Empirical Dispersion Energy =           0.0000000000000000
    PCM Polarization Energy =               0.0000000000000000
    EFP Energy =                            0.0000000000000000
    Total Energy =                       -305.9732744756271927
    Molecular point group: c1
  Basis Set: CC-PVTZ
  Basis Set:

  -Total Gradient:
     Atom            X                  Y                   Z
    ------   -----------------  -----------------  -----------------
       1       -0.001409771569    -0.001429990142    -0.001910240191
       2        0.001143489434     0.001940312258     0.003379456359
       3        0.000047489128     0.000046863099     0.000041097031
       4        0.002006970742    -0.000397370955    -0.002915416144
       5       -0.000002111986     0.000003107941    -0.000008621709
       6       -0.000002381645     0.000001024583     0.000003259698
       7        0.000000520990    -0.000006291608     0.000011311375
       8       -0.001773683673    -0.000183909874     0.001404786589
       9       -0.000000854697     0.000025872902    -0.000007789953
      10       -0.000003248725     0.000000699150    -0.000001561928
      11       -0.000001709269     0.000003954158     0.000000067285
      12        0.000004379195    -0.000000681154     0.000002360099
      13       -0.000008897792    -0.000003803110     0.000001699264
      14       -0.000000190131     0.000000212752    -0.000000407774

  **** Optimization is complete! (in 30 steps) ****
    Final optimized geometry and variables:
    Molecular point group: c1

    Geometry (in Angstrom), charge = 0, multiplicity = 1:

    O            0.063234611734     1.206280997148    -1.497936612660
    C           -0.488105989471     0.614568906925    -0.644293922171
    C           -1.826390270108     0.994780289022    -0.075279055753
    O            0.008862064113    -0.533943305535    -0.141606066008
    H           -2.537791589735     0.212452874061    -0.310086670157
    H           -2.156076771417     1.932021349320    -0.493577642720
    H           -1.770344663746     1.067797903703     1.003712326489
    C            0.885937929933    -0.429291152014     0.966649134313
    C            1.333946529013    -1.820157131323     1.348473148971
    H            0.371527951593     0.046841349132     1.795847846885
    H            1.732470290041     0.188203514249     0.691151968684
    H            2.009051920363    -1.770901052666     2.194784186770
    H            0.484572205482    -2.434235085627     1.619409576292
    H            1.848890594056    -2.291117747372     0.521558269704

  Mulliken Charges: (a.u.)
   Center  Symbol    Alpha    Beta     Spin     Total
       1     O     4.16954  4.16954  0.00000 -0.33908
       2     C     2.80409  2.80409  0.00000  0.39181
       3     C     3.14287  3.14287  0.00000 -0.28575
       4     O     4.16986  4.16986  0.00000 -0.33972
       5     H     0.44380  0.44380  0.00000  0.11239
       6     H     0.43684  0.43684  0.00000  0.12632
       7     H     0.45069  0.45069  0.00000  0.09862
       8     C     2.97353  2.97353  0.00000  0.05294
       9     C     3.13434  3.13434  0.00000 -0.26867
      10     H     0.46674  0.46674  0.00000  0.06652
      11     H     0.45460  0.45460  0.00000  0.09081
      12     H     0.45657  0.45657  0.00000  0.08687
      13     H     0.45070  0.45070  0.00000  0.09860
      14     H     0.44583  0.44583  0.00000  0.10834

   Total alpha = 24.00000, Total beta = 24.00000, Total charge = -0.00000
