                              Psi4 1.0.54 Driver

  ==> Input File <==

--------------------------------------------------------------------------
set {
	reference rhf
	basis cc-pvtz
}

set_num_threads( 4 )
memory 2 gb

molecule MOL {
0 1

H	 0.823640	 1.746104	 6.596204
C	 0.331630	 0.848293	 6.240215
C	 -0.296070	 1.070685	 4.868406
H	 1.072520	 0.057070	 6.204653
H	 -0.416809	 0.567942	 6.974410
C	 -1.008730	 -0.171781	 4.338912
H	 0.473872	 1.372035	 4.167468
H	 -1.005775	 1.892670	 4.927436
C	 -1.652310	 0.023052	 2.969703
H	 -0.308283	 -0.995987	 4.285183
H	 -1.784481	 -0.461458	 5.041821
C	 -0.669819	 0.119419	 1.814753
H	 -2.301503	 -0.819275	 2.744315
H	 -2.294396	 0.898950	 2.962912
C	 -1.180025	 0.697761	 0.509157
O	 0.451875	 -0.261102	 1.916151
C	 -2.285431	 -0.137488	 -0.145671
H	 -0.330377	 0.778197	 -0.155274
H	 -1.551823	 1.700948	 0.700409
C	 -3.646545	 0.082747	 0.508954
H	 -2.348635	 0.118247	 -1.199806
H	 -2.034895	 -1.192387	 -0.096473
C	 -4.757412	 -0.737227	 -0.138149
H	 -3.900211	 1.137405	 0.459735
H	 -3.580878	 -0.166775	 1.564416
H	 -4.867876	 -0.486707	 -1.187777
H	 -4.549650	 -1.800049	 -0.072540
H	 -5.709585	 -0.556397	 0.346597

	symmetry c1
}
set optking {
	frozen_dihedral = ("
		12 15 17 21
	")
}

ee,wfn = optimize('scf', return_wfn=True)
oeprop( wfn, 'DIPOLE', 'QUADRUPOLE', 'MULLIKEN_CHARGES')
f=open( 'psi4out.xyz', 'w' )
f.write( "28  " )
f.write( str(ee) + "\n" )
f.write( MOL.save_string_xyz() )
f.close()
--------------------------------------------------------------------------

    Molecular point group: c1
  Charge       = 0
  Multiplicity = 1
  Basis Set: CC-PVTZ
  Basis Set:
  @DF-RHF Final Energy:  -426.31111962906925
    Total Energy =                       -426.3111196290692533
    Molecular point group: c1
  Basis Set: CC-PVTZ
  Basis Set:
  Basis Set: CC-PVTZ
  Basis Set:
  @DF-RHF Final Energy:  -426.30132000138781
    Total Energy =                       -426.3013200013872392
  Basis Set: CC-PVTZ
  Basis Set:
  Basis Set: CC-PVTZ
  Basis Set:
  @DF-RHF Final Energy:  -426.31499899428013
    Total Energy =                       -426.3149989942810407
  Basis Set: CC-PVTZ
  Basis Set:
  Basis Set: CC-PVTZ
  Basis Set:
  @DF-RHF Final Energy:  -426.31249581297277
    Total Energy =                       -426.3124958129726565
  Basis Set: CC-PVTZ
  Basis Set:
  @DF-RHF Final Energy:  -426.31499919442297
    Total Energy =                       -426.3149991944227395
  @DF-RHF Final Energy:  -426.31561004385776
    Total Energy =                       -426.3156100438575322
  @DF-RHF Final Energy:  -426.31578013552564
    Total Energy =                       -426.3157801355257561
  @DF-RHF Final Energy:  -426.31611661506713
    Total Energy =                       -426.3161166150672443
  @DF-RHF Final Energy:  -426.11549449581378
    Total Energy =                       -426.1154944958138913
  @DF-RHF Final Energy:  -426.26327386822032
    Total Energy =                       -426.2632738682211766
  @DF-RHF Final Energy:  -426.31334766373789
    Total Energy =                       -426.3133476637379999
  @DF-RHF Final Energy:  -426.31753124195632
    Total Energy =                       -426.3175312419557486
  @DF-RHF Final Energy:  -426.31871955393410
    Total Energy =                       -426.3187195539343293
  @DF-RHF Final Energy:  -426.31922882150832
    Total Energy =                       -426.3192288215077497
  @DF-RHF Final Energy:  -426.31537492125767
    Total Energy =                       -426.3153749212578987
  @DF-RHF Final Energy:  -426.32024847795958
    Total Energy =                       -426.3202484779593533
  @DF-RHF Final Energy:  -426.32092472698162
    Total Energy =                       -426.3209247269812749
  @DF-RHF Final Energy:  -426.31931673290387
    Total Energy =                       -426.3193167329038715
  @DF-RHF Final Energy:  -426.32140937193742
    Total Energy =                       -426.3214093719374205
  Basis Set: CC-PVTZ
  Basis Set:
  @DF-RHF Final Energy:  -426.32150336036273
    Total Energy =                       -426.3215033603627262
  Basis Set: CC-PVTZ
  Basis Set:
  Basis Set: CC-PVTZ
  Basis Set:
  @DF-RHF Final Energy:  -426.32152371952395
    Total Energy =                       -426.3215237195241798
  Basis Set: CC-PVTZ
  Basis Set:
  Basis Set: CC-PVTZ
  Basis Set:
  @DF-RHF Final Energy:  -426.32152664152716
    Total Energy =                       -426.3215266415278393
  Basis Set: CC-PVTZ
  Basis Set:
  Charge       = 0
  Multiplicity = 1
  Basis Set: CC-PVTZ
  Basis Set:

    Orbital Energies (a.u.)
    -----------------------

    Doubly Occupied:

       1A    -20.538357     2A    -11.318871     3A    -11.229390
       4A    -11.229340     5A    -11.215473     6A    -11.214760
       7A    -11.212316     8A    -11.211688     9A    -11.204768
      10A    -11.204665    11A     -1.399259    12A     -1.089071
      13A     -1.077911    14A     -1.022464    15A     -0.990872
      16A     -0.911013    17A     -0.865823    18A     -0.808205
      19A     -0.790214    20A     -0.724240    21A     -0.679037
      22A     -0.637881    23A     -0.635222    24A     -0.615172
      25A     -0.606415    26A     -0.589572    27A     -0.578708
      28A     -0.574649    29A     -0.539549    30A     -0.527234
      31A     -0.520181    32A     -0.511732    33A     -0.500450
      34A     -0.480089    35A     -0.471145    36A     -0.468299
      37A     -0.467807    38A     -0.459286    39A     -0.458998
      40A     -0.397348

  @DF-RHF Final Energy:  -426.32152754792980

   => Energetics <=

    Nuclear Repulsion Energy =            537.8617805771781377
    One-Electron Energy =               -1644.4116681132218218
    Two-Electron Energy =                 680.2283599881136524
    DFT Exchange-Correlation Energy =       0.0000000000000000
    Empirical Dispersion Energy =           0.0000000000000000
    PCM Polarization Energy =               0.0000000000000000
    EFP Energy =                            0.0000000000000000
    Total Energy =                       -426.3215275479299180
    Molecular point group: c1
  Basis Set: CC-PVTZ
  Basis Set:

  -Total Gradient:
     Atom            X                  Y                   Z
    ------   -----------------  -----------------  -----------------
       1        0.000002186781     0.000017093966    -0.000008976562
       2        0.000003111599    -0.000037269068    -0.000034083785
       3        0.000030716251     0.000008480561     0.000012532630
       4       -0.000005964576     0.000022511205     0.000009074922
       5       -0.000010146913     0.000010857965     0.000009120231
       6       -0.000046303943    -0.000050251372     0.000012259473
       7        0.000002399322     0.000000625362     0.000009949893
       8       -0.000010151284    -0.000002577115    -0.000007935774
       9        0.000018877815    -0.000023425716     0.000024821470
      10        0.000012214885     0.000015119615    -0.000001075631
      11        0.000009156684     0.000012174476    -0.000020361891
      12        0.000838645081    -0.000752188391    -0.000187650806
      13       -0.000016575071     0.000014123691    -0.000010534483
      14       -0.000000084005    -0.000012374684     0.000000711130
      15       -0.001002095593     0.000699279001     0.000370307965
      16        0.000020617388     0.000068481775     0.000005364832
      17       -0.000664583667     0.001262444561    -0.000140400207
      18       -0.000035985496     0.000010662961    -0.000016457450
      19        0.000003580291     0.000017417730     0.000000397179
      20        0.000066046824    -0.000004620371    -0.000001392194
      21        0.000809081542    -0.001252601663    -0.000047005768
      22       -0.000012128435    -0.000000555901     0.000007677662
      23        0.000004054635     0.000009656358    -0.000031435231
      24        0.000006057623    -0.000006745444    -0.000005220720
      25       -0.000003384350    -0.000021211068     0.000024443763
      26       -0.000001781770    -0.000002320799     0.000019541789
      27       -0.000006072070     0.000001816258     0.000011621114
      28       -0.000011489546    -0.000004603894    -0.000005293551

  **** Optimization is complete! (in 23 steps) ****
    Final optimized geometry and variables:
    Molecular point group: c1

    Geometry (in Angstrom), charge = 0, multiplicity = 1:

    H            2.529803469188    -2.806514491789     3.599093538976
    C            1.716592469246    -2.092849854085     3.663506344289
    C            1.715887007537    -1.148634349828     2.466218275886
    H            0.788956310679    -2.652088043375     3.717630310916
    H            1.828443103232    -1.546855530392     4.594731281493
    C            0.588590199370    -0.120283667684     2.528145502615
    H            1.626984877759    -1.727542916869     1.554155389829
    H            2.670703225764    -0.630368143815     2.417135939352
    C            0.566202496474     0.840181489577     1.344175433941
    H           -0.364891675431    -0.630802130549     2.586509712599
    H            0.690969547239     0.462814596471     3.438713029428
    C            0.106237083106     0.231827141231     0.032015547505
    H           -0.118605881795     1.662715796953     1.540793877018
    H            1.538922020361     1.300366498318     1.196112172410
    C            0.425913254923     1.036182956214    -1.214853663704
    O           -0.470488303282    -0.805808588649    -0.014591424495
    C           -0.310721505142     0.591593746622    -2.474145833092
    H            1.500744992847     0.939918484290    -1.354333118553
    H            0.254259819080     2.088544806512    -1.007033563928
    C           -1.763194664998     1.057098305336    -2.532079752149
    H            0.226335520215     0.965208569571    -3.340866106125
    H           -0.276706858356    -0.489356409524    -2.533125923984
    C           -2.485561774598     0.582169909000    -3.788022941235
    H           -1.794084792927     2.143149048638    -2.488393795368
    H           -2.291176634654     0.694618715916    -1.656573218176
    H           -1.994336923208     0.946158368985    -4.684614712778
    H           -2.505674782346    -0.500949257589    -3.838384128312
    H           -3.510818558371     0.933375977245    -3.807155703129

  Mulliken Charges: (a.u.)
   Center  Symbol    Alpha    Beta     Spin     Total
       1     H     0.44864  0.44864  0.00000  0.10272
       2     C     3.15153  3.15153  0.00000 -0.30306
       3     C     3.08458  3.08458  0.00000 -0.16916
       4     H     0.45186  0.45186  0.00000  0.09628
       5     H     0.45677  0.45677  0.00000  0.08647
       6     C     3.08744  3.08744  0.00000 -0.17489
       7     H     0.44607  0.44607  0.00000  0.10786
       8     H     0.45838  0.45838  0.00000  0.08324
       9     C     3.11894  3.11894  0.00000 -0.23787
      10     H     0.44474  0.44474  0.00000  0.11052
      11     H     0.44747  0.44747  0.00000  0.10507
      12     C     2.86843  2.86843  0.00000  0.26314
      13     H     0.43644  0.43644  0.00000  0.12712
      14     H     0.44286  0.44286  0.00000  0.11427
      15     C     3.11863  3.11863  0.00000 -0.23726
      16     O     4.17952  4.17952  0.00000 -0.35904
      17     C     3.08954  3.08954  0.00000 -0.17908
      18     H     0.43677  0.43677  0.00000  0.12646
      19     H     0.44284  0.44284  0.00000  0.11432
      20     C     3.08278  3.08278  0.00000 -0.16555
      21     H     0.44709  0.44709  0.00000  0.10582
      22     H     0.44393  0.44393  0.00000  0.11214
      23     C     3.15158  3.15158  0.00000 -0.30316
      24     H     0.45823  0.45823  0.00000  0.08354
      25     H     0.44799  0.44799  0.00000  0.10403
      26     H     0.45665  0.45665  0.00000  0.08671
      27     H     0.45158  0.45158  0.00000  0.09684
      28     H     0.44874  0.44874  0.00000  0.10253

   Total alpha = 40.00000, Total beta = 40.00000, Total charge = -0.00000

*** Psi4 exiting successfully. Buy a developer a beer!
