  ==> Input File <==

--------------------------------------------------------------------------
set {
	reference rhf
	basis 6-31G*
}

set_num_threads( 4 )
memory 2 gb

molecule MOL {
0 1

H	 -0.080774	 -0.550194	 -0.822049
N	 -0.626943	 -0.667432	 -0.000092
C	 -1.979713	 -0.158776	 0.000050
C	 -0.066677	 -1.296599	 1.061235
H	 -2.520245	 -0.492427	 -0.879443
H	 -1.934741	 0.918111	 -0.004428
H	 -2.517790	 -0.485056	 0.883818
C	 1.363429	 -1.748103	 0.842314
O	 -0.646494	 -1.485482	 2.094846
H	 2.003214	 -0.899368	 0.621682
H	 1.715994	 -2.237744	 1.737661
H	 1.423608	 -2.439365	 0.007524

	symmetry c1
}
set optking {
	frozen_dihedral = ("
		4 2 3 5
	")
}

ee = optimize('scf')
oeprop('DIPOLE', 'QUADRUPOLE', 'MULLIKEN_CHARGES')
f=open( 'psi4out.xyz', 'w' )
f.write( "12  " )
f.write( str(ee) + "\n" )
f.write( MOL.save_string_xyz() )
f.close()
--------------------------------------------------------------------------

    Molecular point group: c1
  Charge       = 0
  Multiplicity = 1
  Basis Set: 6-31G*
  Basis Set:
  @DF-RHF Final Energy:  -247.00477710865979
    Total Energy =                       -247.0047771086599937
    Molecular point group: c1
  Basis Set: 6-31G*
  Basis Set:
  Basis Set: 6-31G*
  Basis Set:
  @DF-RHF Final Energy:  -247.00538386627829
    Total Energy =                       -247.0053838662782368
  Basis Set: 6-31G*
  Basis Set:
  Basis Set: 6-31G*
  Basis Set:
  @DF-RHF Final Energy:  -247.00543796942236
    Total Energy =                       -247.0054379694225304
  Basis Set: 6-31G*
  Basis Set:
  Basis Set: 6-31G*
  Basis Set:
  @DF-RHF Final Energy:  -247.00545732868571
    Total Energy =                       -247.0054573286859068
  Basis Set: 6-31G*
  Basis Set:
  Basis Set: 6-31G*
  Basis Set:
  @DF-RHF Final Energy:  -247.00548999757439
    Total Energy =                       -247.0054899975743865
  Basis Set: 6-31G*
  Basis Set:
  Basis Set: 6-31G*
  Basis Set:
  @DF-RHF Final Energy:  -247.00549194475209
    Total Energy =                       -247.0054919447520660
  Basis Set: 6-31G*
  Basis Set:
  Basis Set: 6-31G*
  Basis Set:
  @DF-RHF Final Energy:  -247.00549373819857
    Total Energy =                       -247.0054937381985383
  Basis Set: 6-31G*
  Basis Set:
  Charge       = 0
  Multiplicity = 1
  Basis Set: 6-31G*
  Basis Set:

    Orbital Energies (a.u.)
    -----------------------

    Doubly Occupied:

       1A    -20.515963     2A    -15.581241     3A    -11.343131
       4A    -11.253708     5A    -11.229692     6A     -1.384213
       7A     -1.228026     8A     -1.015698     9A     -0.931542
      10A     -0.786382    11A     -0.689171    12A     -0.648040
      13A     -0.632214    14A     -0.585889    15A     -0.579692
      16A     -0.554618    17A     -0.544020    18A     -0.507483
      19A     -0.412936    20A     -0.384217

  @DF-RHF Final Energy:  -247.00549463323210

   => Energetics <=

    Nuclear Repulsion Energy =            181.2735969922949835
    One-Electron Energy =                -694.9424347644587669
    Two-Electron Energy =                 266.6633431389318503
    DFT Exchange-Correlation Energy =       0.0000000000000000
    Empirical Dispersion Energy =           0.0000000000000000
    PCM Polarization Energy =               0.0000000000000000
    EFP Energy =                            0.0000000000000000
    Total Energy =                       -247.0054946332319332
    Molecular point group: c1
  Basis Set: 6-31G*
  Basis Set:

  -Total Gradient:
     Atom            X                  Y                   Z
    ------   -----------------  -----------------  -----------------
       1        0.000008010018     0.000026613103     0.000006037236
       2        0.000031988947     0.000056364481     0.000060707106
       3        0.000028347129     0.000099010320    -0.000078657670
       4       -0.000035509702    -0.000068374779    -0.000018315847
       5       -0.000035479828    -0.000095500954     0.000060550050
       6       -0.000007902222     0.000004155898    -0.000009104174
       7        0.000014455200    -0.000006123614    -0.000009540627
       8        0.000017798060     0.000050751585     0.000021462420
       9       -0.000007784488    -0.000032095724    -0.000014932557
      10        0.000011023317    -0.000018000863    -0.000025346067
      11       -0.000000305863     0.000000101875    -0.000000255220
      12       -0.000024640568    -0.000016901325     0.000007395346

  **** Optimization is complete! (in 8 steps) ****
    Final optimized geometry and variables:
    Molecular point group: c1

    Geometry (in Angstrom), charge = 0, multiplicity = 1:

    H            0.326967119189     0.519684566232    -1.612564671171
    N           -0.230643176928     0.378106991408    -0.802195104178
    C           -1.572759263703     0.914328328125    -0.793985840926
    C            0.332510722257    -0.232364290508     0.268593445892
    H           -2.126566896649     0.562636635862    -1.657235647030
    H           -1.567446363303     1.999735814464    -0.801356347238
    H           -2.066893727486     0.575122198436     0.101927555890
    C            1.762715528042    -0.686096303009     0.055135969201
    O           -0.247267319053    -0.407825544994     1.304532895100
    H            2.406209906279     0.164351087453    -0.148055445902
    H            2.106892290554    -1.187629221105     0.947140949900
    H            1.828861647221    -1.365762532015    -0.788497655097

  Mulliken Charges: (a.u.)
   Center  Symbol    Alpha    Beta     Spin     Total
       1     H     0.31109  0.31109  0.00000  0.37783
       2     N     3.89146  3.89146  0.00000 -0.78291
       3     C     3.14199  3.14199  0.00000 -0.28397
       4     C     2.63073  2.63073  0.00000  0.73855
       5     H     0.41666  0.41666  0.00000  0.16668
       6     H     0.41664  0.41664  0.00000  0.16672
       7     H     0.38622  0.38622  0.00000  0.22757
       8     C     3.29525  3.29525  0.00000 -0.59050
       9     O     4.30236  4.30236  0.00000 -0.60472
      10     H     0.40783  0.40783  0.00000  0.18434
      11     H     0.39185  0.39185  0.00000  0.21631
      12     H     0.40794  0.40794  0.00000  0.18411

   Total alpha = 20.00000, Total beta = 20.00000, Total charge = -0.00000
