                              Psi4 1.0.54 Driver

  ==> Input File <==

--------------------------------------------------------------------------
set {
	reference rhf
	basis cc-pvtz
}

set_num_threads( 4 )
memory 2 gb

molecule MOL {
0 1

H	 3.889604	 0.356866	 -0.089510
N	 3.091268	 -0.241216	 -0.065538
C	 1.860978	 0.530248	 0.016256
H	 3.192566	 -0.835836	 0.730398
C	 0.644130	 -0.381765	 -0.031064
H	 1.835721	 1.204666	 -0.833114
H	 1.808789	 1.151975	 0.911067
C	 -0.678115	 0.376691	 0.025731
H	 0.693998	 -0.977147	 -0.936845
H	 0.693309	 -1.082142	 0.800523
C	 -1.491678	 0.270294	 -1.261124
H	 -0.482217	 1.425369	 0.237517
H	 -1.274647	 0.005836	 0.856085
C	 -2.809752	 1.035103	 -1.202625
H	 -0.897287	 0.639864	 -2.092033
H	 -1.692065	 -0.776472	 -1.473010
H	 -2.641285	 2.092380	 -1.026486
H	 -3.361586	 0.938951	 -2.130655
H	 -3.442098	 0.665088	 -0.402273

	symmetry c1
}
set optking {
	frozen_dihedral = ("
		12 8 5 9
	")
}

ee,wfn = optimize('scf', return_wfn=True)
oeprop( wfn, 'DIPOLE', 'QUADRUPOLE', 'MULLIKEN_CHARGES')
f=open( 'psi4out.xyz', 'w' )
f.write( "19  " )
f.write( str(ee) + "\n" )
f.write( MOL.save_string_xyz() )
f.close()
--------------------------------------------------------------------------

    Molecular point group: c1
  Charge       = 0
  Multiplicity = 1
  Basis Set: CC-PVTZ
  Basis Set:
  @DF-RHF Final Energy:  -251.44298594319037
    Total Energy =                       -251.4429859431902514
    Molecular point group: c1
  Basis Set: CC-PVTZ
  Basis Set:
  Basis Set: CC-PVTZ
  Basis Set:
  @DF-RHF Final Energy:  -251.44322592969385
    Total Energy =                       -251.4432259296939947
  Basis Set: CC-PVTZ
  Basis Set:
  Basis Set: CC-PVTZ
  Basis Set:
  @DF-RHF Final Energy:  -251.44328454260554
    Total Energy =                       -251.4432845426055110
  Basis Set: CC-PVTZ
  Basis Set:
  Charge       = 0
  Multiplicity = 1
  Basis Set: CC-PVTZ
  Basis Set:

    Orbital Energies (a.u.)
    -----------------------

    Doubly Occupied:

       1A    -15.526472     2A    -11.238469     3A    -11.211673
       4A    -11.210313     5A    -11.207462     6A    -11.204974
       7A     -1.178442     8A     -1.072406     9A     -0.997854
      10A     -0.900429    11A     -0.818169    12A     -0.787167
      13A     -0.661620    14A     -0.635915    15A     -0.626305
      16A     -0.587714    17A     -0.570607    18A     -0.549416
      19A     -0.526629    20A     -0.499414    21A     -0.484730
      22A     -0.465475    23A     -0.453267    24A     -0.449840
      25A     -0.384039

  @DF-RHF Final Energy:  -251.44328507588477

   => Energetics <=

    Nuclear Repulsion Energy =            247.2775694219029674
    One-Electron Energy =                -828.9441081132848694
    Two-Electron Energy =                 330.2232536154970717
    DFT Exchange-Correlation Energy =       0.0000000000000000
    Empirical Dispersion Energy =           0.0000000000000000
    PCM Polarization Energy =               0.0000000000000000
    EFP Energy =                            0.0000000000000000
    Total Energy =                       -251.4432850758848303
    Molecular point group: c1
  Basis Set: CC-PVTZ
  Basis Set:

  -Total Gradient:
     Atom            X                  Y                   Z
    ------   -----------------  -----------------  -----------------
       1        0.000033830700    -0.000007693539    -0.000004462549
       2        0.000057208865    -0.000005052672    -0.000022400701
       3       -0.000053729522    -0.000037950132     0.000049475017
       4        0.000000066904     0.000009290758     0.000002626517
       5       -0.000598079379    -0.001030475618     0.000439721072
       6        0.000005361736    -0.000009248849     0.000012187677
       7       -0.000000140238     0.000026455488    -0.000003688191
       8        0.000005961081    -0.000079331589     0.001314826414
       9        0.000491610810     0.000938889379    -0.000625017801
      10       -0.000009618939     0.000016759117    -0.000006052979
      11       -0.000017875785    -0.000088596409     0.000062899708
      12        0.000081852676     0.000227162220    -0.001176775976
      13       -0.000001112240    -0.000008415389    -0.000014533314
      14        0.000014116271     0.000057086610    -0.000018168871
      15        0.000003045848    -0.000020628275    -0.000001725655
      16       -0.000014935660    -0.000002466414     0.000001028653
      17       -0.000015667279     0.000008906130     0.000010429528
      18        0.000001982847     0.000015506502    -0.000007000969
      19        0.000016121300    -0.000010197320    -0.000013367584

  **** Optimization is complete! (in 4 steps) ****
    Final optimized geometry and variables:
    Molecular point group: c1

    Geometry (in Angstrom), charge = 0, multiplicity = 1:

    H            3.750303655346     0.134218162811     0.226581455602
    N            2.962344634482    -0.476145129735     0.274393488749
    C            1.724306188193     0.273580843977     0.407914706556
    H            3.101930907027    -1.076747041673     1.060052814821
    C            0.519418792615    -0.658119602152     0.407938070807
    H            1.651571693741     0.949516928447    -0.438138634831
    H            1.696188987198     0.892908255962     1.305475374276
    C           -0.823734419330     0.093553419412     0.465474172908
    H            0.572582575864    -1.266927391432    -0.487378096161
    H            0.606201422104    -1.339605871340     1.249046473204
    C           -1.641788165370    -0.025194520173    -0.819400004951
    H           -0.643263173755     1.147614615010     0.660077635534
    H           -1.421197429888    -0.267098128652     1.296315341908
    C           -2.946826102688     0.761677520733    -0.775168507899
    H           -1.041408795969     0.317213635234    -1.658168807983
    H           -1.857529432204    -1.072817958162    -1.009371560014
    H           -2.761539220453     1.819852820292    -0.622264081077
    H           -3.502629294606     0.653969722465    -1.699611745548
    H           -3.582806224077     0.419165124130     0.034578208481

  Mulliken Charges: (a.u.)
   Center  Symbol    Alpha    Beta     Spin     Total
       1     H     0.43024  0.43024  0.00000  0.13952
       2     N     3.69018  3.69018  0.00000 -0.38035
       3     C     3.02374  3.02374  0.00000 -0.04748
       4     H     0.43089  0.43089  0.00000  0.13822
       5     C     3.09115  3.09115  0.00000 -0.18229
       6     H     0.45681  0.45681  0.00000  0.08638
       7     H     0.46779  0.46779  0.00000  0.06441
       8     C     3.10148  3.10148  0.00000 -0.20295
       9     H     0.44913  0.44913  0.00000  0.10173
      10     H     0.45397  0.45397  0.00000  0.09206
      11     C     3.08145  3.08145  0.00000 -0.16289
      12     H     0.45687  0.45687  0.00000  0.08625
      13     H     0.44899  0.44899  0.00000  0.10203
      14     C     3.15046  3.15046  0.00000 -0.30091
      15     H     0.45383  0.45383  0.00000  0.09234
      16     H     0.45334  0.45334  0.00000  0.09331
      17     H     0.45560  0.45560  0.00000  0.08880
      18     H     0.44859  0.44859  0.00000  0.10282
      19     H     0.45549  0.45549  0.00000  0.08902

   Total alpha = 25.00000, Total beta = 25.00000, Total charge = -0.00000

*** Psi4 exiting successfully. Buy a developer a beer!
