                              Psi4 1.0.54 Driver

  ==> Input File <==

--------------------------------------------------------------------------
set {
	reference rhf
	basis cc-pvtz
}

set_num_threads( 4 )
memory 2 gb

molecule MOL {
0 1

H	 -1.977149	 -0.043285	 3.632343
C	 -2.476937	 -0.531575	 2.784599
C	 -2.527571	 0.285953	 1.522468
O	 -2.933022	 -1.614776	 2.910976
C	 -1.153916	 0.821143	 1.107355
H	 -2.974776	 -0.314454	 0.740896
H	 -3.192065	 1.123774	 1.721986
C	 -0.178667	 -0.268960	 0.668324
H	 -1.292204	 1.528660	 0.297024
H	 -0.723914	 1.386004	 1.930897
C	 1.181757	 0.280428	 0.247371
H	 -0.615675	 -0.824301	 -0.157343
H	 -0.041859	 -0.986428	 1.473278
C	 2.151032	 -0.811012	 -0.202643
H	 1.037865	 1.002224	 -0.550532
H	 1.620701	 0.827278	 1.078985
C	 3.580021	 -0.656538	 0.320835
H	 2.170545	 -0.847575	 -1.289412
H	 1.766632	 -1.772905	 0.124928
C	 4.327657	 0.562694	 -0.213579
H	 4.138806	 -1.549270	 0.057813
H	 3.561991	 -0.620783	 1.406976
H	 4.355973	 0.557257	 -1.298551
H	 3.867136	 1.491650	 0.100501
H	 5.351524	 0.571613	 0.142204

	symmetry c1
}
set optking {
	frozen_dihedral = ("
		8 11 14 18
	")
}

ee,wfn = optimize('scf', return_wfn=True)
oeprop( wfn, 'DIPOLE', 'QUADRUPOLE', 'MULLIKEN_CHARGES')
f=open( 'psi4out.xyz', 'w' )
f.write( "25  " )
f.write( str(ee) + "\n" )
f.write( MOL.save_string_xyz() )
f.close()
--------------------------------------------------------------------------

    Molecular point group: c1
  Charge       = 0
  Multiplicity = 1
  Basis Set: CC-PVTZ
  Basis Set:
  @DF-RHF Final Energy:  -387.25643257630895
    Total Energy =                       -387.2564325763091801
    Molecular point group: c1
  Basis Set: CC-PVTZ
  Basis Set:
  Basis Set: CC-PVTZ
  Basis Set:
  @DF-RHF Final Energy:  -387.25672516842883
    Total Energy =                       -387.2567251684289431
  Basis Set: CC-PVTZ
  Basis Set:
  Basis Set: CC-PVTZ
  Basis Set:
  @DF-RHF Final Energy:  -387.25675747555101
    Total Energy =                       -387.2567574755512396
  Basis Set: CC-PVTZ
  Basis Set:
  Basis Set: CC-PVTZ
  Basis Set:
  @DF-RHF Final Energy:  -387.25664660493948
    Total Energy =                       -387.2566466049391920
  Basis Set: CC-PVTZ
  Basis Set:
  Basis Set: CC-PVTZ
  Basis Set:
  @DF-RHF Final Energy:  -387.25679824303131
    Total Energy =                       -387.2567982430316533
  Basis Set: CC-PVTZ
  Basis Set:
  Basis Set: CC-PVTZ
  Basis Set:
  @DF-RHF Final Energy:  -387.25681685606111
    Total Energy =                       -387.2568168560612776
  Basis Set: CC-PVTZ
  Basis Set:
  Basis Set: CC-PVTZ
  Basis Set:
  @DF-RHF Final Energy:  -387.25681885932244
    Total Energy =                       -387.2568188593222658
  Basis Set: CC-PVTZ
  Basis Set:
  Charge       = 0
  Multiplicity = 1
  Basis Set: CC-PVTZ
  Basis Set:

    Orbital Energies (a.u.)
    -----------------------

    Doubly Occupied:

       1A    -20.551521     2A    -11.321111     3A    -11.233894
       4A    -11.232794     5A    -11.222155     6A    -11.217991
       7A    -11.216002     8A    -11.214776     9A    -11.208689
      10A     -1.406524    11A     -1.104834    12A     -1.070701
      13A     -1.014041    14A     -0.942340    15A     -0.876041
      16A     -0.822485    17A     -0.788865    18A     -0.781240
      19A     -0.668834    20A     -0.661295    21A     -0.636694
      22A     -0.625920    23A     -0.605137    24A     -0.594146
      25A     -0.575579    26A     -0.553931    27A     -0.533677
      28A     -0.526829    29A     -0.513082    30A     -0.495514
      31A     -0.491490    32A     -0.482182    33A     -0.461070
      34A     -0.458844    35A     -0.442555    36A     -0.412032

  @DF-RHF Final Energy:  -387.25681918627367

   => Energetics <=

    Nuclear Repulsion Energy =            440.5319827339440053
    One-Electron Energy =               -1397.6479737898562234
    Two-Electron Energy =                 569.8591718696383168
    DFT Exchange-Correlation Energy =       0.0000000000000000
    Empirical Dispersion Energy =           0.0000000000000000
    PCM Polarization Energy =               0.0000000000000000
    EFP Energy =                            0.0000000000000000
    Total Energy =                       -387.2568191862739013
    Molecular point group: c1
  Basis Set: CC-PVTZ
  Basis Set:

  -Total Gradient:
     Atom            X                  Y                   Z
    ------   -----------------  -----------------  -----------------
       1        0.000012095522     0.000009013590     0.000002912744
       2       -0.000008884687     0.000024890879     0.000032997370
       3        0.000018879541    -0.000015563105    -0.000024556328
       4       -0.000010127466    -0.000019529020    -0.000010871282
       5        0.000023692516     0.000003879629     0.000032798056
       6        0.000001667494    -0.000017313878    -0.000009405521
       7       -0.000006903193     0.000018396612    -0.000015166732
       8        0.000843089816    -0.000340043593     0.002490045315
       9       -0.000009534850     0.000006925446     0.000003657344
      10        0.000000920805    -0.000009356525     0.000007946272
      11       -0.000544870692     0.001056329619    -0.003441279030
      12       -0.000001782967    -0.000022593220    -0.000001482335
      13       -0.000001155101     0.000009391056     0.000000565159
      14       -0.003036176364    -0.003143881840     0.000837232403
      15        0.000024884886     0.000003095909     0.000006573160
      16       -0.000013079362    -0.000005035624     0.000003437334
      17       -0.000016199111     0.000049679997     0.000052177767
      18        0.002727111639     0.002417251348     0.000046019960
      19        0.000010105311     0.000005944346     0.000002669755
      20        0.000000339218    -0.000022027678    -0.000013630958
      21       -0.000019691767     0.000020516845    -0.000012133522
      22        0.000017145167    -0.000002148645     0.000022938861
      23        0.000004149054     0.000005713161    -0.000014158571
      24       -0.000003515559    -0.000024523810    -0.000003312895
      25       -0.000012159850    -0.000009011502     0.000004025677

  **** Optimization is complete! (in 8 steps) ****
    Final optimized geometry and variables:
    Molecular point group: c1

    Geometry (in Angstrom), charge = 0, multiplicity = 1:

    H           -2.226989922558     0.163902362024     2.608024395585
    C           -2.717922625261    -0.323745424907     1.754716413781
    C           -2.757057687684     0.495522533178     0.493261613601
    O           -3.173843166552    -1.407728003264     1.874925089277
    C           -1.379720717162     1.031758566525     0.091939454113
    H           -3.196599200958    -0.103908613152    -0.293414834234
    H           -3.423789092117     1.332770960878     0.687708549589
    C           -0.402086432890    -0.056694682068    -0.344472109505
    H           -1.510713500841     1.743344438839    -0.716014699246
    H           -0.955849703212     1.592361559605     0.921702295278
    C            0.966695994548     0.491552968120    -0.741259163797
    H           -0.831823318930    -0.606368567038    -1.178273936376
    H           -0.272281329676    -0.780177201077     0.456025268458
    C            1.942456306288    -0.599178793139    -1.219201622480
    H            0.846338851133     1.251159954857    -1.506749534512
    H            1.388607972433     1.000544215754     0.121432211701
    C            3.375970081989    -0.423355695568    -0.713103726975
    H            1.973669984984    -0.608623249437    -2.304972272467
    H            1.581513663845    -1.572520014403    -0.905094560920
    C            4.071622203093     0.827492748279    -1.243179583102
    H            3.956137138993    -1.295136362848    -0.999682755795
    H            3.372966304534    -0.403617541994     0.373659805641
    H            4.118380112693     0.814928311261    -2.327441575998
    H            3.553894771270     1.732546500042    -0.946674934810
    H            5.087073133403     0.894710602767    -0.870080427107

  Mulliken Charges: (a.u.)
   Center  Symbol    Alpha    Beta     Spin     Total
       1     H     0.46429  0.46429  0.00000  0.07143
       2     C     2.90489  2.90489  0.00000  0.19023
       3     C     3.08919  3.08919  0.00000 -0.17837
       4     O     4.16615  4.16615  0.00000 -0.33231
       5     C     3.11674  3.11674  0.00000 -0.23348
       6     H     0.44291  0.44291  0.00000  0.11418
       7     H     0.44049  0.44049  0.00000  0.11901
       8     C     3.09073  3.09073  0.00000 -0.18146
       9     H     0.44299  0.44299  0.00000  0.11402
      10     H     0.44970  0.44970  0.00000  0.10061
      11     C     3.09798  3.09798  0.00000 -0.19596
      12     H     0.44878  0.44878  0.00000  0.10244
      13     H     0.44816  0.44816  0.00000  0.10367
      14     C     3.09779  3.09779  0.00000 -0.19557
      15     H     0.44782  0.44782  0.00000  0.10435
      16     H     0.45358  0.45358  0.00000  0.09284
      17     C     3.08957  3.08957  0.00000 -0.17914
      18     H     0.45134  0.45134  0.00000  0.09733
      19     H     0.44668  0.44668  0.00000  0.10663
      20     C     3.15054  3.15054  0.00000 -0.30108
      21     H     0.44845  0.44845  0.00000  0.10310
      22     H     0.45545  0.45545  0.00000  0.08910
      23     H     0.45469  0.45469  0.00000  0.09062
      24     H     0.45434  0.45434  0.00000  0.09131
      25     H     0.44675  0.44675  0.00000  0.10650

   Total alpha = 36.00000, Total beta = 36.00000, Total charge =  0.00000

*** Psi4 exiting successfully. Buy a developer a beer!
