  ==> Input File <==

--------------------------------------------------------------------------
set {
	reference rhf
	basis 6-31G*
}

set_num_threads( 1 )
memory 2 gb

molecule MOL {
0 1

H	 3.272118	 0.027357	 -1.461557
O	 2.345583	 -0.154256	 -1.337839
C	 2.077727	 -0.067559	 -0.035091
C	 0.624473	 -0.343591	 0.253101
O	 2.914455	 0.197712	 0.765243
C	 -0.265902	 0.883932	 0.072916
H	 0.324016	 -1.163849	 -0.390541
H	 0.565024	 -0.726111	 1.268924
C	 -1.728698	 0.646073	 0.462102
H	 -0.209144	 1.219470	 -0.958188
H	 0.135059	 1.692851	 0.673903
C	 -2.482460	 -0.343073	 -0.431425
H	 -2.245265	 1.602650	 0.432430
H	 -1.779332	 0.308348	 1.496285
C	 -3.960546	 -0.461025	 -0.060175
H	 -2.395034	 -0.026811	 -1.468912
H	 -2.024850	 -1.327147	 -0.371646
H	 -4.472726	 -1.168004	 -0.705284
H	 -4.465146	 0.496508	 -0.151489
H	 -4.081218	 -0.800940	 0.964585

	symmetry c1
}
set optking {
	frozen_dihedral = ("
		16 12 9 6,
		7 4 6 10,
		12 9 6 10,
		1 2 3 5
	")
}

ee = energy('scf')
oeprop('DIPOLE', 'QUADRUPOLE', 'MULLIKEN_CHARGES')
f=open( 'psi4out.xyz', 'w' )
f.write( "20  " )
f.write( str(ee) + "\n" )
f.write( MOL.save_string_xyz() )
f.close()
--------------------------------------------------------------------------

    Molecular point group: c1

    Geometry (in Angstrom), charge = 0, multiplicity = 1:

       Center              X                  Y                   Z               Mass
    ------------   -----------------  -----------------  -----------------  -----------------
           H          3.291099841431    -0.012334454596    -1.403855265364     1.007825032070
           O          2.364564841431    -0.193947454596    -1.280137265364    15.994914619560
           C          2.096708841431    -0.107250454596     0.022610734636    12.000000000000
           C          0.643454841431    -0.383282454596     0.310802734636    12.000000000000
           O          2.933436841431     0.158020545404     0.822944734636    15.994914619560
           C         -0.246920158569     0.844240545404     0.130617734636    12.000000000000
           H          0.342997841431    -1.203540454596    -0.332839265364     1.007825032070
           H          0.584005841431    -0.765802454596     1.326625734636     1.007825032070
           C         -1.709716158569     0.606381545404     0.519803734636    12.000000000000
           H         -0.190162158569     1.179778545404    -0.900486265364     1.007825032070
           H          0.154040841431     1.653159545404     0.731604734636     1.007825032070
           C         -2.463478158569    -0.382764454596    -0.373723265364    12.000000000000
           H         -2.226283158569     1.562958545404     0.490131734636     1.007825032070
           H         -1.760350158569     0.268656545404     1.553986734636     1.007825032070
           C         -3.941564158569    -0.500716454596    -0.002473265364    12.000000000000
           H         -2.376052158569    -0.066502454596    -1.411210265364     1.007825032070
           H         -2.005868158569    -1.366838454596    -0.313944265364     1.007825032070
           H         -4.453744158569    -1.207695454596    -0.647582265364     1.007825032070
           H         -4.446164158569     0.456816545404    -0.093787265364     1.007825032070
           H         -4.062236158569    -0.840631454596     1.022286734636     1.007825032070

  Charge       = 0
  Multiplicity = 1
  Basis Set: 6-31G*
  Basis Set:

    Orbital Energies (a.u.)
    -----------------------

    Doubly Occupied:

       1A    -20.612470     2A    -20.549533     3A    -11.379606
       4A    -11.237938     5A    -11.233297     6A    -11.224989
       7A    -11.222570     8A    -11.214171     9A     -1.473591
      10A     -1.364008    11A     -1.100338    12A     -1.042735
      13A     -0.961680    14A     -0.867200    15A     -0.820292
      16A     -0.790459    17A     -0.700834    18A     -0.685479
      19A     -0.648636    20A     -0.631507    21A     -0.616831
      22A     -0.594202    23A     -0.576007    24A     -0.553821
      25A     -0.548598    26A     -0.515348    27A     -0.503427
      28A     -0.479756    29A     -0.476783    30A     -0.467262
      31A     -0.462666    32A     -0.435637

  @DF-RHF Final Energy:  -383.94663795192690

   => Energetics <=

    Nuclear Repulsion Energy =            376.3517295113663863
    One-Electron Energy =               -1268.6133662419997563
    Two-Electron Energy =                 508.3149987787064674
    DFT Exchange-Correlation Energy =       0.0000000000000000
    Empirical Dispersion Energy =           0.0000000000000000
    PCM Polarization Energy =               0.0000000000000000
    EFP Energy =                            0.0000000000000000
    Total Energy =                       -383.9466379519269594

  Mulliken Charges: (a.u.)
   Center  Symbol    Alpha    Beta     Spin     Total
       1     H     0.26818  0.26818  0.00000  0.46364
       2     O     4.34694  4.34694  0.00000 -0.69388
       3     C     2.63394  2.63394  0.00000  0.73212
       4     C     3.19980  3.19980  0.00000 -0.39960
       5     O     4.27807  4.27807  0.00000 -0.55613
       6     C     3.16591  3.16591  0.00000 -0.33182
       7     H     0.40100  0.40100  0.00000  0.19799
       8     H     0.39982  0.39982  0.00000  0.20036
       9     C     3.15442  3.15442  0.00000 -0.30883
      10     H     0.41043  0.41043  0.00000  0.17913
      11     H     0.40776  0.40776  0.00000  0.18448
      12     C     3.15478  3.15478  0.00000 -0.30955
      13     H     0.41761  0.41761  0.00000  0.16478
      14     H     0.42032  0.42032  0.00000  0.15936
      15     C     3.23967  3.23967  0.00000 -0.47933
      16     H     0.42091  0.42091  0.00000  0.15819
      17     H     0.42129  0.42129  0.00000  0.15742
      18     H     0.41769  0.41769  0.00000  0.16462
      19     H     0.42072  0.42072  0.00000  0.15856
      20     H     0.42075  0.42075  0.00000  0.15850

   Total alpha = 32.00000, Total beta = 32.00000, Total charge = -0.00000
