  ==> Input File <==

--------------------------------------------------------------------------
set {
	reference rhf
	basis 6-31G*
}

set_num_threads( 4 )
memory 2 gb

molecule MOL {
0 1

H	 -1.070890	 -1.366565	 0.180696
O	 -1.422729	 -0.573567	 -0.196946
C	 -0.731407	 0.539437	 0.309156
C	 0.680193	 0.672443	 -0.251532
H	 -1.319765	 1.404033	 0.030086
H	 -0.700012	 0.506517	 1.397677
C	 0.748668	 1.462133	 -1.558975
H	 1.306145	 1.149564	 0.496923
H	 1.079294	 -0.327093	 -0.410233
H	 0.424902	 2.489210	 -1.419393
H	 1.763382	 1.495649	 -1.941335
H	 0.123000	 1.011893	 -2.325843

	symmetry c1
}
set optking {
	frozen_dihedral = ("
		8 4 3 2
	")
}

ee = optimize('scf')
oeprop('DIPOLE', 'QUADRUPOLE', 'MULLIKEN_CHARGES')
f=open( 'psi4out.xyz', 'w' )
f.write( "12  " )
f.write( str(ee) + "\n" )
f.write( MOL.save_string_xyz() )
f.close()
--------------------------------------------------------------------------

    Molecular point group: c1
  Charge       = 0
  Multiplicity = 1
  Basis Set: 6-31G*
  Basis Set:
  @DF-RHF Final Energy:  -193.10701641128330
    Total Energy =                       -193.1070164112832686
    Molecular point group: c1
  Basis Set: 6-31G*
  Basis Set:
  Basis Set: 6-31G*
  Basis Set:
  @DF-RHF Final Energy:  -193.10747553791154
    Total Energy =                       -193.1074755379116823
  Basis Set: 6-31G*
  Basis Set:
  Basis Set: 6-31G*
  Basis Set:
  @DF-RHF Final Energy:  -193.10752276576810
    Total Energy =                       -193.1075227657680102
  Basis Set: 6-31G*
  Basis Set:
  Basis Set: 6-31G*
  Basis Set:
  @DF-RHF Final Energy:  -193.10752525842287
    Total Energy =                       -193.1075252584228110
  Basis Set: 6-31G*
  Basis Set:
  Charge       = 0
  Multiplicity = 1
  Basis Set: 6-31G*
  Basis Set:

    Orbital Energies (a.u.)
    -----------------------

    Doubly Occupied:

       1A    -20.552586     2A    -11.268161     3A    -11.220285
       4A    -11.210918     5A     -1.359654     6A     -1.049273
       7A     -0.919593     8A     -0.818127     9A     -0.680903
      10A     -0.631071    11A     -0.624354    12A     -0.569249
      13A     -0.530887    14A     -0.523253    15A     -0.484996
      16A     -0.467614    17A     -0.427729

  @DF-RHF Final Energy:  -193.10752577126425

   => Energetics <=

    Nuclear Repulsion Energy =            132.1483347806557163
    One-Electron Energy =                -523.8344128258621595
    Two-Electron Energy =                 198.5785522739421936
    DFT Exchange-Correlation Energy =       0.0000000000000000
    Empirical Dispersion Energy =           0.0000000000000000
    PCM Polarization Energy =               0.0000000000000000
    EFP Energy =                            0.0000000000000000
    Total Energy =                       -193.1075257712642497
    Molecular point group: c1
  Basis Set: 6-31G*
  Basis Set:

  -Total Gradient:
     Atom            X                  Y                   Z
    ------   -----------------  -----------------  -----------------
       1       -0.000010766822    -0.000055061282    -0.000015355964
       2        0.001485352032    -0.002401233945     0.003213382765
       3       -0.001632705962     0.002277580841    -0.003849849886
       4       -0.001061894357     0.005156815824    -0.001315650298
       5       -0.000002629834     0.000002244963    -0.000017729262
       6       -0.000032835188    -0.000060690875     0.000006725085
       7        0.000029319299     0.000029391306     0.000069681157
       8        0.001208142145    -0.004830992049     0.001915047806
       9        0.000046653182    -0.000077617366    -0.000020364046
      10        0.000019788746    -0.000025025695     0.000003068659
      11       -0.000044190256     0.000033933595     0.000017411373
      12       -0.000004232983    -0.000049345316    -0.000006367390

  **** Optimization is complete! (in 5 steps) ****
    Final optimized geometry and variables:
    Molecular point group: c1

    Geometry (in Angstrom), charge = 0, multiplicity = 1:

    H           -0.782929769206    -1.840672209369     0.478917833469
    O           -1.214217326697    -1.042678263051     0.207781675567
    C           -0.523318051662     0.058479590974     0.741312316277
    C            0.896182088818     0.195274224434     0.183580009655
    H           -1.117639643261     0.930606104563     0.500295335056
    H           -0.490687500505    -0.018834635001     1.826603597374
    C            0.962290288464     0.941950103023    -1.145796733396
    H            1.539601018882     0.653537905218     0.930717488500
    H            1.296987152849    -0.808889673092     0.050156161713
    H            0.636654892054     1.971936630837    -1.031927801803
    H            1.972380980161     0.955621565196    -1.542550271629
    H            0.318689158062     0.467713286059    -1.879587382235

  Mulliken Charges: (a.u.)
   Center  Symbol    Alpha    Beta     Spin     Total
       1     H     0.28317  0.28317  0.00000  0.43366
       2     O     4.36915  4.36915  0.00000 -0.73829
       3     C     2.99770  2.99770  0.00000  0.00459
       4     C     3.16440  3.16440  0.00000 -0.32880
       5     H     0.41511  0.41511  0.00000  0.16978
       6     H     0.42918  0.42918  0.00000  0.14163
       7     C     3.24258  3.24258  0.00000 -0.48516
       8     H     0.42142  0.42142  0.00000  0.15716
       9     H     0.42568  0.42568  0.00000  0.14864
      10     H     0.42124  0.42124  0.00000  0.15752
      11     H     0.41906  0.41906  0.00000  0.16189
      12     H     0.41131  0.41131  0.00000  0.17738

   Total alpha = 17.00000, Total beta = 17.00000, Total charge =  0.00000
