                              Psi4 1.0.54 Driver

  ==> Input File <==

--------------------------------------------------------------------------
set {
	reference rhf
	basis cc-pvtz
}

set_num_threads( 4 )
memory 2 gb

molecule MOL {
0 1

H	 -2.123894	 -0.667238	 -0.609809
O	 -2.041679	 -0.058866	 0.103463
C	 -0.959304	 0.780994	 -0.094939
C	 0.354905	 0.037902	 -0.006215
H	 -0.985899	 1.279578	 -1.057596
H	 -0.969809	 1.529522	 0.682889
F	 1.157872	 0.376448	 -0.999403
F	 0.970406	 0.330152	 1.120437
F	 0.200005	 -1.263526	 -0.053799

	symmetry c1
}
set optking {
	frozen_dihedral = ("
		7 4 3 5
	")
}

ee,wfn = optimize('scf', return_wfn=True)
oeprop( wfn, 'DIPOLE', 'QUADRUPOLE', 'MULLIKEN_CHARGES')
f=open( 'psi4out.xyz', 'w' )
f.write( "9  " )
f.write( str(ee) + "\n" )
f.write( MOL.save_string_xyz() )
f.close()
--------------------------------------------------------------------------

    Molecular point group: c1
  Charge       = 0
  Multiplicity = 1
  Basis Set: CC-PVTZ
  Basis Set:
  @DF-RHF Final Energy:  -450.84021075419338
    Total Energy =                       -450.8402107541932651
    Molecular point group: c1
  Basis Set: CC-PVTZ
  Basis Set:
  Basis Set: CC-PVTZ
  Basis Set:
  @DF-RHF Final Energy:  -450.84078000932197
    Total Energy =                       -450.8407800093219748
  Basis Set: CC-PVTZ
  Basis Set:
  Basis Set: CC-PVTZ
  Basis Set:
  @DF-RHF Final Energy:  -450.84117197479895
    Total Energy =                       -450.8411719747988400
  Basis Set: CC-PVTZ
  Basis Set:
  Basis Set: CC-PVTZ
  Basis Set:
  @DF-RHF Final Energy:  -450.84120425007120
    Total Energy =                       -450.8412042500714279
  Basis Set: CC-PVTZ
  Basis Set:
  Basis Set: CC-PVTZ
  Basis Set:
  @DF-RHF Final Energy:  -450.84121090172295
    Total Energy =                       -450.8412109017228886
  Basis Set: CC-PVTZ
  Basis Set:
  Charge       = 0
  Multiplicity = 1
  Basis Set: CC-PVTZ
  Basis Set:

    Orbital Energies (a.u.)
    -----------------------

    Doubly Occupied:

       1A    -26.339162     2A    -26.337854     3A    -26.337678
       4A    -20.583083     5A    -11.496104     6A    -11.309835
       7A     -1.748525     8A     -1.644570     9A     -1.643062
      10A     -1.406737    11A     -1.045836    12A     -0.930498
      13A     -0.837609    14A     -0.835255    15A     -0.815417
      16A     -0.728914    17A     -0.719315    18A     -0.705204
      19A     -0.671174    20A     -0.666709    21A     -0.648942
      22A     -0.631634    23A     -0.617870    24A     -0.529085
      25A     -0.484082

  @DF-RHF Final Energy:  -450.84121138834047

   => Energetics <=

    Nuclear Repulsion Energy =            276.7823702224312115
    One-Electron Energy =               -1175.8188583889104848
    Two-Electron Energy =                 448.1952767781384637
    DFT Exchange-Correlation Energy =       0.0000000000000000
    Empirical Dispersion Energy =           0.0000000000000000
    PCM Polarization Energy =               0.0000000000000000
    EFP Energy =                            0.0000000000000000
    Total Energy =                       -450.8412113883408665
    Molecular point group: c1
  Basis Set: CC-PVTZ
  Basis Set:

  -Total Gradient:
     Atom            X                  Y                   Z
    ------   -----------------  -----------------  -----------------
       1       -0.000024917551     0.000010532667     0.000026678107
       2        0.000074259436     0.000002680008    -0.000045701109
       3       -0.002846208346    -0.005162049522    -0.003092454778
       4        0.002243272205     0.004209626206     0.003424215792
       5        0.001938224335     0.003553687495     0.002018174751
       6        0.000014334261     0.000021981947    -0.000004383210
       7       -0.001326917549    -0.002599814598    -0.002271388348
       8       -0.000051578091    -0.000015601909    -0.000114760190
       9       -0.000020468704    -0.000021042297     0.000059618983

  **** Optimization is complete! (in 6 steps) ****
    Final optimized geometry and variables:
    Molecular point group: c1

    Geometry (in Angstrom), charge = 0, multiplicity = 1:

    H           -2.130338983853    -0.654107037755    -0.581233947017
    O           -2.076278350168     0.008608285823     0.084141570194
    C           -0.959712770721     0.801299438937    -0.096619267702
    C            0.361593356376     0.029038622903    -0.002915373096
    H           -0.958188376541     1.341465009969    -1.035878789306
    H           -0.958572505134     1.534536469154     0.695468930053
    F            1.191467433751     0.401488635972    -0.958564010268
    F            0.972286245594     0.216348765038     1.145053981321
    F            0.176763886105    -1.267419696425    -0.145568944806

  Mulliken Charges: (a.u.)
   Center  Symbol    Alpha    Beta     Spin     Total
       1     H     0.38663  0.38663  0.00000  0.22675
       2     O     4.18601  4.18601  0.00000 -0.37202
       3     C     3.00512  3.00512  0.00000 -0.01025
       4     C     2.67749  2.67749  0.00000  0.64501
       5     H     0.46201  0.46201  0.00000  0.07599
       6     H     0.44932  0.44932  0.00000  0.10135
       7     F     4.61216  4.61216  0.00000 -0.22432
       8     F     4.60830  4.60830  0.00000 -0.21660
       9     F     4.61296  4.61296  0.00000 -0.22591

   Total alpha = 25.00000, Total beta = 25.00000, Total charge = -0.00000

*** Psi4 exiting successfully. Buy a developer a beer!
