                              Psi4 1.0.54 Driver

  ==> Input File <==

--------------------------------------------------------------------------
set {
	reference rhf
	basis cc-pvtz
}

set_num_threads( 4 )
memory 2 gb

molecule MOL {
0 1

O	 0.820999	 1.164436	 -0.533839
C	 0.576499	 0.134701	 -0.003900
C	 -0.765656	 -0.550508	 -0.002152
O	 1.471254	 -0.559611	 0.679705
C	 -1.945526	 0.411052	 0.000603
H	 -0.794329	 -1.203792	 -0.868145
H	 -0.791555	 -1.205429	 0.862701
C	 -3.282915	 -0.321280	 0.002596
H	 -1.880300	 1.059126	 -0.864925
H	 -1.877207	 1.057892	 0.866807
H	 -3.388495	 -0.952755	 -0.873419
H	 -4.107811	 0.380864	 0.004116
H	 -3.385717	 -0.953283	 0.878571
C	 2.778319	 -0.028192	 0.764463
H	 3.213073	 0.072788	 -0.218821
H	 3.346704	 -0.730075	 1.352670
H	 2.766315	 0.938371	 1.245767

	symmetry c1
}
set optking {
	frozen_dihedral = ("
		1 2 3 6
	")
}

ee,wfn = optimize('scf', return_wfn=True)
oeprop( wfn, 'DIPOLE', 'QUADRUPOLE', 'MULLIKEN_CHARGES')
f=open( 'psi4out.xyz', 'w' )
f.write( "17  " )
f.write( str(ee) + "\n" )
f.write( MOL.save_string_xyz() )
f.close()
--------------------------------------------------------------------------

    Molecular point group: c1
  Charge       = 0
  Multiplicity = 1
  Basis Set: CC-PVTZ
  Basis Set:
  @DF-RHF Final Energy:  -345.03435029698159
    Total Energy =                       -345.0343502969816427
    Molecular point group: c1
  Basis Set: CC-PVTZ
  Basis Set:
  Basis Set: CC-PVTZ
  Basis Set:
  @DF-RHF Final Energy:  -345.03313978810877
    Total Energy =                       -345.0331397881087128
  Basis Set: CC-PVTZ
  Basis Set:
  Basis Set: CC-PVTZ
  Basis Set:
  @DF-RHF Final Energy:  -345.03465439925651
    Total Energy =                       -345.0346543992567376
  Basis Set: CC-PVTZ
  Basis Set:
  Basis Set: CC-PVTZ
  Basis Set:
  @DF-RHF Final Energy:  -345.03475393896764
    Total Energy =                       -345.0347539389678104
  Basis Set: CC-PVTZ
  Basis Set:
  Basis Set: CC-PVTZ
  Basis Set:
  @DF-RHF Final Energy:  -345.03476197575378
    Total Energy =                       -345.0347619757541224
  Basis Set: CC-PVTZ
  Basis Set:
  Charge       = 0
  Multiplicity = 1
  Basis Set: CC-PVTZ
  Basis Set:

    Orbital Energies (a.u.)
    -----------------------

    Doubly Occupied:

       1A    -20.598018     2A    -20.533166     3A    -11.364961
       4A    -11.278808     5A    -11.233941     6A    -11.221924
       7A    -11.213321     8A     -1.472964     9A     -1.365759
      10A     -1.081907    11A     -1.002239    12A     -0.941029
      13A     -0.828100    14A     -0.770976    15A     -0.702081
      16A     -0.685882    17A     -0.676121    18A     -0.638108
      19A     -0.596444    20A     -0.579223    21A     -0.566074
      22A     -0.531334    23A     -0.524521    24A     -0.501405
      25A     -0.486576    26A     -0.479574    27A     -0.460652
      28A     -0.439985

  @DF-RHF Final Energy:  -345.03476484771187

   => Energetics <=

    Nuclear Repulsion Energy =            313.0384421054115478
    One-Electron Energy =               -1090.5962317591156534
    Two-Electron Energy =                 432.5230248059922360
    DFT Exchange-Correlation Energy =       0.0000000000000000
    Empirical Dispersion Energy =           0.0000000000000000
    PCM Polarization Energy =               0.0000000000000000
    EFP Energy =                            0.0000000000000000
    Total Energy =                       -345.0347648477118128
    Molecular point group: c1
  Basis Set: CC-PVTZ
  Basis Set:

  -Total Gradient:
     Atom            X                  Y                   Z
    ------   -----------------  -----------------  -----------------
       1        0.000330899716    -0.000659176825    -0.000736556699
       2       -0.000567958928     0.001080090454     0.000965111166
       3        0.000539457133    -0.001047459548     0.000261250483
       4        0.000077594332    -0.000022841491     0.000030411360
       5       -0.000007482741     0.000002149760     0.000025835348
       6       -0.000349305993     0.000673290893    -0.000533165626
       7        0.000009873101    -0.000004582835    -0.000001995606
       8        0.000000040506    -0.000002732785    -0.000007883139
       9       -0.000002746542     0.000000874012     0.000001624164
      10        0.000005970888    -0.000002731732    -0.000009260442
      11       -0.000004225527    -0.000004670991     0.000002512745
      12        0.000007443110    -0.000001058533     0.000002006808
      13       -0.000001327664    -0.000000899629    -0.000001217514
      14       -0.000044936557    -0.000025978667     0.000007090225
      15       -0.000003142705     0.000003924488    -0.000004967996
      16        0.000015918078     0.000005523025     0.000000468282
      17       -0.000006070208     0.000006280409    -0.000001263558

  **** Optimization is complete! (in 6 steps) ****
    Final optimized geometry and variables:
    Molecular point group: c1

    Geometry (in Angstrom), charge = 0, multiplicity = 1:

    O            0.833820829313     1.128509375670    -0.604504070358
    C            0.589940386810     0.105120259948    -0.061198897177
    C           -0.743477349206    -0.597998363012    -0.103895989017
    O            1.486679793726    -0.578690904131     0.628945286022
    C           -1.923558720101     0.358170958848    -0.241353814895
    H           -0.705468632560    -1.262235127349    -0.963436298936
    H           -0.838664363091    -1.224945423094     0.772548991847
    C           -3.253124638822    -0.380634037110    -0.343685336023
    H           -1.775046404145     0.980900029739    -1.113547966661
    H           -1.942850052804     1.027528211976     0.612453247224
    H           -3.274446256949    -1.032070638414    -1.211138602494
    H           -4.076724599972     0.317190882936    -0.434921190836
    H           -3.434456147450    -0.993069469909     0.533371250448
    C            2.796854729385    -0.051443966542     0.689632756605
    H            3.221554128228     0.028721325108    -0.300041075950
    H            3.368933450455    -0.743906954843     1.285507084572
    H            2.793490141184     0.924482683240     1.151683113792

  Mulliken Charges: (a.u.)
   Center  Symbol    Alpha    Beta     Spin     Total
       1     O     4.19969  4.19969  0.00000 -0.39939
       2     C     2.81236  2.81236  0.00000  0.37528
       3     C     3.08834  3.08834  0.00000 -0.17668
       4     O     4.14454  4.14454  0.00000 -0.28909
       5     C     3.08194  3.08194  0.00000 -0.16388
       6     H     0.44542  0.44542  0.00000  0.10916
       7     H     0.43853  0.43853  0.00000  0.12293
       8     C     3.15113  3.15113  0.00000 -0.30227
       9     H     0.44079  0.44079  0.00000  0.11841
      10     H     0.45145  0.45145  0.00000  0.09710
      11     H     0.45494  0.45494  0.00000  0.09013
      12     H     0.44577  0.44577  0.00000  0.10846
      13     H     0.45584  0.45584  0.00000  0.08832
      14     C     3.03553  3.03553  0.00000 -0.07107
      15     H     0.45441  0.45441  0.00000  0.09117
      16     H     0.44506  0.44506  0.00000  0.10987
      17     H     0.45423  0.45423  0.00000  0.09154

   Total alpha = 28.00000, Total beta = 28.00000, Total charge = -0.00000

*** Psi4 exiting successfully. Buy a developer a beer!
