  ==> Input File <==

--------------------------------------------------------------------------
set {
	reference rhf
	basis 6-31G*
}

set_num_threads( 4 )
memory 2 gb

molecule MOL {
0 1

H	 -2.646374	 -0.642757	 1.268656
C	 -2.083525	 -0.384536	 0.393091
O	 -0.807605	 -0.127164	 0.768327
F	 -2.118945	 -1.383102	 -0.486752
F	 -2.621877	 0.670592	 -0.209486
C	 0.084052	 0.273579	 -0.209957
C	 1.353033	 -0.546803	 -0.018071
Cl	 0.433844	 2.004619	 -0.074457
H	 -0.288836	 0.092657	 -1.202930
F	 1.065640	 -1.829537	 0.046239
F	 1.916863	 -0.196169	 1.120608
F	 2.216760	 -0.355581	 -0.985224

	symmetry c1
}
set optking {
	frozen_dihedral = ("
		10 7 6 9
	")
}

ee = optimize('scf')
oeprop('DIPOLE', 'QUADRUPOLE', 'MULLIKEN_CHARGES')
f=open( 'psi4out.xyz', 'w' )
f.write( "12  " )
f.write( str(ee) + "\n" )
f.write( MOL.save_string_xyz() )
f.close()
--------------------------------------------------------------------------

    Molecular point group: c1
  Charge       = 0
  Multiplicity = 1
  Basis Set: 6-31G*
  Basis Set:
  @DF-RHF Final Energy: -1146.31290685729209
    Total Energy =                      -1146.3129068572907272
    Molecular point group: c1
  Basis Set: 6-31G*
  Basis Set:
  Basis Set: 6-31G*
  Basis Set:
  @DF-RHF Final Energy: -1146.31363250101322
    Total Energy =                      -1146.3136325010132168
  Basis Set: 6-31G*
  Basis Set:
  Basis Set: 6-31G*
  Basis Set:
  @DF-RHF Final Energy: -1146.31382931537246
    Total Energy =                      -1146.3138293153720042
  Basis Set: 6-31G*
  Basis Set:
  Basis Set: 6-31G*
  Basis Set:
  @DF-RHF Final Energy: -1146.31384338957923
    Total Energy =                      -1146.3138433895790058
  Basis Set: 6-31G*
  Basis Set:
  Basis Set: 6-31G*
  Basis Set:
  @DF-RHF Final Energy: -1146.31384506238510
    Total Energy =                      -1146.3138450623853259
  Basis Set: 6-31G*
  Basis Set:
  Charge       = 0
  Multiplicity = 1
  Basis Set: 6-31G*
  Basis Set:

    Orbital Energies (a.u.)
    -----------------------

    Doubly Occupied:

       1A   -104.843009     2A    -26.360753     3A    -26.358271
       4A    -26.356717     5A    -26.346881     6A    -26.346413
       7A    -20.650162     8A    -11.527559     9A    -11.490080
      10A    -11.400930    11A    -10.577730    12A     -8.047083
      13A     -8.043560    14A     -8.043446    15A     -1.760971
      16A     -1.718248    17A     -1.658045    18A     -1.655318
      19A     -1.638873    20A     -1.486949    21A     -1.179288
      22A     -1.051009    23A     -0.987274    24A     -0.919626
      25A     -0.859818    26A     -0.852907    27A     -0.844851
      28A     -0.824368    29A     -0.811858    30A     -0.789955
      31A     -0.728244    32A     -0.726340    33A     -0.706100
      34A     -0.701691    35A     -0.678158    36A     -0.675114
      37A     -0.658052    38A     -0.657372    39A     -0.645763
      40A     -0.633610    41A     -0.597560    42A     -0.580556
      43A     -0.523605    44A     -0.476581    45A     -0.468115

  @DF-RHF Final Energy: -1146.31384574594722

   => Energetics <=

    Nuclear Repulsion Energy =            737.9136621850135498
    One-Electron Energy =               -3058.6773898649348666
    Two-Electron Energy =                1174.4498819339744387
    DFT Exchange-Correlation Energy =       0.0000000000000000
    Empirical Dispersion Energy =           0.0000000000000000
    PCM Polarization Energy =               0.0000000000000000
    EFP Energy =                            0.0000000000000000
    Total Energy =                      -1146.3138457459469919
    Molecular point group: c1
  Basis Set: 6-31G*
  Basis Set:

  -Total Gradient:
     Atom            X                  Y                   Z
    ------   -----------------  -----------------  -----------------
       1        0.000011281066     0.000010524372     0.000000029668
       2        0.000008717356     0.000039624190    -0.000079307069
       3        0.000090043924    -0.000009922185    -0.000006418088
       4       -0.000024514825    -0.000042956707     0.000003739508
       5        0.000044633291     0.000020235319     0.000036160492
       6       -0.002353771392    -0.003060924745     0.002169453536
       7        0.000817400812     0.000405736095    -0.003396801098
       8       -0.000047820907    -0.000036648345    -0.000019817359
       9        0.001801052187     0.002580010664    -0.001108725311
      10       -0.000340668168     0.000052664086     0.002711645335
      11       -0.000118074282    -0.000018004690    -0.000186461921
      12        0.000111720952     0.000059661928    -0.000123497690

  **** Optimization is complete! (in 6 steps) ****
    Final optimized geometry and variables:
    Molecular point group: c1

    Geometry (in Angstrom), charge = 0, multiplicity = 1:

    H           -2.662964676237    -0.632680990282     1.253033094339
    C           -2.089653490831    -0.388072386773     0.380472902741
    O           -0.821345207856    -0.111854491979     0.768480650328
    F           -2.103664147341    -1.404919774553    -0.478508588934
    F           -2.627136123520     0.650030252526    -0.251630941609
    C            0.079081111852     0.272685686883    -0.204610805818
    C            1.353194498199    -0.541594305881    -0.006464166634
    CL           0.434348879522     2.006694610802    -0.085028248923
    H           -0.278062359308     0.102509579388    -1.205253780910
    F            1.045604411119    -1.821629262030     0.032010955641
    F            1.970299074027    -0.238887477162     1.110510643686
    F            2.178158862231    -0.340891264337    -1.012399359476

  Mulliken Charges: (a.u.)
   Center  Symbol    Alpha    Beta     Spin     Total
       1     H     0.40104  0.40104  0.00000  0.19791
       2     C     2.56515  2.56515  0.00000  0.86970
       3     O     4.29701  4.29701  0.00000 -0.59402
       4     F     4.68628  4.68628  0.00000 -0.37255
       5     F     4.68438  4.68438  0.00000 -0.36875
       6     C     3.04823  3.04823  0.00000 -0.09645
       7     C     2.43349  2.43349  0.00000  1.13302
       8    CL     8.50044  8.50044  0.00000 -0.00087
       9     H     0.36624  0.36624  0.00000  0.26752
      10     F     4.67496  4.67496  0.00000 -0.34992
      11     F     4.66836  4.66836  0.00000 -0.33672
      12     F     4.67443  4.67443  0.00000 -0.34886

   Total alpha = 45.00000, Total beta = 45.00000, Total charge =  0.00000
