  ==> Input File <==

--------------------------------------------------------------------------
set {
	reference rhf
	basis 6-31G*
}

set_num_threads( 4 )
memory 2 gb

molecule MOL {
0 1

O	 -2.042549	 -1.228399	 -0.269030
C	 -1.653912	 -0.146171	 0.050137
C	 -0.332303	 0.024011	 0.778412
C	 -2.438579	 1.106236	 -0.272369
C	 0.845713	 -0.001731	 -0.208243
H	 -0.323783	 0.953829	 1.340327
H	 -0.235459	 -0.796807	 1.480410
C	 0.424914	 0.345751	 -1.636954
H	 1.310435	 -0.986140	 -0.200890
H	 1.599558	 0.700768	 0.134328
C	 1.595962	 0.329672	 -2.618582
H	 -0.336662	 -0.355853	 -1.970391
H	 -0.039731	 1.328922	 -1.643881
H	 2.060824	 -0.651291	 -2.659419
H	 2.359605	 1.045452	 -2.328840
H	 1.268840	 0.582442	 -3.622138
H	 -3.277823	 0.863061	 -0.908988
H	 -1.806773	 1.843019	 -0.759671
H	 -2.802853	 1.554979	 0.648059

	symmetry c1
}
set optking {
	frozen_dihedral = ("
		9 5 3 2
	")
}

ee = optimize('scf')
oeprop('DIPOLE', 'QUADRUPOLE', 'MULLIKEN_CHARGES')
f=open( 'psi4out.xyz', 'w' )
f.write( "19  " )
f.write( str(ee) + "\n" )
f.write( MOL.save_string_xyz() )
f.close()
--------------------------------------------------------------------------

    Molecular point group: c1
  Charge       = 0
  Multiplicity = 1
  Basis Set: 6-31G*
  Basis Set:
  @DF-RHF Final Energy:  -309.05367532113308
    Total Energy =                       -309.0536753211331984
    Molecular point group: c1
  Basis Set: 6-31G*
  Basis Set:
  Basis Set: 6-31G*
  Basis Set:
  @DF-RHF Final Energy:  -309.05726989200201
    Total Energy =                       -309.0572698920019548
  Basis Set: 6-31G*
  Basis Set:
  Basis Set: 6-31G*
  Basis Set:
  @DF-RHF Final Energy:  -309.05640322050590
    Total Energy =                       -309.0564032205060130
  Basis Set: 6-31G*
  Basis Set:
  Basis Set: 6-31G*
  Basis Set:
  @DF-RHF Final Energy:  -309.05804644871273
    Total Energy =                       -309.0580464487122754
  Basis Set: 6-31G*
  Basis Set:
  @DF-RHF Final Energy:  -309.05815688170776
    Total Energy =                       -309.0581568817078733
  @DF-RHF Final Energy:  -309.05819123479944
    Total Energy =                       -309.0581912347994944
  @DF-RHF Final Energy:  -309.05825352368328
    Total Energy =                       -309.0582535236838453
  @DF-RHF Final Energy:  -309.05831625976066
    Total Energy =                       -309.0583162597605451
  @DF-RHF Final Energy:  -309.05836093694177
    Total Energy =                       -309.0583609369420515
  @DF-RHF Final Energy:  -309.05837974530982
    Total Energy =                       -309.0583797453097645
  @DF-RHF Final Energy:  -309.05840129514905
    Total Energy =                       -309.0584012951488830
  @DF-RHF Final Energy:  -309.05842825716456
    Total Energy =                       -309.0584282571645645
  Basis Set: 6-31G*
  Basis Set:
  @DF-RHF Final Energy:  -309.05844390621866
    Total Energy =                       -309.0584439062184288
  Basis Set: 6-31G*
  Basis Set:
  Basis Set: 6-31G*
  Basis Set:
  @DF-RHF Final Energy:  -309.05844663414143
    Total Energy =                       -309.0584466341414327
  Basis Set: 6-31G*
  Basis Set:
  Basis Set: 6-31G*
  Basis Set:
  @DF-RHF Final Energy:  -309.05844810069260
    Total Energy =                       -309.0584481006923738
  Basis Set: 6-31G*
  Basis Set:
  Charge       = 0
  Multiplicity = 1
  Basis Set: 6-31G*
  Basis Set:

    Orbital Energies (a.u.)
    -----------------------

    Doubly Occupied:

       1A    -20.548196     2A    -11.326448     3A    -11.232276
       4A    -11.228651     5A    -11.224639     6A    -11.213805
       7A    -11.208274     8A     -1.394465     9A     -1.081945
      10A     -1.028337    11A     -0.981937    12A     -0.887001
      13A     -0.807167    14A     -0.724426    15A     -0.658354
      16A     -0.637318    17A     -0.623217    18A     -0.613855
      19A     -0.574664    20A     -0.572042    21A     -0.566046
      22A     -0.530880    23A     -0.509966    24A     -0.488693
      25A     -0.478886    26A     -0.463964    27A     -0.462616
      28A     -0.397035

  @DF-RHF Final Energy:  -309.05844790423288

   => Energetics <=

    Nuclear Repulsion Energy =            307.9923292972671902
    One-Electron Energy =               -1029.1713483159430780
    Two-Electron Energy =                 412.1205711144430666
    DFT Exchange-Correlation Energy =       0.0000000000000000
    Empirical Dispersion Energy =           0.0000000000000000
    PCM Polarization Energy =               0.0000000000000000
    EFP Energy =                            0.0000000000000000
    Total Energy =                       -309.0584479042328780
    Molecular point group: c1
  Basis Set: 6-31G*
  Basis Set:

  -Total Gradient:
     Atom            X                  Y                   Z
    ------   -----------------  -----------------  -----------------
       1        0.000054722399     0.000050336546     0.000099749824
       2       -0.000093831679     0.004650266586    -0.001282307878
       3        0.001002596292    -0.006256871194     0.002919247595
       4       -0.000057414931     0.000039418409    -0.000041646843
       5       -0.004864299195    -0.000796073296    -0.006246662728
       6        0.000050583881    -0.000013122349    -0.000019943120
       7       -0.000031112978     0.000009788244     0.000004815882
       8        0.000058769495    -0.000088150594    -0.000019900231
       9        0.003877079850     0.002411232474     0.004521928466
      10       -0.000003606999     0.000002163874     0.000036265234
      11        0.000001218312    -0.000008686342    -0.000008811972
      12        0.000001879104     0.000003363377     0.000000728285
      13       -0.000002036207     0.000012587687     0.000015938340
      14       -0.000006454900     0.000001097007    -0.000004520878
      15       -0.000002809311    -0.000004148611     0.000002260477
      16        0.000007170205     0.000005260612    -0.000001819691
      17        0.000002227630     0.000003292039    -0.000002464647
      18        0.000012044673    -0.000002050415     0.000018033237
      19       -0.000006725643    -0.000019704052     0.000009110649

  **** Optimization is complete! (in 16 steps) ****
    Final optimized geometry and variables:
    Molecular point group: c1

    Geometry (in Angstrom), charge = 0, multiplicity = 1:

    O           -1.506144548712    -1.018459093621    -0.073479884289
    C           -1.259758477471    -0.085643937915     0.628981161492
    C            0.108563904273     0.096559660540     1.269560957330
    C           -2.312151229500     0.948759486212     0.962351496938
    C            1.337975487915    -0.127977963948     0.356662677638
    H            0.154791915382     1.094477486049     1.694782590607
    H            0.144764858624    -0.589985764927     2.111848155920
    C            1.149667775553     0.125405475731    -1.140478545094
    H            1.748812478791    -1.117796798853     0.529394716371
    H            2.111089341829     0.547495465441     0.716899871413
    C            2.473528520209     0.049971873703    -1.900651642340
    H            0.451702389231    -0.591294506988    -1.552226491743
    H            0.708926276658     1.110701512393    -1.288251474454
    H            2.932459823363    -0.928349682252    -1.788795722265
    H            3.182057348487     0.790558991276    -1.540012612605
    H            2.323978466384     0.223800485703    -2.961594709823
    H           -3.260052926902     0.662657525878     0.528536628314
    H           -2.012899371194     1.919312211026     0.575983186203
    H           -2.416380983918     1.051043302279     2.038939529712

  Mulliken Charges: (a.u.)
   Center  Symbol    Alpha    Beta     Spin     Total
       1     O     4.26375  4.26375  0.00000 -0.52750
       2     C     2.73402  2.73402  0.00000  0.53197
       3     C     3.21014  3.21014  0.00000 -0.42028
       4     C     3.28995  3.28995  0.00000 -0.57989
       5     C     3.14727  3.14727  0.00000 -0.29454
       6     H     0.41507  0.41507  0.00000  0.16986
       7     H     0.39975  0.39975  0.00000  0.20050
       8     C     3.16249  3.16249  0.00000 -0.32499
       9     H     0.41403  0.41403  0.00000  0.17194
      10     H     0.42074  0.42074  0.00000  0.15853
      11     C     3.24093  3.24093  0.00000 -0.48186
      12     H     0.39824  0.39824  0.00000  0.20352
      13     H     0.42855  0.42855  0.00000  0.14290
      14     H     0.42027  0.42027  0.00000  0.15946
      15     H     0.42362  0.42362  0.00000  0.15276
      16     H     0.41773  0.41773  0.00000  0.16455
      17     H     0.39714  0.39714  0.00000  0.20572
      18     H     0.40763  0.40763  0.00000  0.18474
      19     H     0.40869  0.40869  0.00000  0.18261

   Total alpha = 28.00000, Total beta = 28.00000, Total charge = -0.00000
