                              Psi4 1.0.54 Driver

  ==> Input File <==

--------------------------------------------------------------------------
set {
	reference rhf
	basis cc-pvtz
}

set_num_threads( 4 )
memory 2 gb

molecule MOL {
0 1

H	 2.339517	 -0.109606	 -0.006667
O	 1.583947	 -0.677544	 -0.001533
C	 0.489979	 0.078084	 0.002623
C	 -0.763662	 -0.754014	 0.000816
O	 0.539051	 1.259395	 -0.000088
C	 -2.038001	 0.074705	 -0.000833
H	 -0.712945	 -1.405886	 -0.864342
H	 -0.715137	 -1.405770	 0.866182
H	 -2.087267	 0.710831	 -0.874232
H	 -2.903419	 -0.576199	 -0.001922
H	 -2.089467	 0.710909	 0.872389

	symmetry c1
}
set optking {
	frozen_dihedral = ("
		1 2 3 5
	")
}

ee,wfn = optimize('scf', return_wfn=True)
oeprop( wfn, 'DIPOLE', 'QUADRUPOLE', 'MULLIKEN_CHARGES')
f=open( 'psi4out.xyz', 'w' )
f.write( "11  " )
f.write( str(ee) + "\n" )
f.write( MOL.save_string_xyz() )
f.close()
--------------------------------------------------------------------------

    Molecular point group: c1
  Charge       = 0
  Multiplicity = 1
  Basis Set: CC-PVTZ
  Basis Set:
  @DF-RHF Final Energy:  -266.95331679419274
    Total Energy =                       -266.9533167941929719
    Molecular point group: c1
  Basis Set: CC-PVTZ
  Basis Set:
  Basis Set: CC-PVTZ
  Basis Set:
  @DF-RHF Final Energy:  -266.95319646406051
    Total Energy =                       -266.9531964640606247
  Basis Set: CC-PVTZ
  Basis Set:
  Basis Set: CC-PVTZ
  Basis Set:
  @DF-RHF Final Energy:  -266.95332047150384
    Total Energy =                       -266.9533204715036732
  Basis Set: CC-PVTZ
  Basis Set:
  Charge       = 0
  Multiplicity = 1
  Basis Set: CC-PVTZ
  Basis Set:

    Orbital Energies (a.u.)
    -----------------------

    Doubly Occupied:

       1A    -20.605121     2A    -20.541690     3A    -11.374394
       4A    -11.242863     5A    -11.218762     6A     -1.478709
       7A     -1.370344     8A     -1.066509     9A     -0.918853
      10A     -0.803635    11A     -0.705818    12A     -0.693636
      13A     -0.665702    14A     -0.597615    15A     -0.596713
      16A     -0.534043    17A     -0.527124    18A     -0.505839
      19A     -0.485438    20A     -0.448995

  @DF-RHF Final Energy:  -266.95332080093220

   => Energetics <=

    Nuclear Repulsion Energy =            180.1734459309471958
    One-Electron Energy =                -721.4899232652749106
    Two-Electron Energy =                 274.3631565333956246
    DFT Exchange-Correlation Energy =       0.0000000000000000
    Empirical Dispersion Energy =           0.0000000000000000
    PCM Polarization Energy =               0.0000000000000000
    EFP Energy =                            0.0000000000000000
    Total Energy =                       -266.9533208009320902
    Molecular point group: c1
  Basis Set: CC-PVTZ
  Basis Set:

  -Total Gradient:
     Atom            X                  Y                   Z
    ------   -----------------  -----------------  -----------------
       1       -0.000040605511     0.000020554425     0.000002662227
       2       -0.000020506029    -0.000069386963     0.000007969073
       3        0.000045942085     0.000006727467    -0.000038150282
       4        0.000025982944    -0.000013342926     0.000011204256
       5       -0.000034141521     0.000039379138     0.000013258057
       6        0.000010662103     0.000019314850     0.000001263410
       7        0.000005174857     0.000002444653    -0.000000719262
       8        0.000000769578    -0.000001395887     0.000002739536
       9       -0.000000360842     0.000000635273    -0.000000961263
      10        0.000007907546    -0.000005651810    -0.000000001755
      11       -0.000000825212     0.000000721782     0.000000736003

  **** Optimization is complete! (in 4 steps) ****
    Final optimized geometry and variables:
    Molecular point group: c1

    Geometry (in Angstrom), charge = 0, multiplicity = 1:

    H            2.339736104382    -0.109731138578     0.006544664293
    O            1.583923633150    -0.677599801752     0.003888678004
    C            0.489923442064     0.078189479656     0.001358543233
    C           -0.763853128965    -0.753981858059    -0.002621137362
    O            0.539473054716     1.259401127551     0.002471894440
    C           -2.038207634271     0.074640164588    -0.005663572659
    H           -0.711739388854    -1.405318352165    -0.868131263342
    H           -0.716540646242    -1.406320689483     0.862415792250
    H           -2.086241609876     0.711395800664    -0.878741516818
    H           -2.903761498438    -0.576192343832    -0.008443356627
    H           -2.091076332038     0.710373902869     0.867877461192

  Mulliken Charges: (a.u.)
   Center  Symbol    Alpha    Beta     Spin     Total
       1     H     0.38185  0.38185  0.00000  0.23630
       2     O     4.16042  4.16042  0.00000 -0.32083
       3     C     2.80304  2.80304  0.00000  0.39392
       4     C     3.10135  3.10135  0.00000 -0.20270
       5     O     4.19053  4.19053  0.00000 -0.38106
       6     C     3.13890  3.13890  0.00000 -0.27780
       7     H     0.43928  0.43928  0.00000  0.12143
       8     H     0.43928  0.43928  0.00000  0.12143
       9     H     0.44784  0.44784  0.00000  0.10432
      10     H     0.44967  0.44967  0.00000  0.10066
      11     H     0.44784  0.44784  0.00000  0.10433

   Total alpha = 20.00000, Total beta = 20.00000, Total charge =  0.00000

*** Psi4 exiting successfully. Buy a developer a beer!
