  ==> Input File <==

--------------------------------------------------------------------------
set {
	reference rhf
	basis 6-31G*
}

set_num_threads( 1 )
memory 2 gb

molecule MOL {
0 1

O	 3.225979	 0.970355	 -0.599647
C	 2.701189	 0.057885	 -0.047330
C	 1.245376	 -0.013843	 0.345420
O	 3.347903	 -1.046386	 0.304773
C	 0.455112	 1.231400	 -0.050772
H	 0.838542	 -0.913825	 -0.103701
H	 1.208210	 -0.175333	 1.419774
C	 -0.998893	 1.219485	 0.433193
H	 0.482531	 1.345121	 -1.130325
H	 0.957290	 2.103070	 0.354729
C	 -1.648619	 -0.166036	 0.490629
H	 -1.581562	 1.848914	 -0.235417
H	 -1.058057	 1.687016	 1.414989
C	 -3.129187	 -0.113473	 0.872928
H	 -1.544738	 -0.650286	 -0.479181
H	 -1.123856	 -0.796636	 1.204729
C	 -3.787584	 -1.492726	 0.938538
H	 -3.664406	 0.505474	 0.154818
H	 -3.234671	 0.380270	 1.837703
C	 -5.266952	 -1.431156	 1.317195
H	 -3.682210	 -1.987912	 -0.024441
H	 -3.256659	 -2.111443	 1.659017
H	 -5.705251	 -2.423645	 1.355492
H	 -5.832250	 -0.847671	 0.595961
H	 -5.403352	 -0.971587	 2.292114
C	 4.728119	 -1.109107	 -0.004993
H	 4.882018	 -1.033965	 -1.071845
H	 5.068212	 -2.067527	 0.355250
H	 5.265056	 -0.311663	 0.488280

	symmetry c1
}
set optking {
	frozen_dihedral = ("
		21 17 14 11,
		17 14 11 15,
		15 11 8 5,
		6 3 5 9,
		2 4 26 27,
		1 2 4 26,
		6 3 2 1
	")
}

ee = energy('scf')
oeprop('DIPOLE', 'QUADRUPOLE', 'MULLIKEN_CHARGES')
f=open( 'psi4out.xyz', 'w' )
f.write( "29  " )
f.write( str(ee) + "\n" )
f.write( MOL.save_string_xyz() )
f.close()
--------------------------------------------------------------------------

    Molecular point group: c1

    Geometry (in Angstrom), charge = 0, multiplicity = 1:

       Center              X                  Y                   Z               Mass
    ------------   -----------------  -----------------  -----------------  -----------------
           O          3.104495800461     1.156902220519    -0.960033081396    15.994914619560
           C          2.579705800461     0.244432220519    -0.407716081396    12.000000000000
           C          1.123892800461     0.172704220519    -0.014966081396    12.000000000000
           O          3.226419800461    -0.859838779481    -0.055613081396    15.994914619560
           C          0.333628800461     1.417947220519    -0.411158081396    12.000000000000
           H          0.717058800461    -0.727277779481    -0.464087081396     1.007825032070
           H          1.086726800461     0.011214220519     1.059387918604     1.007825032070
           C         -1.120376199539     1.406032220519     0.072806918604    12.000000000000
           H          0.361047800461     1.531668220519    -1.490711081396     1.007825032070
           H          0.835806800461     2.289617220519    -0.005657081396     1.007825032070
           C         -1.770102199539     0.020511220519     0.130242918604    12.000000000000
           H         -1.703045199539     2.035461220519    -0.595803081396     1.007825032070
           H         -1.179540199539     1.873563220519     1.054602918604     1.007825032070
           C         -3.250670199539     0.073074220519     0.512541918604    12.000000000000
           H         -1.666221199539    -0.463738779481    -0.839567081396     1.007825032070
           H         -1.245339199539    -0.610088779481     0.844342918604     1.007825032070
           C         -3.909067199539    -1.306178779481     0.578151918604    12.000000000000
           H         -3.785889199539     0.692021220519    -0.205568081396     1.007825032070
           H         -3.356154199539     0.566817220519     1.477316918604     1.007825032070
           C         -5.388435199539    -1.244608779481     0.956808918604    12.000000000000
           H         -3.803693199539    -1.801364779481    -0.384827081396     1.007825032070
           H         -3.378142199539    -1.924895779481     1.298630918604     1.007825032070
           H         -5.826734199539    -2.237097779481     0.995105918604     1.007825032070
           H         -5.953733199539    -0.661123779481     0.235574918604     1.007825032070
           H         -5.524835199539    -0.785039779481     1.931727918604     1.007825032070
           C          4.606635800461    -0.922559779481    -0.365379081396    12.000000000000
           H          4.760534800461    -0.847417779481    -1.432231081396     1.007825032070
           H          4.946728800461    -1.880979779481    -0.005136081396     1.007825032070
           H          5.143572800461    -0.125115779481     0.127893918604     1.007825032070

  Charge       = 0
  Multiplicity = 1
  Basis Set: 6-31G*
  Basis Set:

    Orbital Energies (a.u.)
    -----------------------

    Doubly Occupied:

       1A    -20.603066     2A    -20.544663     3A    -11.371329
       4A    -11.280464     5A    -11.234198     6A    -11.218425
       7A    -11.217100     8A    -11.216490     9A    -11.216166
      10A    -11.214604    11A    -11.209298    12A     -1.468678
      13A     -1.362072    14A     -1.099503    15A     -1.066295
      16A     -1.018528    17A     -0.976698    18A     -0.929068
      19A     -0.864663    20A     -0.798800    21A     -0.791621
      22A     -0.759456    23A     -0.699781    24A     -0.682894
      25A     -0.670892    26A     -0.655821    27A     -0.629509
      28A     -0.603827    29A     -0.591482    30A     -0.579763
      31A     -0.568279    32A     -0.552751    33A     -0.531180
      34A     -0.526728    35A     -0.519938    36A     -0.512931
      37A     -0.498567    38A     -0.479830    39A     -0.467667
      40A     -0.459879    41A     -0.458176    42A     -0.453383
      43A     -0.439659    44A     -0.436618

  @DF-RHF Final Energy:  -501.03950204779494

   => Energetics <=

    Nuclear Repulsion Energy =            614.5367061257823025
    One-Electron Energy =               -1900.1907853208829238
    Two-Electron Energy =                 784.6145771473053401
    DFT Exchange-Correlation Energy =       0.0000000000000000
    Empirical Dispersion Energy =           0.0000000000000000
    PCM Polarization Energy =               0.0000000000000000
    EFP Energy =                            0.0000000000000000
    Total Energy =                       -501.0395020477952812

  Mulliken Charges: (a.u.)
   Center  Symbol    Alpha    Beta     Spin     Total
       1     O     4.28609  4.28609  0.00000 -0.57217
       2     C     2.60365  2.60365  0.00000  0.79269
       3     C     3.21429  3.21429  0.00000 -0.42858
       4     O     4.30748  4.30748  0.00000 -0.61496
       5     C     3.15356  3.15356  0.00000 -0.30711
       6     H     0.39755  0.39755  0.00000  0.20490
       7     H     0.40090  0.40090  0.00000  0.19821
       8     C     3.15554  3.15554  0.00000 -0.31109
       9     H     0.41238  0.41238  0.00000  0.17523
      10     H     0.40830  0.40830  0.00000  0.18340
      11     C     3.15986  3.15986  0.00000 -0.31971
      12     H     0.41840  0.41840  0.00000  0.16320
      13     H     0.42151  0.42151  0.00000  0.15697
      14     C     3.14925  3.14925  0.00000 -0.29850
      15     H     0.42342  0.42342  0.00000  0.15316
      16     H     0.42162  0.42162  0.00000  0.15676
      17     C     3.15146  3.15146  0.00000 -0.30293
      18     H     0.42346  0.42346  0.00000  0.15309
      19     H     0.42372  0.42372  0.00000  0.15257
      20     C     3.23935  3.23935  0.00000 -0.47869
      21     H     0.42315  0.42315  0.00000  0.15371
      22     H     0.42338  0.42338  0.00000  0.15323
      23     H     0.41923  0.41923  0.00000  0.16155
      24     H     0.42155  0.42155  0.00000  0.15690
      25     H     0.42172  0.42172  0.00000  0.15656
      26     C     3.09234  3.09234  0.00000 -0.18468
      27     H     0.40913  0.40913  0.00000  0.18174
      28     H     0.40856  0.40856  0.00000  0.18289
      29     H     0.40917  0.40917  0.00000  0.18165

   Total alpha = 44.00000, Total beta = 44.00000, Total charge = -0.00000
