                              Psi4 1.0.54 Driver

  ==> Input File <==

--------------------------------------------------------------------------
set {
	reference rhf
	basis cc-pvtz
}

set_num_threads( 4 )
memory 2 gb

molecule MOL {
0 1

H	 1.266383	 -1.074215	 -0.200501
O	 1.182578	 -0.465032	 -0.912066
C	 0.616966	 0.722831	 -0.450881
C	 -0.793473	 0.591216	 0.050087
H	 0.636274	 1.415459	 -1.284066
H	 1.228684	 1.164737	 0.333479
C	 -1.534243	 -0.493009	 -0.013340
H	 -1.198372	 1.486852	 0.491834
H	 -1.101195	 -1.466332	 -0.144046
H	 -2.604242	 -0.437780	 0.050785

	symmetry c1
}
set optking {
	frozen_dihedral = ("
		3 4 7 9
	")
}

ee,wfn = optimize('scf', return_wfn=True)
oeprop( wfn, 'DIPOLE', 'QUADRUPOLE', 'MULLIKEN_CHARGES')
f=open( 'psi4out.xyz', 'w' )
f.write( "10  " )
f.write( str(ee) + "\n" )
f.write( MOL.save_string_xyz() )
f.close()
--------------------------------------------------------------------------

    Molecular point group: c1
  Charge       = 0
  Multiplicity = 1
  Basis Set: CC-PVTZ
  Basis Set:
  @DF-RHF Final Energy:  -191.98870088744616
    Total Energy =                       -191.9887008874460719
    Molecular point group: c1
  Basis Set: CC-PVTZ
  Basis Set:
  Basis Set: CC-PVTZ
  Basis Set:
  @DF-RHF Final Energy:  -191.99451286204504
    Total Energy =                       -191.9945128620450419
  Basis Set: CC-PVTZ
  Basis Set:
  Basis Set: CC-PVTZ
  Basis Set:
  @DF-RHF Final Energy:  -191.99513824317279
    Total Energy =                       -191.9951382431727893
  Basis Set: CC-PVTZ
  Basis Set:
  Basis Set: CC-PVTZ
  Basis Set:
  @DF-RHF Final Energy:  -191.99518976091883
    Total Energy =                       -191.9951897609188336
  Basis Set: CC-PVTZ
  Basis Set:
  Basis Set: CC-PVTZ
  Basis Set:
  @DF-RHF Final Energy:  -191.99520317543499
    Total Energy =                       -191.9952031754349662
  Basis Set: CC-PVTZ
  Basis Set:
  Charge       = 0
  Multiplicity = 1
  Basis Set: CC-PVTZ
  Basis Set:

    Orbital Energies (a.u.)
    -----------------------

    Doubly Occupied:

       1A    -20.554300     2A    -11.278447     3A    -11.230118
       4A    -11.217002     5A     -1.374362     6A     -1.061999
       7A     -0.931984     8A     -0.771453     9A     -0.692642
      10A     -0.663502    11A     -0.619063    12A     -0.574715
      13A     -0.542529    14A     -0.494298    15A     -0.452009
      16A     -0.367567

  @DF-RHF Final Energy:  -191.99520329077166

   => Energetics <=

    Nuclear Repulsion Energy =            119.3362211952135254
    One-Electron Energy =                -497.0108723466163383
    Two-Electron Energy =                 185.6794478606311145
    DFT Exchange-Correlation Energy =       0.0000000000000000
    Empirical Dispersion Energy =           0.0000000000000000
    PCM Polarization Energy =               0.0000000000000000
    EFP Energy =                            0.0000000000000000
    Total Energy =                       -191.9952032907717125
    Molecular point group: c1
  Basis Set: CC-PVTZ
  Basis Set:

  -Total Gradient:
     Atom            X                  Y                   Z
    ------   -----------------  -----------------  -----------------
       1        0.000002214924     0.000003823705    -0.000003717377
       2       -0.000029016210     0.000007926887     0.000016085676
       3       -0.003046995486     0.003476556472    -0.007321527690
       4        0.005539160583    -0.006944609605     0.017105754577
       5       -0.000002673762     0.000004954133     0.000000531692
       6       -0.000002463451    -0.000002387405     0.000005765240
       7       -0.003422340065     0.006010501464    -0.021069475204
       8       -0.000004052296     0.000002302484    -0.000001454203
       9        0.000975046750    -0.002560639926     0.011261771184
      10       -0.000008880990     0.000001571790     0.000006266105

  **** Optimization is complete! (in 6 steps) ****
    Final optimized geometry and variables:
    Molecular point group: c1

    Geometry (in Angstrom), charge = 0, multiplicity = 1:

    H            1.396421263886    -1.106492702222     0.218942103385
    O            1.263056569555    -0.538208346257    -0.518162192276
    C            0.678376944245     0.655527878010    -0.094925242421
    C           -0.725707854176     0.517467398026     0.423296827279
    H            0.653309991717     1.309475318069    -0.958033507385
    H            1.300627104193     1.147495466859     0.650365299939
    C           -1.512815356617    -0.523657627982     0.255471662852
    H           -1.147059803544     1.436489059672     0.798035825058
    H           -1.130561591061    -1.494459432232     0.002440336451
    H           -2.541966984302    -0.482302820128     0.560138426400

  Mulliken Charges: (a.u.)
   Center  Symbol    Alpha    Beta     Spin     Total
       1     H     0.39195  0.39195  0.00000  0.21610
       2     O     4.19824  4.19824  0.00000 -0.39648
       3     C     2.95250  2.95250  0.00000  0.09499
       4     C     3.09012  3.09012  0.00000 -0.18024
       5     H     0.45216  0.45216  0.00000  0.09568
       6     H     0.46694  0.46694  0.00000  0.06612
       7     C     3.16637  3.16637  0.00000 -0.33274
       8     H     0.42489  0.42489  0.00000  0.15023
       9     H     0.42786  0.42786  0.00000  0.14428
      10     H     0.42896  0.42896  0.00000  0.14207

   Total alpha = 16.00000, Total beta = 16.00000, Total charge = -0.00000

*** Psi4 exiting successfully. Buy a developer a beer!
