  ==> Input File <==

--------------------------------------------------------------------------
set {
	reference rhf
	basis 6-31G*
}

set_num_threads( 1 )
memory 2 gb

molecule MOL {
0 1

O	 2.862325	 1.357334	 0.000267
C	 2.843464	 0.164689	 -0.000222
C	 1.546494	 -0.624492	 -0.000609
C	 4.124123	 -0.644674	 -0.000428
C	 0.291004	 0.242674	 0.000989
H	 1.557904	 -1.283758	 -0.867573
H	 1.558622	 -1.285963	 0.864672
C	 -0.386811	 0.295481	 -1.369245
H	 0.552016	 1.245912	 0.322727
H	 -0.403996	 -0.138926	 0.742275
C	 -1.646312	 1.163395	 -1.379935
H	 0.316780	 0.675753	 -2.108434
H	 -0.644414	 -0.713980	 -1.686570
C	 -2.329985	 1.221354	 -2.747138
H	 -1.389854	 2.172927	 -1.063559
H	 -2.350742	 0.783660	 -0.641980
C	 -3.587162	 2.090367	 -2.749870
H	 -1.627172	 1.601918	 -3.485413
H	 -2.588183	 0.212924	 -3.063779
H	 -3.356420	 3.114358	 -2.469959
H	 -4.048679	 2.112195	 -3.732329
H	 -4.324717	 1.714873	 -2.046193
H	 4.165367	 -1.288615	 -0.874074
H	 4.976217	 0.020734	 -0.001915
H	 4.166763	 -1.286207	 0.874930

	symmetry c1
}
set optking {
	frozen_dihedral = ("
		9 5 8 12,
		15 11 8 12,
		15 11 14 18,
		1 2 3 6
	")
}

ee = energy('scf')
oeprop('DIPOLE', 'QUADRUPOLE', 'MULLIKEN_CHARGES')
f=open( 'psi4out.xyz', 'w' )
f.write( "25  " )
f.write( str(ee) + "\n" )
f.write( MOL.save_string_xyz() )
f.close()
--------------------------------------------------------------------------

    Molecular point group: c1

    Geometry (in Angstrom), charge = 0, multiplicity = 1:

       Center              X                  Y                   Z               Mass
    ------------   -----------------  -----------------  -----------------  -----------------
           O          2.451983549334     0.761536088557     0.923938749270    15.994914619560
           C          2.433122549334    -0.431108911443     0.923449749270    12.000000000000
           C          1.136152549334    -1.220289911443     0.923062749270    12.000000000000
           C          3.713781549334    -1.240471911443     0.923243749270    12.000000000000
           C         -0.119337450666    -0.353123911443     0.924660749270    12.000000000000
           H          1.147562549334    -1.879555911443     0.056098749270     1.007825032070
           H          1.148280549334    -1.881760911443     1.788343749270     1.007825032070
           C         -0.797152450666    -0.300316911443    -0.445573250730    12.000000000000
           H          0.141674549334     0.650114088557     1.246398749270     1.007825032070
           H         -0.814337450666    -0.734723911443     1.665946749270     1.007825032070
           C         -2.056653450666     0.567597088557    -0.456263250730    12.000000000000
           H         -0.093561450666     0.079955088557    -1.184762250730     1.007825032070
           H         -1.054755450666    -1.309777911443    -0.762898250730     1.007825032070
           C         -2.740326450666     0.625556088557    -1.823466250730    12.000000000000
           H         -1.800195450666     1.577129088557    -0.139887250730     1.007825032070
           H         -2.761083450666     0.187862088557     0.281691749270     1.007825032070
           C         -3.997503450666     1.494569088557    -1.826198250730    12.000000000000
           H         -2.037513450666     1.006120088557    -2.561741250730     1.007825032070
           H         -2.998524450666    -0.382873911443    -2.140107250730     1.007825032070
           H         -3.766761450666     2.518560088557    -1.546287250730     1.007825032070
           H         -4.459020450666     1.516397088557    -2.808657250730     1.007825032070
           H         -4.735058450666     1.119075088557    -1.122521250730     1.007825032070
           H          3.755025549334    -1.884412911443     0.049597749270     1.007825032070
           H          4.565875549334    -0.575063911443     0.921756749270     1.007825032070
           H          3.756421549334    -1.882004911443     1.798601749270     1.007825032070

  Charge       = 0
  Multiplicity = 1
  Basis Set: 6-31G*
  Basis Set:

    Orbital Energies (a.u.)
    -----------------------

    Doubly Occupied:

       1A    -20.551421     2A    -11.327187     3A    -11.230602
       4A    -11.229052     5A    -11.213972     6A    -11.212989
       7A    -11.212966     8A    -11.210610     9A    -11.206440
      10A     -1.397152    11A     -1.091478    12A     -1.054947
      13A     -1.013938    14A     -0.967800    15A     -0.888740
      16A     -0.814527    17A     -0.788926    18A     -0.729434
      19A     -0.668657    20A     -0.639697    21A     -0.633027
      22A     -0.622479    23A     -0.591788    24A     -0.582988
      25A     -0.575370    26A     -0.557358    27A     -0.532905
      28A     -0.525055    29A     -0.514289    30A     -0.495996
      31A     -0.483406    32A     -0.471120    33A     -0.462381
      34A     -0.458480    35A     -0.441101    36A     -0.402571

  @DF-RHF Final Energy:  -387.13265749366309

   => Energetics <=

    Nuclear Repulsion Energy =            443.8585109885313500
    One-Electron Energy =               -1404.3807942952273606
    Two-Electron Energy =                 573.3896258130328079
    DFT Exchange-Correlation Energy =       0.0000000000000000
    Empirical Dispersion Energy =           0.0000000000000000
    PCM Polarization Energy =               0.0000000000000000
    EFP Energy =                            0.0000000000000000
    Total Energy =                       -387.1326574936631459

  Mulliken Charges: (a.u.)
   Center  Symbol    Alpha    Beta     Spin     Total
       1     O     4.26065  4.26065  0.00000 -0.52130
       2     C     2.73784  2.73784  0.00000  0.52432
       3     C     3.21460  3.21460  0.00000 -0.42920
       4     C     3.28694  3.28694  0.00000 -0.57388
       5     C     3.15667  3.15667  0.00000 -0.31334
       6     H     0.40755  0.40755  0.00000  0.18490
       7     H     0.40675  0.40675  0.00000  0.18650
       8     C     3.15551  3.15551  0.00000 -0.31103
       9     H     0.39562  0.39562  0.00000  0.20877
      10     H     0.42127  0.42127  0.00000  0.15746
      11     C     3.15169  3.15169  0.00000 -0.30338
      12     H     0.41965  0.41965  0.00000  0.16070
      13     H     0.42607  0.42607  0.00000  0.14786
      14     C     3.15157  3.15157  0.00000 -0.30314
      15     H     0.42031  0.42031  0.00000  0.15938
      16     H     0.42486  0.42486  0.00000  0.15028
      17     C     3.23928  3.23928  0.00000 -0.47856
      18     H     0.42244  0.42244  0.00000  0.15512
      19     H     0.42436  0.42436  0.00000  0.15127
      20     H     0.42100  0.42100  0.00000  0.15800
      21     H     0.41981  0.41981  0.00000  0.16037
      22     H     0.42229  0.42229  0.00000  0.15542
      23     H     0.40839  0.40839  0.00000  0.18322
      24     H     0.39640  0.39640  0.00000  0.20720
      25     H     0.40847  0.40847  0.00000  0.18305

   Total alpha = 36.00000, Total beta = 36.00000, Total charge =  0.00000
