  ==> Input File <==

--------------------------------------------------------------------------
set {
	reference rhf
	basis 6-31G*
}

set_num_threads( 4 )
memory 2 gb

molecule MOL {
0 1

H	 -0.216825	 0.021369	 -3.357402
C	 0.374198	 0.036393	 -2.447010
C	 -0.521757	 -0.028637	 -1.217342
H	 0.969602	 0.942322	 -2.434777
H	 1.053364	 -0.811668	 -2.481329
N	 0.263400	 0.031178	 0.000000
H	 -1.199035	 0.820290	 -1.219355
H	 -1.147901	 -0.924895	 -1.265384
C	 -0.521757	 -0.028637	 1.217342
H	 0.935769	 -0.712709	 0.000000
C	 -1.656546	 -1.035450	 1.084562
H	 0.137632	 -0.332918	 2.024810
H	 -0.927428	 0.947787	 1.499600
H	 -1.265435	 -2.018463	 0.847751
H	 -2.225474	 -1.100810	 2.006732
H	 -2.344042	 -0.747727	 0.293224

	symmetry c1
}
set optking {
	frozen_dihedral = ("
		12 9 6 3
	")
}

ee = optimize('scf')
oeprop('DIPOLE', 'QUADRUPOLE', 'MULLIKEN_CHARGES')
f=open( 'psi4out.xyz', 'w' )
f.write( "16  " )
f.write( str(ee) + "\n" )
f.write( MOL.save_string_xyz() )
f.close()
--------------------------------------------------------------------------

    Molecular point group: c1
  Charge       = 0
  Multiplicity = 1
  Basis Set: 6-31G*
  Basis Set:
  @DF-RHF Final Energy:  -212.30364750183060
    Total Energy =                       -212.3036475018305396
    Molecular point group: c1
  Basis Set: 6-31G*
  Basis Set:
  Basis Set: 6-31G*
  Basis Set:
  @DF-RHF Final Energy:  -212.30465117402829
    Total Energy =                       -212.3046511740281517
  Basis Set: 6-31G*
  Basis Set:
  Basis Set: 6-31G*
  Basis Set:
  @DF-RHF Final Energy:  -212.30835378498847
    Total Energy =                       -212.3083537849884124
  Basis Set: 6-31G*
  Basis Set:
  Basis Set: 6-31G*
  Basis Set:
  @DF-RHF Final Energy:  -212.30895334644515
    Total Energy =                       -212.3089533464451506
  Basis Set: 6-31G*
  Basis Set:
  Basis Set: 6-31G*
  Basis Set:
  @DF-RHF Final Energy:  -212.30903124527467
    Total Energy =                       -212.3090312452745820
  Basis Set: 6-31G*
  Basis Set:
  Basis Set: 6-31G*
  Basis Set:
  @DF-RHF Final Energy:  -212.30905145180557
    Total Energy =                       -212.3090514518054306
  Basis Set: 6-31G*
  Basis Set:
  Basis Set: 6-31G*
  Basis Set:
  @DF-RHF Final Energy:  -212.30905353679489
    Total Energy =                       -212.3090535367948632
  Basis Set: 6-31G*
  Basis Set:
  Charge       = 0
  Multiplicity = 1
  Basis Set: 6-31G*
  Basis Set:

    Orbital Energies (a.u.)
    -----------------------

    Doubly Occupied:

       1A    -15.533392     2A    -11.241636     3A    -11.239903
       4A    -11.208451     5A    -11.206633     6A     -1.201566
       7A     -1.023590     8A     -0.966797     9A     -0.851680
      10A     -0.800709    11A     -0.661857    12A     -0.626124
      13A     -0.606564    14A     -0.579737    15A     -0.543790
      16A     -0.533759    17A     -0.511374    18A     -0.490708
      19A     -0.479656    20A     -0.472808    21A     -0.355522

  @DF-RHF Final Energy:  -212.30905375130067

   => Energetics <=

    Nuclear Repulsion Energy =            191.4792680348476779
    One-Electron Energy =                -665.3041314072640944
    Two-Electron Energy =                 261.5158096211159204
    DFT Exchange-Correlation Energy =       0.0000000000000000
    Empirical Dispersion Energy =           0.0000000000000000
    PCM Polarization Energy =               0.0000000000000000
    EFP Energy =                            0.0000000000000000
    Total Energy =                       -212.3090537513004961
    Molecular point group: c1
  Basis Set: 6-31G*
  Basis Set:

  -Total Gradient:
     Atom            X                  Y                   Z
    ------   -----------------  -----------------  -----------------
       1       -0.000001765586     0.000001701762     0.000003869091
       2        0.000001886752     0.000000735313     0.000008304840
       3        0.000263278009    -0.004273147949     0.000031486535
       4        0.000002084176     0.000001996109    -0.000002807529
       5       -0.000001369863    -0.000000374069     0.000000238505
       6       -0.000632687639     0.005094861150    -0.000234970041
       7        0.000002497881     0.000004057432     0.000002661908
       8       -0.000002109581     0.000003320343    -0.000002719147
       9        0.001593964579     0.004235473986     0.001138162115
      10        0.000007123436    -0.000002956488    -0.000018281108
      11       -0.000002616532    -0.000006595984     0.000010322639
      12       -0.001231934316    -0.005063254582    -0.000945382265
      13       -0.000003214487     0.000002241492     0.000010373027
      14        0.000001380791    -0.000001766723    -0.000001414090
      15       -0.000003156327    -0.000000175729     0.000000083477
      16        0.000006638710     0.000003883936     0.000000072042

  **** Optimization is complete! (in 8 steps) ****
    Final optimized geometry and variables:
    Molecular point group: c1

    Geometry (in Angstrom), charge = 0, multiplicity = 1:

    H            0.314632926551     0.329686617606    -3.127323790847
    C            0.861581475791     0.347839089126    -2.189516238400
    C           -0.079370243169     0.152048057779    -1.007671536362
    H            1.382019420260     1.295072783124    -2.107721108762
    H            1.607650203229    -0.441969393463    -2.228214843524
    N            0.661214966756     0.203553728662     0.239520188054
    H           -0.813425826027     0.953245892288    -0.997301843887
    H           -0.635330966806    -0.777460487956    -1.138383439452
    C           -0.113043929844     0.163040000861     1.473289270702
    H            1.331215260125    -0.540864520416     0.246442672066
    C           -1.311037427909    -0.793345781531     1.510727889552
    H            0.567506225319    -0.147542784147     2.259098548537
    H           -0.450371452508     1.168350848495     1.708222406097
    H           -1.008871166631    -1.812250957064     1.283138368774
    H           -1.751865418327    -0.791673014523     2.503509087649
    H           -2.087673938843    -0.509969458987     0.808742541534

  Mulliken Charges: (a.u.)
   Center  Symbol    Alpha    Beta     Spin     Total
       1     H     0.42149  0.42149  0.00000  0.15701
       2     C     3.23893  3.23893  0.00000 -0.47787
       3     C     3.05857  3.05857  0.00000 -0.11713
       4     H     0.41221  0.41221  0.00000  0.17559
       5     H     0.42536  0.42536  0.00000  0.14929
       6     N     3.84931  3.84931  0.00000 -0.69861
       7     H     0.42119  0.42119  0.00000  0.15763
       8     H     0.43156  0.43156  0.00000  0.13688
       9     C     3.05426  3.05426  0.00000 -0.10852
      10     H     0.33529  0.33529  0.00000  0.32942
      11     C     3.24993  3.24993  0.00000 -0.49985
      12     H     0.42104  0.42104  0.00000  0.15792
      13     H     0.41900  0.41900  0.00000  0.16199
      14     H     0.42353  0.42353  0.00000  0.15295
      15     H     0.41974  0.41974  0.00000  0.16052
      16     H     0.41861  0.41861  0.00000  0.16278

   Total alpha = 21.00000, Total beta = 21.00000, Total charge =  0.00000
