  ==> Input File <==

--------------------------------------------------------------------------
set {
	reference rhf
	basis 6-31G*
}

set_num_threads( 1 )
memory 2 gb

molecule MOL {
0 1

H	 -2.698709	 -0.000305	 0.034435
C	 -1.693833	 0.000034	 0.434417
O	 -0.828952	 -0.000968	 -0.659236
H	 -1.574200	 0.882896	 1.055746
H	 -1.574147	 -0.881698	 1.057355
C	 -0.742598	 -1.163998	 -1.449430
C	 -0.188163	 -2.357966	 -0.674860
C	 -2.056546	 -1.490250	 -2.156579
H	 -0.016429	 -0.893771	 -2.206852
H	 0.715846	 -2.076177	 -0.145794
H	 0.055390	 -3.163961	 -1.359907
H	 -0.900424	 -2.746850	 0.045985
H	 -2.446104	 -0.607744	 -2.652445
H	 -1.893673	 -2.258139	 -2.906435
H	 -2.811858	 -1.859743	 -1.470416

	symmetry c1
}
set optking {
	frozen_dihedral = ("
		9 6 3 2
	")
}

ee = energy('scf')
oeprop('DIPOLE', 'QUADRUPOLE', 'MULLIKEN_CHARGES')
f=open( 'psi4out.xyz', 'w' )
f.write( "15  " )
f.write( str(ee) + "\n" )
f.write( MOL.save_string_xyz() )
f.close()
--------------------------------------------------------------------------

    Molecular point group: c1

    Geometry (in Angstrom), charge = 0, multiplicity = 1:

       Center              X                  Y                   Z               Mass
    ------------   -----------------  -----------------  -----------------  -----------------
           H         -1.582517202849     0.997000819836     0.916226219905     1.007825032070
           C         -0.577641202849     0.997339819836     1.316208219905    12.000000000000
           O          0.287239797151     0.996337819836     0.222555219905    15.994914619560
           H         -0.458008202849     1.880201819836     1.937537219905     1.007825032070
           H         -0.457955202849     0.115607819836     1.939146219905     1.007825032070
           C          0.373593797151    -0.166692180164    -0.567638780095    12.000000000000
           C          0.928028797151    -1.360660180164     0.206931219905    12.000000000000
           C         -0.940354202849    -0.492944180164    -1.274787780095    12.000000000000
           H          1.099762797151     0.103534819836    -1.325060780095     1.007825032070
           H          1.832037797151    -1.078871180164     0.735997219905     1.007825032070
           H          1.171581797151    -2.166655180164    -0.478115780095     1.007825032070
           H          0.215767797151    -1.749544180164     0.927776219905     1.007825032070
           H         -1.329912202849     0.389561819836    -1.770653780095     1.007825032070
           H         -0.777481202849    -1.260833180164    -2.024643780095     1.007825032070
           H         -1.695666202849    -0.862437180164    -0.588624780095     1.007825032070

  Charge       = 0
  Multiplicity = 1
  Basis Set: 6-31G*
  Basis Set:

    Orbital Energies (a.u.)
    -----------------------

    Doubly Occupied:

       1A    -20.546343     2A    -11.275217     3A    -11.261195
       4A    -11.210740     5A    -11.210621     6A     -1.369711
       7A     -1.050307     8A     -0.939828     9A     -0.931283
      10A     -0.781306    11A     -0.673400    12A     -0.641616
      13A     -0.633042    14A     -0.575979    15A     -0.565526
      16A     -0.550750    17A     -0.533857    18A     -0.500184
      19A     -0.496372    20A     -0.441202    21A     -0.404304

  @DF-RHF Final Energy:  -232.13523176346595

   => Energetics <=

    Nuclear Repulsion Energy =            198.8955735457859930
    One-Electron Energy =                -708.8759567441483114
    Two-Electron Energy =                 277.8451514348960245
    DFT Exchange-Correlation Energy =       0.0000000000000000
    Empirical Dispersion Energy =           0.0000000000000000
    PCM Polarization Energy =               0.0000000000000000
    EFP Energy =                            0.0000000000000000
    Total Energy =                       -232.1352317634663223

  Mulliken Charges: (a.u.)
   Center  Symbol    Alpha    Beta     Spin     Total
       1     H     0.42836  0.42836  0.00000  0.14328
       2     C     3.08159  3.08159  0.00000 -0.16319
       3     O     4.31334  4.31334  0.00000 -0.62668
       4     H     0.41242  0.41242  0.00000  0.17516
       5     H     0.43027  0.43027  0.00000  0.13946
       6     C     2.90848  2.90848  0.00000  0.18304
       7     C     3.25347  3.25347  0.00000 -0.50693
       8     C     3.25411  3.25411  0.00000 -0.50821
       9     H     0.41463  0.41463  0.00000  0.17074
      10     H     0.41117  0.41117  0.00000  0.17766
      11     H     0.41920  0.41920  0.00000  0.16161
      12     H     0.42128  0.42128  0.00000  0.15744
      13     H     0.41134  0.41134  0.00000  0.17732
      14     H     0.41917  0.41917  0.00000  0.16167
      15     H     0.42118  0.42118  0.00000  0.15764

   Total alpha = 21.00000, Total beta = 21.00000, Total charge =  0.00000
