  ==> Input File <==

--------------------------------------------------------------------------
set {
	reference rhf
	basis 6-31G*
}

set_num_threads( 4 )
memory 2 gb

molecule MOL {
0 1

O	 1.096269	 -2.579417	 -4.604086
C	 0.794389	 -1.483420	 -4.240640
C	 0.535027	 -1.193986	 -2.772558
C	 0.686765	 -0.327201	 -5.209633
C	 1.856545	 -1.037771	 -2.002929
H	 -0.023675	 -2.030084	 -2.366237
H	 -0.068183	 -0.297552	 -2.660437
C	 1.631333	 -0.777471	 -0.511575
H	 2.441531	 -1.938764	 -2.149172
H	 2.432579	 -0.216663	 -2.426853
C	 2.915987	 -0.544314	 0.291766
H	 1.085203	 -1.614565	 -0.080596
H	 0.990121	 0.094535	 -0.400663
C	 3.373361	 0.914346	 0.347591
H	 3.708709	 -1.142521	 -0.150311
H	 2.780642	 -0.921148	 1.303579
H	 3.506512	 1.320010	 -0.651625
H	 4.322697	 0.999599	 0.867103
H	 2.660624	 1.545032	 0.868198
H	 -0.346450	 0.004800	 -5.268844
H	 1.022028	 -0.633821	 -6.190636
H	 1.275453	 0.518470	 -4.865988

	symmetry c1
}
set optking {
	frozen_dihedral = ("
		12 8 11 15
	")
}

ee = optimize('scf')
oeprop('DIPOLE', 'QUADRUPOLE', 'MULLIKEN_CHARGES')
f=open( 'psi4out.xyz', 'w' )
f.write( "22  " )
f.write( str(ee) + "\n" )
f.write( MOL.save_string_xyz() )
f.close()
--------------------------------------------------------------------------

    Molecular point group: c1
  Charge       = 0
  Multiplicity = 1
  Basis Set: 6-31G*
  Basis Set:
  @DF-RHF Final Energy:  -348.09640005343005
    Total Energy =                       -348.0964000534301022
    Molecular point group: c1
  Basis Set: 6-31G*
  Basis Set:
  Basis Set: 6-31G*
  Basis Set:
  @DF-RHF Final Energy:  -348.09656743557002
    Total Energy =                       -348.0965674355701367
  Basis Set: 6-31G*
  Basis Set:
  Basis Set: 6-31G*
  Basis Set:
  @DF-RHF Final Energy:  -348.09444718130567
    Total Energy =                       -348.0944471813056111
  Basis Set: 6-31G*
  Basis Set:
  Basis Set: 6-31G*
  Basis Set:
  @DF-RHF Final Energy:  -348.09668088196452
    Total Energy =                       -348.0966808819644029
  Basis Set: 6-31G*
  Basis Set:
  @DF-RHF Final Energy:  -348.09643562273027
    Total Energy =                       -348.0964356227304961
  @DF-RHF Final Energy:  -348.09658127539342
    Total Energy =                       -348.0965812753934188
  @DF-RHF Final Energy:  -348.09667676825069
    Total Energy =                       -348.0966767682506315
  Basis Set: 6-31G*
  Basis Set:
  @DF-RHF Final Energy:  -348.09669137656482
    Total Energy =                       -348.0966913765646495
  Basis Set: 6-31G*
  Basis Set:
  Basis Set: 6-31G*
  Basis Set:
  @DF-RHF Final Energy:  -348.09671218360199
    Total Energy =                       -348.0967121836021079
  Basis Set: 6-31G*
  Basis Set:
  Basis Set: 6-31G*
  Basis Set:
  @DF-RHF Final Energy:  -348.09671375776446
    Total Energy =                       -348.0967137577646326
  Basis Set: 6-31G*
  Basis Set:
  Charge       = 0
  Multiplicity = 1
  Basis Set: 6-31G*
  Basis Set:

    Orbital Energies (a.u.)
    -----------------------

    Doubly Occupied:

       1A    -20.547437     2A    -11.324570     3A    -11.230398
       4A    -11.229243     5A    -11.228299     6A    -11.222178
       7A    -11.220646     8A    -11.213468     9A     -1.393207
      10A     -1.095670    11A     -1.044748    12A     -1.000181
      13A     -0.938176    14A     -0.853303    15A     -0.792904
      16A     -0.732947    17A     -0.660530    18A     -0.646641
      19A     -0.626779    20A     -0.617761    21A     -0.599041
      22A     -0.584851    23A     -0.554994    24A     -0.547068
      25A     -0.538140    26A     -0.514855    27A     -0.499904
      28A     -0.488698    29A     -0.472088    30A     -0.464300
      31A     -0.459778    32A     -0.396294

  @DF-RHF Final Energy:  -348.09671391250674

   => Energetics <=

    Nuclear Repulsion Energy =            371.9047350178085480
    One-Electron Energy =               -1208.5247044769757849
    Two-Electron Energy =                 488.5232555466606073
    DFT Exchange-Correlation Energy =       0.0000000000000000
    Empirical Dispersion Energy =           0.0000000000000000
    PCM Polarization Energy =               0.0000000000000000
    EFP Energy =                            0.0000000000000000
    Total Energy =                       -348.0967139125066296
    Molecular point group: c1
  Basis Set: 6-31G*
  Basis Set:

  -Total Gradient:
     Atom            X                  Y                   Z
    ------   -----------------  -----------------  -----------------
       1        0.000008792021     0.000005257640     0.000040641435
       2        0.000006553166     0.000045558204    -0.000026314841
       3       -0.000032252837     0.000034807508     0.000010237363
       4       -0.000026049365    -0.000012856634    -0.000027569474
       5        0.000025799144    -0.000031354616     0.000007107514
       6       -0.000006959377     0.000008968885     0.000020607027
       7       -0.000032855623    -0.000008832912    -0.000034265343
       8        0.002110691147    -0.001977586796    -0.002869368592
       9        0.000012611177    -0.000007736006     0.000018055380
      10        0.000019065837    -0.000004016480     0.000020292616
      11       -0.001235435650    -0.002486676081     0.002795964033
      12       -0.001525581968     0.002007859782     0.001956977217
      13       -0.000011628254    -0.000019982658    -0.000007007910
      14       -0.000013475821    -0.000011228942     0.000021566196
      15        0.000715436450     0.002422866908    -0.001938778123
      16       -0.000012663776     0.000024807100     0.000015701156
      17        0.000002709991    -0.000015468440    -0.000001857749
      18       -0.000006242214     0.000003885323     0.000019181832
      19       -0.000005583726     0.000011050634    -0.000025314666
      20       -0.000002122529     0.000020124833    -0.000004332348
      21        0.000006477918     0.000005520734    -0.000001183367
      22        0.000002714291    -0.000014967981     0.000009660652

  **** Optimization is complete! (in 11 steps) ****
    Final optimized geometry and variables:
    Molecular point group: c1

    Geometry (in Angstrom), charge = 0, multiplicity = 1:

    O           -0.542457632348    -1.708837151900    -2.261545386957
    C           -0.826512585201    -0.609651711091    -1.893749721904
    C           -1.089621044107    -0.323137002346    -0.425753053348
    C           -0.914317614764     0.552473657558    -2.858016218862
    C            0.229004238250    -0.164679311549     0.347490595273
    H           -1.647818657728    -1.160673033625    -0.021785122235
    H           -1.694577142015     0.572269983748    -0.314324300816
    C            0.007161261360     0.077819149694     1.841158149954
    H            0.822213330128    -1.062946969464     0.207122693428
    H            0.803362348185     0.657735164781    -0.074515445456
    C            1.307847735302     0.309219334655     2.628990507339
    H           -0.539306322643    -0.759228751358     2.268424684436
    H           -0.643804114444     0.941030775665     1.971397604442
    C            1.746287861569     1.775661345702     2.653160658693
    H            2.107536347690    -0.279811743895     2.186105702021
    H            1.186551361716    -0.039988383223     3.649813824115
    H            1.890451477501     2.165675943922     1.649590861565
    H            2.683663780259     1.894802770192     3.187677831410
    H            1.003414142723     2.397246517361     3.144813647877
    H           -1.943268843869     0.896449804797    -2.922575594578
    H           -0.576202500625     0.246299495718    -3.838159232158
    H           -0.318372342575     1.389882294469    -2.506923704001

  Mulliken Charges: (a.u.)
   Center  Symbol    Alpha    Beta     Spin     Total
       1     O     4.26214  4.26214  0.00000 -0.52428
       2     C     2.73731  2.73731  0.00000  0.52538
       3     C     3.20016  3.20016  0.00000 -0.40032
       4     C     3.28955  3.28955  0.00000 -0.57909
       5     C     3.16327  3.16327  0.00000 -0.32654
       6     H     0.40106  0.40106  0.00000  0.19788
       7     H     0.41670  0.41670  0.00000  0.16661
       8     C     3.15436  3.15436  0.00000 -0.30872
       9     H     0.40544  0.40544  0.00000  0.18912
      10     H     0.42010  0.42010  0.00000  0.15980
      11     C     3.15551  3.15551  0.00000 -0.31103
      12     H     0.41750  0.41750  0.00000  0.16500
      13     H     0.42302  0.42302  0.00000  0.15395
      14     C     3.24040  3.24040  0.00000 -0.48080
      15     H     0.41987  0.41987  0.00000  0.16025
      16     H     0.41793  0.41793  0.00000  0.16414
      17     H     0.42257  0.42257  0.00000  0.15486
      18     H     0.41813  0.41813  0.00000  0.16375
      19     H     0.42130  0.42130  0.00000  0.15740
      20     H     0.40678  0.40678  0.00000  0.18643
      21     H     0.39704  0.39704  0.00000  0.20591
      22     H     0.40985  0.40985  0.00000  0.18030

   Total alpha = 32.00000, Total beta = 32.00000, Total charge =  0.00000
