  ==> Input File <==

--------------------------------------------------------------------------
set {
	reference rhf
	basis 6-31G*
}

set_num_threads( 1 )
memory 2 gb

molecule MOL {
0 1

O	 3.101464	 0.808911	 -0.877269
C	 2.701189	 0.057885	 -0.047330
C	 1.421534	 0.214500	 0.738000
O	 3.347903	 -1.046386	 0.304773
C	 0.634306	 1.466870	 0.358584
H	 0.842905	 -0.690885	 0.587474
H	 1.688375	 0.224482	 1.791752
C	 -0.613093	 1.695932	 1.218829
H	 0.353488	 1.410323	 -0.688823
H	 1.289344	 2.326860	 0.446694
C	 -1.714818	 0.645687	 1.050609
H	 -1.021812	 2.671596	 0.966338
H	 -0.324948	 1.752177	 2.267551
C	 -2.979534	 0.977626	 1.845159
H	 -1.966439	 0.557211	 -0.005174
H	 -1.351583	 -0.331393	 1.361006
C	 -4.085424	 -0.067686	 1.688756
H	 -3.357347	 1.949025	 1.530715
H	 -2.726671	 1.076816	 2.899636
C	 -5.346287	 0.273197	 2.482306
H	 -4.338622	 -0.168792	 0.635517
H	 -3.711034	 -1.038531	 2.006675
H	 -6.111254	 -0.485931	 2.351318
H	 -5.765339	 1.223366	 2.163292
H	 -5.132688	 0.347507	 3.544910
C	 4.728119	 -1.109107	 -0.004993
H	 4.882018	 -1.033965	 -1.071845
H	 5.068212	 -2.067527	 0.355250
H	 5.265056	 -0.311663	 0.488280

	symmetry c1
}
set optking {
	frozen_dihedral = ("
		21 17 14 11,
		17 14 11 15,
		15 11 8 5,
		6 3 5 9,
		11 8 5 9,
		2 4 26 27,
		6 3 2 1
	")
}

ee = energy('scf')
oeprop('DIPOLE', 'QUADRUPOLE', 'MULLIKEN_CHARGES')
f=open( 'psi4out.xyz', 'w' )
f.write( "29  " )
f.write( str(ee) + "\n" )
f.write( MOL.save_string_xyz() )
f.close()
--------------------------------------------------------------------------

    Molecular point group: c1

    Geometry (in Angstrom), charge = 0, multiplicity = 1:

       Center              X                  Y                   Z               Mass
    ------------   -----------------  -----------------  -----------------  -----------------
           O          2.952459610002     0.470399077518    -1.665236530256    15.994914619560
           C          2.552184610002    -0.280626922482    -0.835297530256    12.000000000000
           C          1.272529610002    -0.124011922482    -0.049967530256    12.000000000000
           O          3.198898610002    -1.384897922482    -0.483194530256    15.994914619560
           C          0.485301610002     1.128358077518    -0.429383530256    12.000000000000
           H          0.693900610002    -1.029396922482    -0.200493530256     1.007825032070
           H          1.539370610002    -0.114029922482     1.003784469744     1.007825032070
           C         -0.762097389998     1.357420077518     0.430861469744    12.000000000000
           H          0.204483610002     1.071811077518    -1.476790530256     1.007825032070
           H          1.140339610002     1.988348077518    -0.341273530256     1.007825032070
           C         -1.863822389998     0.307175077518     0.262641469744    12.000000000000
           H         -1.170816389998     2.333084077518     0.178370469744     1.007825032070
           H         -0.473952389998     1.413665077518     1.479583469744     1.007825032070
           C         -3.128538389998     0.639114077518     1.057191469744    12.000000000000
           H         -2.115443389998     0.218699077518    -0.793141530256     1.007825032070
           H         -1.500587389998    -0.669904922482     0.573038469744     1.007825032070
           C         -4.234428389998    -0.406197922482     0.900788469744    12.000000000000
           H         -3.506351389998     1.610513077518     0.742747469744     1.007825032070
           H         -2.875675389998     0.738304077518     2.111668469744     1.007825032070
           C         -5.495291389998    -0.065314922482     1.694338469744    12.000000000000
           H         -4.487626389998    -0.507303922482    -0.152450530256     1.007825032070
           H         -3.860038389998    -1.377042922482     1.218707469744     1.007825032070
           H         -6.260258389998    -0.824442922482     1.563350469744     1.007825032070
           H         -5.914343389998     0.884854077518     1.375324469744     1.007825032070
           H         -5.281692389998     0.008995077518     2.756942469744     1.007825032070
           C          4.579114610002    -1.447618922482    -0.792960530256    12.000000000000
           H          4.733013610002    -1.372476922482    -1.859812530256     1.007825032070
           H          4.919207610002    -2.406038922482    -0.432717530256     1.007825032070
           H          5.116051610002    -0.650174922482    -0.299687530256     1.007825032070

  Charge       = 0
  Multiplicity = 1
  Basis Set: 6-31G*
  Basis Set:

    Orbital Energies (a.u.)
    -----------------------

    Doubly Occupied:

       1A    -20.601193     2A    -20.545948     3A    -11.372214
       4A    -11.281696     5A    -11.234818     6A    -11.219049
       7A    -11.217675     8A    -11.215930     9A    -11.215775
      10A    -11.214414    11A    -11.209012    12A     -1.468395
      13A     -1.362688    14A     -1.098036    15A     -1.066687
      16A     -1.019187    17A     -0.977338    18A     -0.929114
      19A     -0.861796    20A     -0.799394    21A     -0.790563
      22A     -0.763764    23A     -0.700722    24A     -0.681355
      25A     -0.672489    26A     -0.650639    27A     -0.628742
      28A     -0.605803    29A     -0.594598    30A     -0.582026
      31A     -0.566204    32A     -0.551100    33A     -0.532917
      34A     -0.528902    35A     -0.518309    36A     -0.510057
      37A     -0.495141    38A     -0.477802    39A     -0.470655
      40A     -0.462439    41A     -0.459205    42A     -0.454939
      43A     -0.441318    44A     -0.434161

  @DF-RHF Final Energy:  -501.04162260965211

   => Energetics <=

    Nuclear Repulsion Energy =            610.1403502808399253
    One-Electron Energy =               -1891.3955539164205675
    Two-Electron Energy =                 780.2135810259284199
    DFT Exchange-Correlation Energy =       0.0000000000000000
    Empirical Dispersion Energy =           0.0000000000000000
    PCM Polarization Energy =               0.0000000000000000
    EFP Energy =                            0.0000000000000000
    Total Energy =                       -501.0416226096521086

  Mulliken Charges: (a.u.)
   Center  Symbol    Alpha    Beta     Spin     Total
       1     O     4.28367  4.28367  0.00000 -0.56733
       2     C     2.60451  2.60451  0.00000  0.79098
       3     C     3.21035  3.21035  0.00000 -0.42071
       4     O     4.30807  4.30807  0.00000 -0.61614
       5     C     3.15394  3.15394  0.00000 -0.30788
       6     H     0.39808  0.39808  0.00000  0.20383
       7     H     0.40241  0.40241  0.00000  0.19519
       8     C     3.15658  3.15658  0.00000 -0.31316
       9     H     0.41274  0.41274  0.00000  0.17451
      10     H     0.40915  0.40915  0.00000  0.18170
      11     C     3.15505  3.15505  0.00000 -0.31010
      12     H     0.41824  0.41824  0.00000  0.16352
      13     H     0.42413  0.42413  0.00000  0.15174
      14     C     3.15028  3.15028  0.00000 -0.30056
      15     H     0.42244  0.42244  0.00000  0.15512
      16     H     0.42358  0.42358  0.00000  0.15285
      17     C     3.15147  3.15147  0.00000 -0.30293
      18     H     0.42333  0.42333  0.00000  0.15333
      19     H     0.42407  0.42407  0.00000  0.15185
      20     C     3.23935  3.23935  0.00000 -0.47870
      21     H     0.42272  0.42272  0.00000  0.15456
      22     H     0.42340  0.42340  0.00000  0.15320
      23     H     0.41921  0.41921  0.00000  0.16159
      24     H     0.42155  0.42155  0.00000  0.15689
      25     H     0.42188  0.42188  0.00000  0.15624
      26     C     3.09354  3.09354  0.00000 -0.18709
      27     H     0.40476  0.40476  0.00000  0.19048
      28     H     0.40801  0.40801  0.00000  0.18398
      29     H     0.41348  0.41348  0.00000  0.17305

   Total alpha = 44.00000, Total beta = 44.00000, Total charge =  0.00000
