  ==> Input File <==

--------------------------------------------------------------------------
set {
	reference rhf
	basis cc-pvtz
}

set_num_threads( 4 )
memory 2 gb

molecule MOL {
0 1

H	 3.861000	 -0.921000	 -0.077000
O	 2.957000	 -1.153000	 0.116000
C	 2.209000	 -0.061000	 -0.041000
C	 0.755000	 -0.337000	 0.247000
O	 2.674000	 0.981000	 -0.370000
C	 -0.135000	 0.890000	 0.068000
H	 0.455000	 -1.157000	 -0.396000
H	 0.696000	 -0.720000	 1.263000
C	 -1.598000	 0.652000	 0.457000
H	 -0.078000	 1.226000	 -0.963000
H	 0.266000	 1.699000	 0.669000
C	 -2.351000	 -0.337000	 -0.437000
H	 -2.115000	 1.609000	 0.427000
H	 -1.649000	 0.315000	 1.491000
C	 -3.830000	 -0.454000	 -0.066000
H	 -2.263000	 -0.021000	 -1.474000
H	 -1.894000	 -1.321000	 -0.376000
H	 -4.342000	 -1.162000	 -0.711000
H	 -4.334000	 0.503000	 -0.159000
H	 -3.951000	 -0.793000	 0.959000

	symmetry c1
}
ee = optimize('scf')
oeprop('DIPOLE', 'QUADRUPOLE', 'MULLIKEN_CHARGES')
f=open( 'psi4out.xyz', 'w' )
f.write( "20  " )
f.write( str(ee) + "\n" )
f.write( MOL.save_string_xyz() )
f.close()
--------------------------------------------------------------------------

    Molecular point group: c1
  Charge       = 0
  Multiplicity = 1
  Basis Set: CC-PVTZ
  Basis Set:
  @DF-RHF Final Energy:  -384.09484346649526
    Total Energy =                       -384.0948434664950923
    Molecular point group: c1
  Basis Set: CC-PVTZ
  Basis Set:
  Basis Set: CC-PVTZ
  Basis Set:
  @DF-RHF Final Energy:  -384.09501623429031
    Total Energy =                       -384.0950162342902559
  Basis Set: CC-PVTZ
  Basis Set:
  Basis Set: CC-PVTZ
  Basis Set:
  @DF-RHF Final Energy:  -384.09470587015841
    Total Energy =                       -384.0947058701583501
  Basis Set: CC-PVTZ
  Basis Set:
  Basis Set: CC-PVTZ
  Basis Set:
  @DF-RHF Final Energy:  -384.09501754476184
    Total Energy =                       -384.0950175447620154
  Basis Set: CC-PVTZ
  Basis Set:
  Basis Set: CC-PVTZ
  Basis Set:
  @DF-RHF Final Energy:  -384.09501826739711
    Total Energy =                       -384.0950182673980180
  Basis Set: CC-PVTZ
  Basis Set:
  Basis Set: CC-PVTZ
  Basis Set:
  @DF-RHF Final Energy:  -384.09502551812568
    Total Energy =                       -384.0950255181256807
  Basis Set: CC-PVTZ
  Basis Set:
  Charge       = 0
  Multiplicity = 1
  Basis Set: CC-PVTZ
  Basis Set:

    Orbital Energies (a.u.)
    -----------------------

    Doubly Occupied:

       1A    -20.603824     2A    -20.540441     3A    -11.373378
       4A    -11.238658     5A    -11.221017     6A    -11.218768
       7A    -11.218156     8A    -11.210547     9A     -1.477465
      10A     -1.368931    11A     -1.097586    12A     -1.042284
      13A     -0.962550    14A     -0.870369    15A     -0.817794
      16A     -0.778053    17A     -0.703658    18A     -0.692981
      19A     -0.666705    20A     -0.637338    21A     -0.605079
      22A     -0.596474    23A     -0.576938    24A     -0.556945
      25A     -0.541231    26A     -0.513690    27A     -0.496048
      28A     -0.484500    29A     -0.471631    30A     -0.468313
      31A     -0.458268    32A     -0.446439

  @DF-RHF Final Energy:  -384.09502561637998

   => Energetics <=

    Nuclear Repulsion Energy =            376.5910322308053537
    One-Electron Energy =               -1269.4599981177771042
    Two-Electron Energy =                 508.7739402705916518
    DFT Exchange-Correlation Energy =       0.0000000000000000
    Empirical Dispersion Energy =           0.0000000000000000
    PCM Polarization Energy =               0.0000000000000000
    EFP Energy =                            0.0000000000000000
    Total Energy =                       -384.0950256163800987
    Molecular point group: c1
  Basis Set: CC-PVTZ
  Basis Set:

  -Total Gradient:
     Atom            X                  Y                   Z
    ------   -----------------  -----------------  -----------------
       1       -0.000010276589    -0.000000177456     0.000001527825
       2        0.000030565781     0.000089619377    -0.000009105064
       3       -0.000043384914     0.000000549916    -0.000071797374
       4       -0.000027923231     0.000005568324     0.000020103236
       5        0.000005276862    -0.000127265681     0.000066371956
       6       -0.000014990594     0.000016258772    -0.000009469573
       7        0.000027808842     0.000019275608     0.000006278780
       8        0.000021881910     0.000012205820    -0.000003440804
       9       -0.000023706488     0.000011896599    -0.000033299109
      10       -0.000005035333     0.000003973459    -0.000001219650
      11       -0.000004405151    -0.000017109074    -0.000004452304
      12        0.000010286703    -0.000026316191     0.000050464797
      13       -0.000017243762    -0.000006215660     0.000006517237
      14        0.000017843635    -0.000017744840    -0.000023860922
      15        0.000014434519     0.000032819054    -0.000020881473
      16        0.000005689174    -0.000006187019     0.000023323749
      17       -0.000015278063     0.000001712289     0.000019618231
      18        0.000002185523     0.000012493880    -0.000014273946
      19        0.000007861511     0.000004226558     0.000012376289
      20        0.000018409664    -0.000009583738    -0.000014781881

  **** Optimization is complete! (in 7 steps) ****
    Final optimized geometry and variables:
    Molecular point group: c1

    Geometry (in Angstrom), charge = 0, multiplicity = 1:

    H            3.721907545056    -0.933075591769    -0.066038254126
    O            2.824271313436    -1.154298635205     0.131461039566
    C            2.076458515468    -0.067370237704    -0.038224229749
    C            0.626017963178    -0.337581795943     0.258241919993
    O            2.538288112788     0.965418634090    -0.381592727492
    C           -0.267325805311     0.883134632176     0.076489970266
    H            0.325620330940    -1.161483339043    -0.378002717388
    H            0.574536851776    -0.713684987436     1.275261722618
    C           -1.726822126860     0.642622149250     0.463839532809
    H           -0.210803057011     1.217591040425    -0.953496279320
    H            0.129920189177     1.693110391931     0.675679037054
    C           -2.480890623600    -0.340605994059    -0.429851673730
    H           -2.243097911001     1.597649048340     0.438609703520
    H           -1.776542049723     0.301207961375     1.495542115146
    C           -3.955932749666    -0.460128083450    -0.060471068020
    H           -2.393754369866    -0.020484761241    -1.464725808219
    H           -2.024243599066    -1.323636487713    -0.374359928426
    H           -4.467672635490    -1.160944421490    -0.709826088379
    H           -4.458916686929     0.497286918448    -0.144504901165
    H           -4.076457697509    -0.806899724872     0.960497916908

  Mulliken Charges: (a.u.)
   Center  Symbol    Alpha    Beta     Spin     Total
       1     H     0.38236  0.38236  0.00000  0.23528
       2     O     4.16027  4.16027  0.00000 -0.32053
       3     C     2.80349  2.80349  0.00000  0.39303
       4     C     3.11194  3.11194  0.00000 -0.22388
       5     O     4.19127  4.19127  0.00000 -0.38254
       6     C     3.09279  3.09279  0.00000 -0.18558
       7     H     0.43712  0.43712  0.00000  0.12576
       8     H     0.43778  0.43778  0.00000  0.12443
       9     C     3.09925  3.09925  0.00000 -0.19851
      10     H     0.44560  0.44560  0.00000  0.10880
      11     H     0.43931  0.43931  0.00000  0.12139
      12     C     3.08691  3.08691  0.00000 -0.17382
      13     H     0.44550  0.44550  0.00000  0.10900
      14     H     0.45398  0.45398  0.00000  0.09205
      15     C     3.14955  3.14955  0.00000 -0.29909
      16     H     0.45252  0.45252  0.00000  0.09497
      17     H     0.45422  0.45422  0.00000  0.09156
      18     H     0.44772  0.44772  0.00000  0.10456
      19     H     0.45363  0.45363  0.00000  0.09275
      20     H     0.45481  0.45481  0.00000  0.09039

   Total alpha = 32.00000, Total beta = 32.00000, Total charge =  0.00000
