  ==> Input File <==

--------------------------------------------------------------------------
set {
	reference rhf
	basis 6-31G*
}

set_num_threads( 1 )
memory 2 gb

molecule MOL {
0 1

H	 2.591676	 2.013956	 0.335017
O	 3.341076	 1.666752	 -0.126416
C	 3.569581	 0.339145	 0.272707
C	 2.286144	 -0.464700	 0.449759
H	 4.173161	 -0.103507	 -0.509230
H	 4.157958	 0.312657	 1.189162
C	 1.377961	 0.051291	 1.568609
H	 1.743624	 -0.460012	 -0.492057
H	 2.559143	 -1.498782	 0.653506
C	 0.124853	 -0.808413	 1.756886
H	 1.086309	 1.074453	 1.348508
H	 1.936243	 0.078638	 2.504511
C	 -0.777401	 -0.385094	 2.921823
H	 -0.453199	 -0.805468	 0.834555
H	 0.433339	 -1.839317	 1.917430
C	 -1.453388	 0.978118	 2.751016
H	 -1.549326	 -1.141342	 3.048458
H	 -0.198450	 -0.387641	 3.844128
C	 -2.423610	 1.308908	 3.887098
H	 -1.991067	 0.996079	 1.804080
H	 -0.703227	 1.762900	 2.690361
C	 -3.094927	 2.671939	 3.722351
H	 -3.186794	 0.535819	 3.945173
H	 -1.890229	 1.281892	 4.835075
H	 -3.663875	 2.719591	 2.798094
H	 -3.777498	 2.876263	 4.541487
H	 -2.359505	 3.471264	 3.697912

	symmetry c1
}
set optking {
	frozen_dihedral = ("
		14 10 7 4,
		14 10 13 16,
		10 7 4 8,
		8 4 3 2,
		10 13 16 20,
		20 16 19 22
	")
}

ee = energy('scf')
oeprop('DIPOLE', 'QUADRUPOLE', 'MULLIKEN_CHARGES')
f=open( 'psi4out.xyz', 'w' )
f.write( "27  " )
f.write( str(ee) + "\n" )
f.write( MOL.save_string_xyz() )
f.close()
--------------------------------------------------------------------------

    Molecular point group: c1

    Geometry (in Angstrom), charge = 0, multiplicity = 1:

       Center              X                  Y                   Z               Mass
    ------------   -----------------  -----------------  -----------------  -----------------
           H          2.225515924291     1.384409453755    -1.549416633852     1.007825032070
           O          2.974915924291     1.037205453755    -2.010849633852    15.994914619560
           C          3.203420924291    -0.290401546245    -1.611726633852    12.000000000000
           C          1.919983924291    -1.094246546245    -1.434674633852    12.000000000000
           H          3.807000924291    -0.733053546245    -2.393663633852     1.007825032070
           H          3.791797924291    -0.316889546245    -0.695271633852     1.007825032070
           C          1.011800924291    -0.578255546245    -0.315824633852    12.000000000000
           H          1.377463924291    -1.089558546245    -2.376490633852     1.007825032070
           H          2.192982924291    -2.128328546245    -1.230927633852     1.007825032070
           C         -0.241307075709    -1.437959546245    -0.127547633852    12.000000000000
           H          0.720148924291     0.444906453755    -0.535925633852     1.007825032070
           H          1.570082924291    -0.550908546245     0.620077366148     1.007825032070
           C         -1.143561075709    -1.014640546245     1.037389366148    12.000000000000
           H         -0.819359075709    -1.435014546245    -1.049878633852     1.007825032070
           H          0.067178924291    -2.468863546245     0.032996366148     1.007825032070
           C         -1.819548075709     0.348571453755     0.866582366148    12.000000000000
           H         -1.915486075709    -1.770888546245     1.164024366148     1.007825032070
           H         -0.564610075709    -1.017187546245     1.959694366148     1.007825032070
           C         -2.789770075709     0.679361453755     2.002664366148    12.000000000000
           H         -2.357227075709     0.366532453755    -0.080353633852     1.007825032070
           H         -1.069387075709     1.133353453755     0.805927366148     1.007825032070
           C         -3.461087075709     2.042392453755     1.837917366148    12.000000000000
           H         -3.552954075709    -0.093727546245     2.060739366148     1.007825032070
           H         -2.256389075709     0.652345453755     2.950641366148     1.007825032070
           H         -4.030035075709     2.090044453755     0.913660366148     1.007825032070
           H         -4.143658075709     2.246716453755     2.657053366148     1.007825032070
           H         -2.725665075709     2.841717453755     1.813478366148     1.007825032070

  Charge       = 0
  Multiplicity = 1
  Basis Set: 6-31G*
  Basis Set:

    Orbital Energies (a.u.)
    -----------------------

    Doubly Occupied:

       1A    -20.549657     2A    -11.265988     3A    -11.225513
       4A    -11.220997     5A    -11.220412     6A    -11.218213
       7A    -11.217678     8A    -11.216558     9A    -11.210619
      10A     -1.357467    11A     -1.098529    12A     -1.064349
      13A     -1.013501    14A     -0.950428    15A     -0.891124
      16A     -0.823773    17A     -0.804919    18A     -0.781402
      19A     -0.679767    20A     -0.657429    21A     -0.644889
      22A     -0.615166    23A     -0.608371    24A     -0.584586
      25A     -0.579880    26A     -0.560015    27A     -0.541877
      28A     -0.531520    29A     -0.506601    30A     -0.496907
      31A     -0.488851    32A     -0.478763    33A     -0.469161
      34A     -0.463250    35A     -0.452044    36A     -0.439097
      37A     -0.428240

  @DF-RHF Final Energy:  -388.28020513322514

   => Energetics <=

    Nuclear Repulsion Energy =            460.1626816184312361
    One-Electron Energy =               -1438.1706322462302978
    Two-Electron Energy =                 589.7277454945726731
    DFT Exchange-Correlation Energy =       0.0000000000000000
    Empirical Dispersion Energy =           0.0000000000000000
    PCM Polarization Energy =               0.0000000000000000
    EFP Energy =                            0.0000000000000000
    Total Energy =                       -388.2802051332264455

  Mulliken Charges: (a.u.)
   Center  Symbol    Alpha    Beta     Spin     Total
       1     H     0.27767  0.27767  0.00000  0.44465
       2     O     4.37651  4.37651  0.00000 -0.75302
       3     C     2.98526  2.98526  0.00000  0.02948
       4     C     3.17439  3.17439  0.00000 -0.34878
       5     H     0.41642  0.41642  0.00000  0.16717
       6     H     0.43148  0.43148  0.00000  0.13705
       7     C     3.16237  3.16237  0.00000 -0.32474
       8     H     0.41509  0.41509  0.00000  0.16981
       9     H     0.42049  0.42049  0.00000  0.15902
      10     C     3.15204  3.15204  0.00000 -0.30407
      11     H     0.42947  0.42947  0.00000  0.14106
      12     H     0.42029  0.42029  0.00000  0.15943
      13     C     3.15375  3.15375  0.00000 -0.30750
      14     H     0.42172  0.42172  0.00000  0.15657
      15     H     0.42027  0.42027  0.00000  0.15946
      16     C     3.15282  3.15282  0.00000 -0.30564
      17     H     0.42062  0.42062  0.00000  0.15876
      18     H     0.42338  0.42338  0.00000  0.15323
      19     C     3.15129  3.15129  0.00000 -0.30258
      20     H     0.42389  0.42389  0.00000  0.15222
      21     H     0.42369  0.42369  0.00000  0.15263
      22     C     3.23933  3.23933  0.00000 -0.47867
      23     H     0.42265  0.42265  0.00000  0.15470
      24     H     0.42279  0.42279  0.00000  0.15443
      25     H     0.42153  0.42153  0.00000  0.15694
      26     H     0.41883  0.41883  0.00000  0.16233
      27     H     0.42197  0.42197  0.00000  0.15606

   Total alpha = 37.00000, Total beta = 37.00000, Total charge = -0.00000
