  ==> Input File <==

--------------------------------------------------------------------------
set {
	reference rhf
	basis cc-pvtz
}

set_num_threads( 4 )
memory 2 gb

molecule MOL {
0 1

H	 -1.835082	 1.385983	 0.000069
C	 -1.300516	 0.441153	 -0.000028
O	 -0.006604	 0.654344	 -0.000106
O	 -1.828920	 -0.612308	 0.000113
C	 0.445080	 1.987670	 -0.219305
C	 1.954573	 1.976365	 -0.174544
H	 0.027901	 2.627820	 0.544977
H	 0.076702	 2.328303	 -1.176504
H	 2.309127	 1.629677	 0.787781
H	 2.331348	 2.978901	 -0.338303
H	 2.358177	 1.328629	 -0.942341

	symmetry c1
}
set optking {
	frozen_dihedral = ("
		5 3 2 4
	")
}

ee = optimize('scf')
oeprop('DIPOLE', 'QUADRUPOLE', 'MULLIKEN_CHARGES')
f=open( 'psi4out.xyz', 'w' )
f.write( "11  " )
f.write( str(ee) + "\n" )
f.write( MOL.save_string_xyz() )
f.close()
--------------------------------------------------------------------------

    Molecular point group: c1
  Charge       = 0
  Multiplicity = 1
  Basis Set: CC-PVTZ
  Basis Set:
  @DF-RHF Final Energy:  -266.92231610422186
    Total Energy =                       -266.9223161042217498
    Molecular point group: c1
  Basis Set: CC-PVTZ
  Basis Set:
  Basis Set: CC-PVTZ
  Basis Set:
  @DF-RHF Final Energy:  -266.92331316001423
    Total Energy =                       -266.9233131600144020
  Basis Set: CC-PVTZ
  Basis Set:
  Basis Set: CC-PVTZ
  Basis Set:
  @DF-RHF Final Energy:  -266.92335810695556
    Total Energy =                       -266.9233581069556749
  Basis Set: CC-PVTZ
  Basis Set:
  Basis Set: CC-PVTZ
  Basis Set:
  @DF-RHF Final Energy:  -266.92346825686843
    Total Energy =                       -266.9234682568685457
  Basis Set: CC-PVTZ
  Basis Set:
  Basis Set: CC-PVTZ
  Basis Set:
  @DF-RHF Final Energy:  -266.92349587121828
    Total Energy =                       -266.9234958712179377
  Basis Set: CC-PVTZ
  Basis Set:
  Charge       = 0
  Multiplicity = 1
  Basis Set: CC-PVTZ
  Basis Set:

    Orbital Energies (a.u.)
    -----------------------

    Doubly Occupied:

       1A    -20.605288     2A    -20.544290     3A    -11.371639
       4A    -11.304583     5A    -11.232073     6A     -1.476789
       7A     -1.383125     8A     -1.056670     9A     -0.889796
      10A     -0.848495    11A     -0.739962    12A     -0.698555
      13A     -0.671263    14A     -0.604043    15A     -0.577974
      16A     -0.565400    17A     -0.532989    18A     -0.522763
      19A     -0.460250    20A     -0.453410

  @DF-RHF Final Energy:  -266.92349653986935

   => Energetics <=

    Nuclear Repulsion Energy =            176.6643348535549478
    One-Electron Energy =                -714.0969516435027344
    Two-Electron Energy =                 270.5091202500783538
    DFT Exchange-Correlation Energy =       0.0000000000000000
    Empirical Dispersion Energy =           0.0000000000000000
    PCM Polarization Energy =               0.0000000000000000
    EFP Energy =                            0.0000000000000000
    Total Energy =                       -266.9234965398694612
    Molecular point group: c1
  Basis Set: CC-PVTZ
  Basis Set:

  -Total Gradient:
     Atom            X                  Y                   Z
    ------   -----------------  -----------------  -----------------
       1        0.000009811749    -0.000009264944    -0.000009646049
       2        0.000119845945    -0.000263570201     0.001672465299
       3        0.000115834094     0.000202102766     0.001059552772
       4       -0.000178560885     0.000126427770    -0.001522716343
       5       -0.000120721279    -0.000125808469    -0.001179015723
       6        0.000029410472     0.000049710813    -0.000016929329
       7        0.000024447896     0.000012544399    -0.000011217684
       8        0.000013042033     0.000012529939     0.000002453526
       9       -0.000014187853    -0.000003947592     0.000000836246
      10        0.000011913352    -0.000000123877     0.000003843574
      11       -0.000010835527    -0.000000600603     0.000000373713

  **** Optimization is complete! (in 6 steps) ****
    Final optimized geometry and variables:
    Molecular point group: c1

    Geometry (in Angstrom), charge = 0, multiplicity = 1:

    H           -1.741560677541     0.479295913415     0.261718002408
    C           -1.165742194111    -0.437803922935     0.127906493516
    O            0.130841481239    -0.238526647181    -0.001006583655
    O           -1.659968192252    -1.501009964176     0.102370841952
    C            0.592047303474     1.090489327171    -0.170338917754
    C            2.098485151488     1.084775084135    -0.059917899573
    H            0.154288559083     1.727967876913     0.589689553243
    H            0.279676083480     1.454796591515    -1.141974558792
    H            2.407484113607     0.723451532662     0.912240147316
    H            2.480883327690     2.089422835760    -0.194602257201
    H            2.532162742868     0.445129242873    -0.817127453022

  Mulliken Charges: (a.u.)
   Center  Symbol    Alpha    Beta     Spin     Total
       1     H     0.47561  0.47561  0.00000  0.04878
       2     C     2.84571  2.84571  0.00000  0.30858
       3     O     4.12435  4.12435  0.00000 -0.24870
       4     O     4.17574  4.17574  0.00000 -0.35148
       5     C     2.97784  2.97784  0.00000  0.04431
       6     C     3.13318  3.13318  0.00000 -0.26635
       7     H     0.46190  0.46190  0.00000  0.07620
       8     H     0.45709  0.45709  0.00000  0.08582
       9     H     0.44761  0.44761  0.00000  0.10478
      10     H     0.45530  0.45530  0.00000  0.08940
      11     H     0.44567  0.44567  0.00000  0.10866

   Total alpha = 20.00000, Total beta = 20.00000, Total charge = -0.00000
