  ==> Input File <==

--------------------------------------------------------------------------
set {
	reference rhf
	basis 6-31G*
}

set_num_threads( 4 )
memory 2 gb

molecule MOL {
0 1

H	 -3.420663	 1.227371	 -1.044276
O	 -3.452007	 0.283848	 -0.965577
C	 -3.181085	 -0.079926	 0.364119
C	 -1.765924	 0.277073	 0.805136
H	 -3.327791	 -1.152017	 0.410903
H	 -3.905698	 0.375695	 1.036898
C	 -0.677594	 -0.417312	 -0.014550
H	 -1.637766	 1.358238	 0.744969
H	 -1.659588	 0.017670	 1.857098
C	 0.738335	 -0.034840	 0.421385
H	 -0.814977	 -0.178223	 -1.064632
H	 -0.802730	 -1.495410	 0.071702
C	 1.822265	 -0.738362	 -0.399735
H	 0.853533	 1.043532	 0.342250
H	 0.871597	 -0.279636	 1.474438
C	 3.059259	 0.117271	 -0.696201
H	 1.393542	 -1.085852	 -1.338427
H	 2.140361	 -1.630379	 0.135929
C	 2.797788	 1.319660	 -1.605212
H	 3.811117	 -0.514678	 -1.162720
H	 3.492047	 0.460711	 0.241320
H	 2.352863	 1.007560	 -2.546367
H	 3.723776	 1.838098	 -1.834568
H	 2.128395	 2.039053	 -1.145267

	symmetry c1
}
set optking {
	frozen_dihedral = ("
		17 13 10 7
	")
}

ee = optimize('scf')
oeprop('DIPOLE', 'QUADRUPOLE', 'MULLIKEN_CHARGES')
f=open( 'psi4out.xyz', 'w' )
f.write( "24  " )
f.write( str(ee) + "\n" )
f.write( MOL.save_string_xyz() )
f.close()
--------------------------------------------------------------------------

    Molecular point group: c1
  Charge       = 0
  Multiplicity = 1
  Basis Set: 6-31G*
  Basis Set:
  @DF-RHF Final Energy:  -349.24353855857657
    Total Energy =                       -349.2435385585763470
    Molecular point group: c1
  Basis Set: 6-31G*
  Basis Set:
  Basis Set: 6-31G*
  Basis Set:
  @DF-RHF Final Energy:  -349.24375634347086
    Total Energy =                       -349.2437563434708636
  Basis Set: 6-31G*
  Basis Set:
  Basis Set: 6-31G*
  Basis Set:
  @DF-RHF Final Energy:  -349.24399218457955
    Total Energy =                       -349.2439921845789286
  Basis Set: 6-31G*
  Basis Set:
  Basis Set: 6-31G*
  Basis Set:
  @DF-RHF Final Energy:  -349.24399682543515
    Total Energy =                       -349.2439968254353175
  Basis Set: 6-31G*
  Basis Set:
  Basis Set: 6-31G*
  Basis Set:
  @DF-RHF Final Energy:  -349.24402875486493
    Total Energy =                       -349.2440287548648712
  Basis Set: 6-31G*
  Basis Set:
  Basis Set: 6-31G*
  Basis Set:
  @DF-RHF Final Energy:  -349.24403192181438
    Total Energy =                       -349.2440319218142122
  Basis Set: 6-31G*
  Basis Set:
  Charge       = 0
  Multiplicity = 1
  Basis Set: 6-31G*
  Basis Set:

    Orbital Energies (a.u.)
    -----------------------

    Doubly Occupied:

       1A    -20.553542     2A    -11.267678     3A    -11.217276
       4A    -11.214404     5A    -11.212338     6A    -11.211343
       7A    -11.211165     8A    -11.207354     9A     -1.360133
      10A     -1.087337    11A     -1.048117    12A     -0.984897
      13A     -0.915356    14A     -0.849403    15A     -0.800356
      16A     -0.778609    17A     -0.679035    18A     -0.653258
      19A     -0.623976    20A     -0.618278    21A     -0.599386
      22A     -0.576552    23A     -0.567235    24A     -0.534275
      25A     -0.518128    26A     -0.510602    27A     -0.495168
      28A     -0.474896    29A     -0.467102    30A     -0.459873
      31A     -0.454694    32A     -0.448633    33A     -0.418532

  @DF-RHF Final Energy:  -349.24403194961604

   => Energetics <=

    Nuclear Repulsion Energy =            386.4781863365957975
    One-Electron Energy =               -1239.4065812514763820
    Two-Electron Energy =                 503.6843629652646541
    DFT Exchange-Correlation Energy =       0.0000000000000000
    Empirical Dispersion Energy =           0.0000000000000000
    PCM Polarization Energy =               0.0000000000000000
    EFP Energy =                            0.0000000000000000
    Total Energy =                       -349.2440319496158736
    Molecular point group: c1
  Basis Set: 6-31G*
  Basis Set:

  -Total Gradient:
     Atom            X                  Y                   Z
    ------   -----------------  -----------------  -----------------
       1       -0.000000696353     0.000002949997    -0.000002642081
       2       -0.000012108552     0.000010797623     0.000005516581
       3        0.000007780316    -0.000019575049    -0.000005796244
       4       -0.000008208868     0.000022220728    -0.000014685102
       5       -0.000000263949    -0.000001649398     0.000001088584
       6        0.000001565851    -0.000000300572    -0.000001289804
       7       -0.000030665351     0.001987947016    -0.001636309567
       8        0.000007282326     0.000005983568     0.000004594387
       9       -0.000002075957    -0.000001810566    -0.000003653696
      10       -0.000218529081    -0.003496807768     0.002714118816
      11        0.000001098418    -0.000013705830     0.000002710515
      12        0.000009366684    -0.000001092604     0.000001851285
      13        0.001047187474     0.004631815291    -0.002521510576
      14       -0.000024843094    -0.000013424759     0.000012995174
      15       -0.000007576901     0.000026544968     0.000003275069
      16        0.000031871014    -0.000035769614    -0.000029530325
      17       -0.000800673367    -0.003117184191     0.001476009472
      18        0.000003631728     0.000010540414    -0.000027245207
      19       -0.000016235283     0.000000044367     0.000021651846
      20        0.000011678650    -0.000003292971    -0.000003483153
      21       -0.000000420502     0.000007066309    -0.000005097317
      22        0.000006190781    -0.000006224151     0.000005052688
      23        0.000000803320    -0.000004573106     0.000008930375
      24       -0.000006159295     0.000009500297    -0.000006551722

  **** Optimization is complete! (in 7 steps) ****
    Final optimized geometry and variables:
    Molecular point group: c1

    Geometry (in Angstrom), charge = 0, multiplicity = 1:

    H           -3.302557053064     1.175289571083    -0.669598359986
    O           -3.329578663532     0.228653161265    -0.647386662288
    C           -3.054022920578    -0.212700392471     0.657688119018
    C           -1.638932337628     0.122570540631     1.115859902879
    H           -3.196612679721    -1.286134302943     0.640732502704
    H           -3.778589865234     0.199168098756     1.358061460043
    C           -0.550555034699    -0.517436631986     0.253826497821
    H           -1.514632355051     1.205989547325     1.119826798444
    H           -1.528873514391    -0.198434231067     2.150278049879
    C            0.865549477315    -0.140818710917     0.694425254367
    H           -0.694920307878    -0.225609816810    -0.781538890124
    H           -0.665454847325    -1.600244429816     0.284077234678
    C            1.966898565193    -0.829884656756    -0.134782975609
    H            0.967353180535     0.939555242663     0.621085705630
    H            1.002004494600    -0.378720936668     1.746834500476
    C            3.213975707024     0.025124680414    -0.384793003822
    H            1.556792023591    -1.170313506935    -1.083535658441
    H            2.268301895810    -1.739152203597     0.380365204073
    C            3.001823570590     1.157351738494    -1.391248425592
    H            4.012711529737    -0.616554892997    -0.748337387010
    H            3.562629331551     0.437125252756     0.560243754021
    H            2.705211945749     0.763427089320    -2.359321166065
    H            3.915166834343     1.727314951752    -1.532283895479
    H            2.231947023119     1.851047564385    -1.068538511528

  Mulliken Charges: (a.u.)
   Center  Symbol    Alpha    Beta     Spin     Total
       1     H     0.28338  0.28338  0.00000  0.43324
       2     O     4.36831  4.36831  0.00000 -0.73663
       3     C     2.99610  2.99610  0.00000  0.00780
       4     C     3.16940  3.16940  0.00000 -0.33880
       5     H     0.41630  0.41630  0.00000  0.16739
       6     H     0.42820  0.42820  0.00000  0.14361
       7     C     3.15372  3.15372  0.00000 -0.30743
       8     H     0.42842  0.42842  0.00000  0.14316
       9     H     0.42229  0.42229  0.00000  0.15543
      10     C     3.15441  3.15441  0.00000 -0.30881
      11     H     0.41144  0.41144  0.00000  0.17712
      12     H     0.42349  0.42349  0.00000  0.15303
      13     C     3.15562  3.15562  0.00000 -0.31125
      14     H     0.42347  0.42347  0.00000  0.15305
      15     H     0.42263  0.42263  0.00000  0.15473
      16     C     3.15361  3.15361  0.00000 -0.30721
      17     H     0.42087  0.42087  0.00000  0.15827
      18     H     0.42095  0.42095  0.00000  0.15810
      19     C     3.23995  3.23995  0.00000 -0.47990
      20     H     0.42135  0.42135  0.00000  0.15730
      21     H     0.42341  0.42341  0.00000  0.15317
      22     H     0.42133  0.42133  0.00000  0.15734
      23     H     0.41967  0.41967  0.00000  0.16066
      24     H     0.42169  0.42169  0.00000  0.15662

   Total alpha = 33.00000, Total beta = 33.00000, Total charge =  0.00000
