                              Psi4 1.0.54 Driver

  ==> Input File <==

--------------------------------------------------------------------------
set {
	reference rhf
	basis cc-pvtz
}

set_num_threads( 4 )
memory 2 gb

molecule MOL {
0 1

O	 2.868453	 1.353349	 -0.000734
C	 2.841259	 0.166180	 -0.000295
C	 1.542794	 -0.614730	 -0.000853
C	 4.113372	 -0.651103	 0.000743
C	 0.288398	 0.247429	 0.000314
H	 1.557171	 -1.273139	 -0.866508
H	 1.557484	 -1.274998	 0.863344
C	 -0.841162	 -0.359202	 -0.827457
H	 0.534160	 1.233097	 -0.378069
H	 -0.041449	 0.393704	 1.022536
C	 -2.104952	 0.495848	 -0.834750
H	 -0.502415	 -0.505317	 -1.850773
H	 -1.080925	 -1.348334	 -0.443539
C	 -3.239217	 -0.103939	 -1.660846
H	 -1.866347	 1.484712	 -1.218584
H	 -2.444787	 0.641812	 0.187666
C	 -4.498581	 0.756170	 -1.663389
H	 -2.900807	 -0.249091	 -2.683269
H	 -3.479258	 -1.091878	 -1.277081
H	 -4.299300	 1.740374	 -2.074086
H	 -5.283206	 0.302667	 -2.258132
H	 -4.882168	 0.891141	 -0.657562
H	 4.145311	 -1.294584	 -0.871587
H	 4.970080	 0.004978	 -0.000091
H	 4.145223	 -1.291980	 0.874988

	symmetry c1
}
set optking {
	frozen_dihedral = ("
		9 5 3 6
	")
}

ee,wfn = optimize('scf', return_wfn=True)
oeprop( wfn, 'DIPOLE', 'QUADRUPOLE', 'MULLIKEN_CHARGES')
f=open( 'psi4out.xyz', 'w' )
f.write( "25  " )
f.write( str(ee) + "\n" )
f.write( MOL.save_string_xyz() )
f.close()
--------------------------------------------------------------------------

    Molecular point group: c1
  Charge       = 0
  Multiplicity = 1
  Basis Set: CC-PVTZ
  Basis Set:
  @DF-RHF Final Energy:  -387.27142454491485
    Total Energy =                       -387.2714245449146802
    Molecular point group: c1
  Basis Set: CC-PVTZ
  Basis Set:
  Basis Set: CC-PVTZ
  Basis Set:
  @DF-RHF Final Energy:  -387.27166391749427
    Total Energy =                       -387.2716639174938109
  Basis Set: CC-PVTZ
  Basis Set:
  Basis Set: CC-PVTZ
  Basis Set:
  @DF-RHF Final Energy:  -387.27167671325839
    Total Energy =                       -387.2716767132585574
  Basis Set: CC-PVTZ
  Basis Set:
  Basis Set: CC-PVTZ
  Basis Set:
  @DF-RHF Final Energy:  -387.27166730088663
    Total Energy =                       -387.2716673008868611
  Basis Set: CC-PVTZ
  Basis Set:
  Basis Set: CC-PVTZ
  Basis Set:
  @DF-RHF Final Energy:  -387.27176052613061
    Total Energy =                       -387.2717605261308336
  Basis Set: CC-PVTZ
  Basis Set:
  Charge       = 0
  Multiplicity = 1
  Basis Set: CC-PVTZ
  Basis Set:

    Orbital Energies (a.u.)
    -----------------------

    Doubly Occupied:

       1A    -20.539589     2A    -11.321543     3A    -11.230202
       4A    -11.226847     5A    -11.215095     6A    -11.213658
       7A    -11.213321     8A    -11.211208     9A    -11.206272
      10A     -1.399762    11A     -1.094212    12A     -1.057102
      13A     -1.015764    14A     -0.969733    15A     -0.891840
      16A     -0.815432    17A     -0.791463    18A     -0.731582
      19A     -0.665643    20A     -0.649696    21A     -0.633188
      22A     -0.626238    23A     -0.596284    24A     -0.584874
      25A     -0.571049    26A     -0.559571    27A     -0.539382
      28A     -0.526928    29A     -0.513893    30A     -0.496145
      31A     -0.486476    32A     -0.471332    33A     -0.464256
      34A     -0.461658    35A     -0.450749    36A     -0.402995

  @DF-RHF Final Energy:  -387.27176087147831

   => Energetics <=

    Nuclear Repulsion Energy =            439.3240731565552437
    One-Electron Energy =               -1395.5016998404285005
    Two-Electron Energy =                 568.9058658123947225
    DFT Exchange-Correlation Energy =       0.0000000000000000
    Empirical Dispersion Energy =           0.0000000000000000
    PCM Polarization Energy =               0.0000000000000000
    EFP Energy =                            0.0000000000000000
    Total Energy =                       -387.2717608714785911
    Molecular point group: c1
  Basis Set: CC-PVTZ
  Basis Set:

  -Total Gradient:
     Atom            X                  Y                   Z
    ------   -----------------  -----------------  -----------------
       1       -0.000009294038    -0.000031323483    -0.000019209791
       2       -0.000006953119     0.000044154858    -0.000009295480
       3        0.002303625329     0.003264321228    -0.001420051952
       4       -0.000005650653    -0.000012823449     0.000035089851
       5       -0.001228495803    -0.001923307405    -0.003517186515
       6       -0.001709491322    -0.002412017228     0.001766442144
       7       -0.000003552551    -0.000007546369    -0.000015229799
       8       -0.000000709083     0.000006086180    -0.000012259207
       9        0.000651479803     0.001066664584     0.003202325442
      10       -0.000008591955    -0.000003905748     0.000000597229
      11       -0.000001413518     0.000006147143     0.000012436069
      12        0.000002087944     0.000011103128     0.000004343645
      13        0.000005189920     0.000000500483    -0.000005331051
      14       -0.000002616618    -0.000008152974     0.000001681300
      15        0.000001727104    -0.000005527780    -0.000002143880
      16        0.000001880858     0.000003324446     0.000004861302
      17        0.000005439092     0.000000671993     0.000003275172
      18       -0.000000219956     0.000000253779    -0.000000524147
      19       -0.000004238747    -0.000001263486    -0.000000556283
      20        0.000001300949     0.000000917356    -0.000000595051
      21        0.000004849261    -0.000002224811    -0.000000141787
      22        0.000000470775    -0.000000682440     0.000000351665
      23       -0.000001357484    -0.000000890404    -0.000010873480
      24        0.000004073051     0.000002424490    -0.000007881997
      25        0.000000460753     0.000003095908    -0.000010123397

  **** Optimization is complete! (in 6 steps) ****
    Final optimized geometry and variables:
    Molecular point group: c1

    Geometry (in Angstrom), charge = 0, multiplicity = 1:

    O            2.821040401730     1.186956006107     0.625754653562
    C            2.756491446874     0.001803023703     0.600170338002
    C            1.440223550114    -0.746366165095     0.527347293938
    C            4.002408531965    -0.854201744196     0.643577730515
    C            0.184766268873     0.126870219197     0.492699262082
    H            1.477614183798    -1.411169765746    -0.332223496941
    H            1.413858328739    -1.420274170021     1.380435438976
    C           -0.951130735840    -0.486250494304    -0.320290118456
    H            0.443099069656     1.107759288005     0.116693479685
    H           -0.154393935736     0.293914164857     1.510503181937
    C           -2.222592224677     0.356471486415    -0.305000369378
    H           -0.622337028146    -0.620822248290    -1.348212488338
    H           -1.175812863798    -1.480784978733     0.059469249456
    C           -3.358738300392    -0.243678879941    -1.128266780183
    H           -1.996089557697     1.352112389985    -0.678299181387
    H           -2.554825890742     0.486247764735     0.722234226561
    C           -4.626456849549     0.603760896072    -1.107348842192
    H           -3.028694809273    -0.371475005470    -2.155665304520
    H           -3.585350123287    -1.239115665328    -0.755709713135
    H           -4.440621783812     1.595378596521    -1.506303730599
    H           -5.412086365840     0.150598997657    -1.701044870214
    H           -5.002034716759     0.721152970347    -0.096253290157
    H            4.052185398396    -1.487791172284    -0.235031158624
    H            4.877536450480    -0.224450187119     0.687860580540
    H            3.977782000890    -1.505714980099     1.510070790729

  Mulliken Charges: (a.u.)
   Center  Symbol    Alpha    Beta     Spin     Total
       1     O     4.16983  4.16983  0.00000 -0.33965
       2     C     2.85962  2.85962  0.00000  0.28076
       3     C     3.11733  3.11733  0.00000 -0.23467
       4     C     3.15122  3.15122  0.00000 -0.30244
       5     C     3.09145  3.09145  0.00000 -0.18291
       6     H     0.44474  0.44474  0.00000  0.11052
       7     H     0.44258  0.44258  0.00000  0.11485
       8     C     3.09148  3.09148  0.00000 -0.18296
       9     H     0.43620  0.43620  0.00000  0.12760
      10     H     0.45285  0.45285  0.00000  0.09429
      11     C     3.08703  3.08703  0.00000 -0.17406
      12     H     0.45480  0.45480  0.00000  0.09040
      13     H     0.45524  0.45524  0.00000  0.08953
      14     C     3.08381  3.08381  0.00000 -0.16762
      15     H     0.45245  0.45245  0.00000  0.09510
      16     H     0.45466  0.45466  0.00000  0.09068
      17     C     3.15049  3.15049  0.00000 -0.30099
      18     H     0.45491  0.45491  0.00000  0.09017
      19     H     0.45546  0.45546  0.00000  0.08907
      20     H     0.45450  0.45450  0.00000  0.09100
      21     H     0.44865  0.44865  0.00000  0.10269
      22     H     0.45516  0.45516  0.00000  0.08969
      23     H     0.45024  0.45024  0.00000  0.09953
      24     H     0.43527  0.43527  0.00000  0.12945
      25     H     0.45001  0.45001  0.00000  0.09997

   Total alpha = 36.00000, Total beta = 36.00000, Total charge = -0.00000

*** Psi4 exiting successfully. Buy a developer a beer!
