  ==> Input File <==

--------------------------------------------------------------------------
set {
	reference rhf
	basis 6-31G*
}

set_num_threads( 4 )
memory 2 gb

molecule MOL {
0 1

H	 2.591676	 2.013956	 0.335017
O	 3.341076	 1.666752	 -0.126416
C	 3.569581	 0.339145	 0.272707
C	 2.539767	 -0.640285	 -0.279495
H	 4.553106	 0.084646	 -0.100901
H	 3.608576	 0.269204	 1.359154
C	 2.661401	 -2.056770	 0.287643
H	 1.546808	 -0.248907	 -0.074017
H	 2.649928	 -0.673510	 -1.362143
C	 1.649416	 -3.028380	 -0.326099
H	 2.524678	 -2.023038	 1.364924
H	 3.669446	 -2.432221	 0.110948
C	 1.784243	 -4.481104	 0.144810
H	 0.641413	 -2.674531	 -0.117373
H	 1.760158	 -3.005612	 -1.408189
C	 1.461585	 -4.711760	 1.623718
H	 1.118779	 -5.098057	 -0.455476
H	 2.792994	 -4.834352	 -0.063700
C	 1.507388	 -6.188884	 2.020508
H	 0.471942	 -4.312769	 1.841720
H	 2.157771	 -4.158462	 2.249408
C	 1.191974	 -6.421324	 3.497718
H	 0.802297	 -6.747830	 1.409023
H	 2.492493	 -6.591788	 1.794404
H	 0.199238	 -6.058258	 3.748482
H	 1.230450	 -7.477229	 3.747155
H	 1.902681	 -5.904769	 4.136804

	symmetry c1
}
set optking {
	frozen_dihedral = ("
		8 4 3 2
	")
}

ee = optimize('scf')
oeprop('DIPOLE', 'QUADRUPOLE', 'MULLIKEN_CHARGES')
f=open( 'psi4out.xyz', 'w' )
f.write( "27  " )
f.write( str(ee) + "\n" )
f.write( MOL.save_string_xyz() )
f.close()
--------------------------------------------------------------------------

    Molecular point group: c1
  Charge       = 0
  Multiplicity = 1
  Basis Set: 6-31G*
  Basis Set:
  @DF-RHF Final Energy:  -388.28141079066967
    Total Energy =                       -388.2814107906694971
    Molecular point group: c1
  Basis Set: 6-31G*
  Basis Set:
  Basis Set: 6-31G*
  Basis Set:
  @DF-RHF Final Energy:  -388.28166637989904
    Total Energy =                       -388.2816663798992067
  Basis Set: 6-31G*
  Basis Set:
  Basis Set: 6-31G*
  Basis Set:
  @DF-RHF Final Energy:  -388.28170358101437
    Total Energy =                       -388.2817035810146535
  Basis Set: 6-31G*
  Basis Set:
  Basis Set: 6-31G*
  Basis Set:
  @DF-RHF Final Energy:  -388.28168422155375
    Total Energy =                       -388.2816842215539737
  Basis Set: 6-31G*
  Basis Set:
  Basis Set: 6-31G*
  Basis Set:
  @DF-RHF Final Energy:  -388.28170663843349
    Total Energy =                       -388.2817066384335476
  Basis Set: 6-31G*
  Basis Set:
  Charge       = 0
  Multiplicity = 1
  Basis Set: 6-31G*
  Basis Set:

    Orbital Energies (a.u.)
    -----------------------

    Doubly Occupied:

       1A    -20.551923     2A    -11.266825     3A    -11.219428
       4A    -11.217103     5A    -11.216646     6A    -11.215876
       7A    -11.215274     8A    -11.214038     9A    -11.209377
      10A     -1.359082    11A     -1.095575    12A     -1.062564
      13A     -1.011711    14A     -0.945513    15A     -0.883766
      16A     -0.823986    17A     -0.805055    18A     -0.778487
      19A     -0.691583    20A     -0.647731    21A     -0.642801
      22A     -0.608086    23A     -0.606634    24A     -0.585767
      25A     -0.572586    26A     -0.554656    27A     -0.545360
      28A     -0.521044    29A     -0.510595    30A     -0.497289
      31A     -0.482506    32A     -0.476483    33A     -0.464388
      34A     -0.460656    35A     -0.455055    36A     -0.443851
      37A     -0.420979

  @DF-RHF Final Energy:  -388.28170649976749

   => Energetics <=

    Nuclear Repulsion Energy =            453.3322622246271862
    One-Electron Energy =               -1424.6673885793034060
    Two-Electron Energy =                 583.0534198549086113
    DFT Exchange-Correlation Energy =       0.0000000000000000
    Empirical Dispersion Energy =           0.0000000000000000
    PCM Polarization Energy =               0.0000000000000000
    EFP Energy =                            0.0000000000000000
    Total Energy =                       -388.2817064997676653
    Molecular point group: c1
  Basis Set: 6-31G*
  Basis Set:

  -Total Gradient:
     Atom            X                  Y                   Z
    ------   -----------------  -----------------  -----------------
       1       -0.000041327215     0.000060539542    -0.000009429155
       2       -0.001116603974     0.000212351380     0.001577392585
       3        0.001626160735    -0.000199543980    -0.002610478388
       4       -0.000492475452    -0.001292983675     0.003098019081
       5        0.000035518123    -0.000030505164    -0.000012872346
       6       -0.000070388680     0.000069183654    -0.000013659552
       7       -0.000073986954     0.000039974704    -0.000000754159
       8        0.000049549081     0.001094608398    -0.001964138595
       9        0.000050499768    -0.000026474716    -0.000050121776
      10        0.000016995597     0.000023561638     0.000000384631
      11       -0.000043074650     0.000022647469    -0.000015193865
      12        0.000011802553    -0.000008408369    -0.000009037071
      13        0.000065252203     0.000013406966    -0.000001284696
      14        0.000017131971    -0.000005416843     0.000024596004
      15       -0.000011072592     0.000026581375    -0.000018877463
      16       -0.000023845889    -0.000000704561     0.000006848622
      17        0.000003784362     0.000033499531    -0.000006010272
      18        0.000004358813    -0.000020124586    -0.000003970776
      19       -0.000001130074    -0.000000060143     0.000001288740
      20       -0.000001400444    -0.000008288062     0.000000188217
      21       -0.000014532370    -0.000007216665     0.000005542015
      22        0.000010302893     0.000002969798     0.000003324410
      23       -0.000004117275     0.000003362750     0.000004577598
      24       -0.000000871809    -0.000003086197    -0.000005882849
      25        0.000001901038    -0.000001436380    -0.000003255899
      26        0.000003289113     0.000000521812    -0.000000212633
      27       -0.000001718873     0.000001040316     0.000003017591

  **** Optimization is complete! (in 6 steps) ****
    Final optimized geometry and variables:
    Molecular point group: c1

    Geometry (in Angstrom), charge = 0, multiplicity = 1:

    H            0.332790911587     4.720885604766    -0.574167766836
    O            1.164266423611     4.417329560630    -0.910626759096
    C            1.372697488718     3.090693559066    -0.502417747710
    C            0.339163903678     2.129214268845    -1.079326288783
    H            2.365688641889     2.825058685386    -0.842068320779
    H            1.376728333177     3.027082778501     0.585354847391
    C            0.447928395798     0.715325080382    -0.507796800004
    H           -0.657582820641     2.531348994305    -0.898166774269
    H            0.456482713728     2.105915764960    -2.159962210959
    C           -0.569020330162    -0.251624135536    -1.120302472652
    H            0.319581583242     0.756589404109     0.570775178441
    H            1.453044374223     0.333395837389    -0.682194728797
    C           -0.433370864377    -1.706078587696    -0.655270328934
    H           -1.576019450458     0.102154334661    -0.905152705122
    H           -0.464040331927    -0.225051655494    -2.202709233911
    C           -0.747875256927    -1.941540608360     0.824597851044
    H           -1.102679477652    -2.320175607394    -1.254193929728
    H            0.573882541600    -2.059263532360    -0.870472601103
    C           -0.698253646828    -3.419821862801     1.216624622307
    H           -1.737147593875    -1.544705193829     1.048968112647
    H           -0.048882375287    -1.389336266373     1.447969920345
    C           -1.004558960081    -3.657011741577     2.694988751856
    H           -1.406299041310    -3.977792636594     0.607641831997
    H            0.285971790757    -3.820795470249     0.983615521127
    H           -1.996481234158    -3.296399847664     2.952633649992
    H           -0.962932121297    -4.713557258707     2.941164960438
    H           -0.290885695134    -3.141113380903     3.331262004879

  Mulliken Charges: (a.u.)
   Center  Symbol    Alpha    Beta     Spin     Total
       1     H     0.28331  0.28331  0.00000  0.43337
       2     O     4.37100  4.37100  0.00000 -0.74201
       3     C     2.98818  2.98818  0.00000  0.02365
       4     C     3.16678  3.16678  0.00000 -0.33356
       5     H     0.41603  0.41603  0.00000  0.16795
       6     H     0.43235  0.43235  0.00000  0.13531
       7     C     3.16167  3.16167  0.00000 -0.32335
       8     H     0.42855  0.42855  0.00000  0.14290
       9     H     0.41478  0.41478  0.00000  0.17043
      10     C     3.15248  3.15248  0.00000 -0.30497
      11     H     0.42063  0.42063  0.00000  0.15873
      12     H     0.42219  0.42219  0.00000  0.15562
      13     C     3.15350  3.15350  0.00000 -0.30700
      14     H     0.42365  0.42365  0.00000  0.15271
      15     H     0.42049  0.42049  0.00000  0.15903
      16     C     3.15271  3.15271  0.00000 -0.30543
      17     H     0.42136  0.42136  0.00000  0.15728
      18     H     0.42356  0.42356  0.00000  0.15288
      19     C     3.15120  3.15120  0.00000 -0.30239
      20     H     0.42481  0.42481  0.00000  0.15038
      21     H     0.42248  0.42248  0.00000  0.15504
      22     C     3.23919  3.23919  0.00000 -0.47837
      23     H     0.42298  0.42298  0.00000  0.15403
      24     H     0.42291  0.42291  0.00000  0.15418
      25     H     0.42196  0.42196  0.00000  0.15607
      26     H     0.41920  0.41920  0.00000  0.16161
      27     H     0.42205  0.42205  0.00000  0.15590

   Total alpha = 37.00000, Total beta = 37.00000, Total charge =  0.00000
