  ==> Input File <==

--------------------------------------------------------------------------
set {
	reference rhf
	basis 6-31G*
}

set_num_threads( 1 )
memory 2 gb

molecule MOL {
0 1

O	 3.225979	 0.970355	 -0.599647
C	 2.701189	 0.057885	 -0.047330
C	 1.245376	 -0.013843	 0.345420
O	 3.347903	 -1.046386	 0.304773
C	 0.455112	 1.231400	 -0.050772
H	 0.838542	 -0.913825	 -0.103701
H	 1.208210	 -0.175333	 1.419774
C	 -0.998893	 1.219485	 0.433193
H	 0.482531	 1.345121	 -1.130325
H	 0.957290	 2.103070	 0.354729
C	 -1.883438	 0.145884	 -0.207175
H	 -1.431207	 2.195402	 0.224832
H	 -1.019646	 1.105716	 1.516076
C	 -3.347647	 0.245583	 0.225435
H	 -1.822183	 0.231698	 -1.291012
H	 -1.510341	 -0.844814	 0.042401
C	 -4.181674	 -0.973416	 -0.172778
H	 -3.790808	 1.140384	 -0.208354
H	 -3.395979	 0.375588	 1.305463
C	 -5.643480	 -0.864232	 0.259545
H	 -4.133655	 -1.105380	 -1.251630
H	 -3.742761	 -1.868302	 0.263473
H	 -6.208389	 -1.742711	 -0.036697
H	 -6.121080	 0.002581	 -0.188482
H	 -5.727029	 -0.765605	 1.338232
C	 4.728119	 -1.109107	 -0.004993
H	 4.882018	 -1.033965	 -1.071845
H	 5.068212	 -2.067527	 0.355250
H	 5.265056	 -0.311663	 0.488280

	symmetry c1
}
set optking {
	frozen_dihedral = ("
		21 17 14 11,
		15 11 8 5,
		6 3 5 9,
		11 8 5 9,
		2 4 26 27,
		1 2 4 26,
		6 3 2 1
	")
}

ee = energy('scf')
oeprop('DIPOLE', 'QUADRUPOLE', 'MULLIKEN_CHARGES')
f=open( 'psi4out.xyz', 'w' )
f.write( "29  " )
f.write( str(ee) + "\n" )
f.write( MOL.save_string_xyz() )
f.close()
--------------------------------------------------------------------------

    Molecular point group: c1

    Geometry (in Angstrom), charge = 0, multiplicity = 1:

       Center              X                  Y                   Z               Mass
    ------------   -----------------  -----------------  -----------------  -----------------
           O          3.215321010516     0.997473300378    -0.641968810670    15.994914619560
           C          2.690531010516     0.085003300378    -0.089651810670    12.000000000000
           C          1.234718010516     0.013275300378     0.303098189330    12.000000000000
           O          3.337245010516    -1.019267699622     0.262451189330    15.994914619560
           C          0.444454010516     1.258518300378    -0.093093810670    12.000000000000
           H          0.827884010516    -0.886706699622    -0.146022810670     1.007825032070
           H          1.197552010516    -0.148214699622     1.377452189330     1.007825032070
           C         -1.009550989484     1.246603300378     0.390871189330    12.000000000000
           H          0.471873010516     1.372239300378    -1.172646810670     1.007825032070
           H          0.946632010516     2.130188300378     0.312407189330     1.007825032070
           C         -1.894095989484     0.173002300378    -0.249496810670    12.000000000000
           H         -1.441864989484     2.222520300378     0.182510189330     1.007825032070
           H         -1.030303989484     1.132834300378     1.473754189330     1.007825032070
           C         -3.358304989484     0.272701300378     0.183113189330    12.000000000000
           H         -1.832840989484     0.258816300378    -1.333333810670     1.007825032070
           H         -1.520998989484    -0.817695699622     0.000079189330     1.007825032070
           C         -4.192331989484    -0.946297699622    -0.215099810670    12.000000000000
           H         -3.801465989484     1.167502300378    -0.250675810670     1.007825032070
           H         -3.406636989484     0.402706300378     1.263141189330     1.007825032070
           C         -5.654137989484    -0.837113699622     0.217223189330    12.000000000000
           H         -4.144312989484    -1.078261699622    -1.293951810670     1.007825032070
           H         -3.753418989484    -1.841183699622     0.221151189330     1.007825032070
           H         -6.219046989484    -1.715592699622    -0.079018810670     1.007825032070
           H         -6.131737989484     0.029699300378    -0.230803810670     1.007825032070
           H         -5.737686989484    -0.738486699622     1.295910189330     1.007825032070
           C          4.717461010516    -1.081988699622    -0.047314810670    12.000000000000
           H          4.871360010516    -1.006846699622    -1.114166810670     1.007825032070
           H          5.057554010516    -2.040408699622     0.312928189330     1.007825032070
           H          5.254398010516    -0.284544699622     0.445958189330     1.007825032070

  Charge       = 0
  Multiplicity = 1
  Basis Set: 6-31G*
  Basis Set:

    Orbital Energies (a.u.)
    -----------------------

    Doubly Occupied:

       1A    -20.603391     2A    -20.545172     3A    -11.371998
       4A    -11.280663     5A    -11.234736     6A    -11.219056
       7A    -11.217684     8A    -11.215977     9A    -11.215807
      10A    -11.214337    11A    -11.209055    12A     -1.469063
      13A     -1.362498    14A     -1.098086    15A     -1.066814
      16A     -1.019496    17A     -0.977221    18A     -0.928559
      19A     -0.861539    20A     -0.799526    21A     -0.790491
      22A     -0.763842    23A     -0.700605    24A     -0.682296
      25A     -0.672190    26A     -0.649980    27A     -0.629197
      28A     -0.605426    29A     -0.594405    30A     -0.580996
      31A     -0.567198    32A     -0.549638    33A     -0.531702
      34A     -0.530403    35A     -0.517082    36A     -0.510328
      37A     -0.496438    38A     -0.477897    39A     -0.470805
      40A     -0.461904    41A     -0.458654    42A     -0.455791
      43A     -0.440981    44A     -0.435330

  @DF-RHF Final Energy:  -501.04362503186223

   => Energetics <=

    Nuclear Repulsion Energy =            610.5094584827126027
    One-Electron Energy =               -1892.1375366192341971
    Two-Electron Energy =                 780.5844531046595876
    DFT Exchange-Correlation Energy =       0.0000000000000000
    Empirical Dispersion Energy =           0.0000000000000000
    PCM Polarization Energy =               0.0000000000000000
    EFP Energy =                            0.0000000000000000
    Total Energy =                       -501.0436250318621205

  Mulliken Charges: (a.u.)
   Center  Symbol    Alpha    Beta     Spin     Total
       1     O     4.28597  4.28597  0.00000 -0.57193
       2     C     2.60482  2.60482  0.00000  0.79037
       3     C     3.20972  3.20972  0.00000 -0.41944
       4     O     4.30747  4.30747  0.00000 -0.61494
       5     C     3.15389  3.15389  0.00000 -0.30778
       6     H     0.39874  0.39874  0.00000  0.20251
       7     H     0.40128  0.40128  0.00000  0.19745
       8     C     3.15699  3.15699  0.00000 -0.31398
       9     H     0.41310  0.41310  0.00000  0.17380
      10     H     0.40875  0.40875  0.00000  0.18250
      11     C     3.15516  3.15516  0.00000 -0.31032
      12     H     0.41818  0.41818  0.00000  0.16364
      13     H     0.42378  0.42378  0.00000  0.15245
      14     C     3.15053  3.15053  0.00000 -0.30106
      15     H     0.42206  0.42206  0.00000  0.15588
      16     H     0.42374  0.42374  0.00000  0.15253
      17     C     3.15179  3.15179  0.00000 -0.30357
      18     H     0.42270  0.42270  0.00000  0.15460
      19     H     0.42399  0.42399  0.00000  0.15203
      20     C     3.23941  3.23941  0.00000 -0.47882
      21     H     0.42287  0.42287  0.00000  0.15426
      22     H     0.42335  0.42335  0.00000  0.15329
      23     H     0.41926  0.41926  0.00000  0.16148
      24     H     0.42156  0.42156  0.00000  0.15689
      25     H     0.42178  0.42178  0.00000  0.15643
      26     C     3.09241  3.09241  0.00000 -0.18481
      27     H     0.40908  0.40908  0.00000  0.18184
      28     H     0.40852  0.40852  0.00000  0.18296
      29     H     0.40912  0.40912  0.00000  0.18175

   Total alpha = 44.00000, Total beta = 44.00000, Total charge =  0.00000
