  ==> Input File <==

--------------------------------------------------------------------------
set {
	reference rhf
	basis 6-31G*
}

set_num_threads( 1 )
memory 2 gb

molecule MOL {
0 1

H	 -2.606182	 -3.209700	 -0.740418
O	 -2.541631	 -2.267797	 -0.672919
C	 -1.244910	 -1.911071	 -0.268133
C	 -1.177863	 -0.397191	 -0.171080
H	 -1.008387	 -2.357468	 0.696799
H	 -0.507304	 -2.271764	 -0.983798
C	 0.198102	 0.111031	 0.262842
H	 -1.938008	 -0.065638	 0.531046
H	 -1.443665	 0.019530	 -1.138639
C	 1.331804	 -0.827780	 -0.158768
H	 0.361943	 1.100838	 -0.156218
H	 0.217265	 0.229072	 1.345532
C	 2.723619	 -0.410569	 0.329459
H	 1.342964	 -0.912588	 -1.244120
H	 1.116806	 -1.824343	 0.220779
C	 3.243875	 0.895854	 -0.272975
H	 3.424222	 -1.207124	 0.091250
H	 2.714788	 -0.329854	 1.414619
H	 3.251977	 0.848779	 -1.358681
H	 2.637085	 1.747371	 0.016682
H	 4.259473	 1.094070	 0.055697

	symmetry c1
}
set optking {
	frozen_dihedral = ("
		2 3 4 8,
		4 7 10 14,
		16 13 10 14,
		1 2 3 5
	")
}

ee = energy('scf')
oeprop('DIPOLE', 'QUADRUPOLE', 'MULLIKEN_CHARGES')
f=open( 'psi4out.xyz', 'w' )
f.write( "21  " )
f.write( str(ee) + "\n" )
f.write( MOL.save_string_xyz() )
f.close()
--------------------------------------------------------------------------

    Molecular point group: c1

    Geometry (in Angstrom), charge = 0, multiplicity = 1:

       Center              X                  Y                   Z               Mass
    ------------   -----------------  -----------------  -----------------  -----------------
           H         -2.921132431533    -2.485494532321    -0.589921260378     1.007825032070
           O         -2.856581431533    -1.543591532321    -0.522422260378    15.994914619560
           C         -1.559860431533    -1.186865532321    -0.117636260378    12.000000000000
           C         -1.492813431533     0.327014467679    -0.020583260378    12.000000000000
           H         -1.323337431533    -1.633262532321     0.847295739622     1.007825032070
           H         -0.822254431533    -1.547558532321    -0.833301260378     1.007825032070
           C         -0.116848431533     0.835236467679     0.413338739622    12.000000000000
           H         -2.252958431533     0.658567467679     0.681542739622     1.007825032070
           H         -1.758615431533     0.743735467679    -0.988142260378     1.007825032070
           C          1.016853568467    -0.103574532321    -0.008271260378    12.000000000000
           H          0.046992568467     1.825043467679    -0.005721260378     1.007825032070
           H         -0.097685431533     0.953277467679     1.496028739622     1.007825032070
           C          2.408668568467     0.313636467679     0.479955739622    12.000000000000
           H          1.028013568467    -0.188382532321    -1.093623260378     1.007825032070
           H          0.801855568467    -1.100137532321     0.371275739622     1.007825032070
           C          2.928924568467     1.620059467679    -0.122478260378    12.000000000000
           H          3.109271568467    -0.482918532321     0.241746739622     1.007825032070
           H          2.399837568467     0.394351467679     1.565115739622     1.007825032070
           H          2.937026568467     1.572984467679    -1.208184260378     1.007825032070
           H          2.322134568467     2.471576467679     0.167178739622     1.007825032070
           H          3.944522568467     1.818275467679     0.206193739622     1.007825032070

  Charge       = 0
  Multiplicity = 1
  Basis Set: 6-31G*
  Basis Set:

    Orbital Energies (a.u.)
    -----------------------

    Doubly Occupied:

       1A    -20.550445     2A    -11.265302     3A    -11.216434
       4A    -11.215498     5A    -11.214803     6A    -11.209901
       7A    -11.208861     8A     -1.357462     9A     -1.090428
      10A     -1.032287    11A     -0.947527    12A     -0.888854
      13A     -0.816622    14A     -0.763055    15A     -0.696987
      16A     -0.656196    17A     -0.626867    18A     -0.608730
      19A     -0.581199    20A     -0.572740    21A     -0.536685
      22A     -0.530051    23A     -0.512879    24A     -0.487451
      25A     -0.483122    26A     -0.461451    27A     -0.451268
      28A     -0.440635    29A     -0.428868

  @DF-RHF Final Energy:  -310.20337775491407

   => Energetics <=

    Nuclear Repulsion Energy =            319.4773128984141977
    One-Electron Energy =               -1053.6561670784910802
    Two-Electron Energy =                 423.9754764251620713
    DFT Exchange-Correlation Energy =       0.0000000000000000
    Empirical Dispersion Energy =           0.0000000000000000
    PCM Polarization Energy =               0.0000000000000000
    EFP Energy =                            0.0000000000000000
    Total Energy =                       -310.2033777549148112

  Mulliken Charges: (a.u.)
   Center  Symbol    Alpha    Beta     Spin     Total
       1     H     0.28156  0.28156  0.00000  0.43687
       2     O     4.37433  4.37433  0.00000 -0.74866
       3     C     2.99517  2.99517  0.00000  0.00967
       4     C     3.15986  3.15986  0.00000 -0.31972
       5     H     0.43269  0.43269  0.00000  0.13462
       6     H     0.42772  0.42772  0.00000  0.14456
       7     C     3.16041  3.16041  0.00000 -0.32081
       8     H     0.41239  0.41239  0.00000  0.17522
       9     H     0.41404  0.41404  0.00000  0.17192
      10     C     3.16479  3.16479  0.00000 -0.32958
      11     H     0.41636  0.41636  0.00000  0.16728
      12     H     0.42192  0.42192  0.00000  0.15616
      13     C     3.14991  3.14991  0.00000 -0.29982
      14     H     0.42209  0.42209  0.00000  0.15582
      15     H     0.41960  0.41960  0.00000  0.16080
      16     C     3.24158  3.24158  0.00000 -0.48316
      17     H     0.42149  0.42149  0.00000  0.15702
      18     H     0.42328  0.42328  0.00000  0.15344
      19     H     0.42212  0.42212  0.00000  0.15576
      20     H     0.41961  0.41961  0.00000  0.16078
      21     H     0.41907  0.41907  0.00000  0.16186

   Total alpha = 29.00000, Total beta = 29.00000, Total charge =  0.00000
