  ==> Input File <==

--------------------------------------------------------------------------
set {
	reference rhf
	basis 6-31G*
}

set_num_threads( 1 )
memory 2 gb

molecule MOL {
0 1

O	 -1.997098	 0.312058	 0.863036
C	 -1.083277	 0.139568	 0.115197
C	 0.323299	 -0.082943	 0.642902
C	 -1.270535	 0.158363	 -1.385606
C	 1.355627	 -0.005344	 -0.493127
H	 0.396251	 -1.044647	 1.143147
H	 0.528637	 0.693580	 1.371677
C	 2.786168	 -0.195604	 0.007473
H	 1.132807	 -0.760304	 -1.243899
H	 1.259610	 0.958506	 -0.981915
H	 3.495561	 -0.130713	 -0.811210
H	 2.912696	 -1.165395	 0.480041
H	 3.049284	 0.565503	 0.735850
H	 -0.562031	 0.835488	 -1.853787
H	 -2.280511	 0.457743	 -1.628620
H	 -1.081171	 -0.832760	 -1.789364

	symmetry c1
}
set optking {
	frozen_dihedral = ("
		9 5 3 2
	")
}

ee = energy('scf')
oeprop('DIPOLE', 'QUADRUPOLE', 'MULLIKEN_CHARGES')
f=open( 'psi4out.xyz', 'w' )
f.write( "16  " )
f.write( str(ee) + "\n" )
f.write( MOL.save_string_xyz() )
f.close()
--------------------------------------------------------------------------

    Molecular point group: c1

    Geometry (in Angstrom), charge = 0, multiplicity = 1:

       Center              X                  Y                   Z               Mass
    ------------   -----------------  -----------------  -----------------  -----------------
           O         -2.023963114165     0.257063948266     0.911455835521    15.994914619560
           C         -1.110142114165     0.084573948266     0.163616835521    12.000000000000
           C          0.296433885835    -0.137937051734     0.691321835521    12.000000000000
           C         -1.297400114165     0.103368948266    -1.337186164479    12.000000000000
           C          1.328761885835    -0.060338051734    -0.444707164479    12.000000000000
           H          0.369385885835    -1.099641051734     1.191566835521     1.007825032070
           H          0.501771885835     0.638585948266     1.420096835521     1.007825032070
           C          2.759302885835    -0.250598051734     0.055892835521    12.000000000000
           H          1.105941885835    -0.815298051734    -1.195479164479     1.007825032070
           H          1.232744885835     0.903511948266    -0.933495164479     1.007825032070
           H          3.468695885835    -0.185707051734    -0.762790164479     1.007825032070
           H          2.885830885835    -1.220389051734     0.528460835521     1.007825032070
           H          3.022418885835     0.510508948266     0.784269835521     1.007825032070
           H         -0.588896114165     0.780493948266    -1.805367164479     1.007825032070
           H         -2.307376114165     0.402748948266    -1.580200164479     1.007825032070
           H         -1.108036114165    -0.887754051734    -1.740944164479     1.007825032070

  Charge       = 0
  Multiplicity = 1
  Basis Set: 6-31G*
  Basis Set:

    Orbital Energies (a.u.)
    -----------------------

    Doubly Occupied:

       1A    -20.546423     2A    -11.325336     3A    -11.232846
       4A    -11.231739     5A    -11.226872     6A    -11.220642
       7A     -1.392414     8A     -1.090385     9A     -1.007901
      10A     -0.951705    11A     -0.833824    12A     -0.734216
      13A     -0.661163    14A     -0.654622    15A     -0.625542
      16A     -0.595010    17A     -0.576223    18A     -0.557656
      19A     -0.541872    20A     -0.517294    21A     -0.505824
      22A     -0.486755    23A     -0.469771    24A     -0.397504

  @DF-RHF Final Energy:  -270.02264632877268

   => Energetics <=

    Nuclear Repulsion Energy =            238.7671933857970714
    One-Electron Energy =                -838.8126732011261311
    Two-Electron Energy =                 330.0228334865555553
    DFT Exchange-Correlation Energy =       0.0000000000000000
    Empirical Dispersion Energy =           0.0000000000000000
    PCM Polarization Energy =               0.0000000000000000
    EFP Energy =                            0.0000000000000000
    Total Energy =                       -270.0226463287734759

  Mulliken Charges: (a.u.)
   Center  Symbol    Alpha    Beta     Spin     Total
       1     O     4.26277  4.26277  0.00000 -0.52554
       2     C     2.73543  2.73543  0.00000  0.52913
       3     C     3.19996  3.19996  0.00000 -0.39993
       4     C     3.29571  3.29571  0.00000 -0.59142
       5     C     3.16968  3.16968  0.00000 -0.33936
       6     H     0.40061  0.40061  0.00000  0.19878
       7     H     0.39940  0.39940  0.00000  0.20121
       8     C     3.23815  3.23815  0.00000 -0.47629
       9     H     0.41775  0.41775  0.00000  0.16449
      10     H     0.41786  0.41786  0.00000  0.16427
      11     H     0.41639  0.41639  0.00000  0.16721
      12     H     0.41953  0.41953  0.00000  0.16093
      13     H     0.41890  0.41890  0.00000  0.16219
      14     H     0.40677  0.40677  0.00000  0.18645
      15     H     0.39507  0.39507  0.00000  0.20986
      16     H     0.40599  0.40599  0.00000  0.18801

   Total alpha = 24.00000, Total beta = 24.00000, Total charge = -0.00000
