  ==> Input File <==

--------------------------------------------------------------------------
set {
	reference rhf
	basis cc-pvtz
}

set_num_threads( 4 )
memory 2 gb

molecule MOL {
0 1

H	 -0.939693	 0.000281	 1.681345
O	 -0.046262	 -0.000157	 1.387678
C	 -0.000837	 0.000006	 -0.025491
C	 0.939707	 -1.103020	 -0.507009
C	 -1.408013	 -0.207103	 -0.582364
C	 0.535043	 1.371703	 -0.412102
H	 1.023170	 -1.104325	 -1.587669
H	 0.575804	 -2.079507	 -0.201853
H	 1.927280	 -0.964607	 -0.085104
H	 -1.410494	 -0.175549	 -1.665778
H	 -1.804221	 -1.171284	 -0.278313
H	 -2.074478	 0.562467	 -0.213515
H	 0.606765	 1.469177	 -1.488969
H	 1.518351	 1.523680	 0.014769
H	 -0.119423	 2.148709	 -0.037733

	symmetry c1
}
set optking {
	frozen_dihedral = ("
		4 3 2 1
	")
}

ee = optimize('scf')
oeprop('DIPOLE', 'QUADRUPOLE', 'MULLIKEN_CHARGES')
f=open( 'psi4out.xyz', 'w' )
f.write( "15  " )
f.write( str(ee) + "\n" )
f.write( MOL.save_string_xyz() )
f.close()
--------------------------------------------------------------------------

    Molecular point group: c1
  Charge       = 0
  Multiplicity = 1
  Basis Set: CC-PVTZ
  Basis Set:
  @DF-RHF Final Energy:  -232.24395847796762
    Total Energy =                       -232.2439584779674533
    Molecular point group: c1
  Basis Set: CC-PVTZ
  Basis Set:
  Basis Set: CC-PVTZ
  Basis Set:
  @DF-RHF Final Energy:  -232.24469542828854
    Total Energy =                       -232.2446954282889351
  Basis Set: CC-PVTZ
  Basis Set:
  Basis Set: CC-PVTZ
  Basis Set:
  @DF-RHF Final Energy:  -232.24485040154605
    Total Energy =                       -232.2448504015462731
  Basis Set: CC-PVTZ
  Basis Set:
  Basis Set: CC-PVTZ
  Basis Set:
  @DF-RHF Final Energy:  -232.24484926976908
    Total Energy =                       -232.2448492697690199
  Basis Set: CC-PVTZ
  Basis Set:
  Basis Set: CC-PVTZ
  Basis Set:
  @DF-RHF Final Energy:  -232.24485511948473
    Total Energy =                       -232.2448551194847823
  Basis Set: CC-PVTZ
  Basis Set:
  Charge       = 0
  Multiplicity = 1
  Basis Set: CC-PVTZ
  Basis Set:

    Orbital Energies (a.u.)
    -----------------------

    Doubly Occupied:

       1A    -20.540327     2A    -11.281125     3A    -11.216092
       4A    -11.203701     5A    -11.203302     6A     -1.362865
       7A     -1.065746     8A     -0.946138     9A     -0.936861
      10A     -0.778593    11A     -0.671866    12A     -0.624577
      13A     -0.622890    14A     -0.576416    15A     -0.557474
      16A     -0.534661    17A     -0.517072    18A     -0.511314
      19A     -0.503339    20A     -0.458085    21A     -0.426765

  @DF-RHF Final Energy:  -232.24485506997854

   => Energetics <=

    Nuclear Repulsion Energy =            200.5795891238166746
    One-Electron Energy =                -712.5704666649637602
    Two-Electron Energy =                 279.7460224711683736
    DFT Exchange-Correlation Energy =       0.0000000000000000
    Empirical Dispersion Energy =           0.0000000000000000
    PCM Polarization Energy =               0.0000000000000000
    EFP Energy =                            0.0000000000000000
    Total Energy =                       -232.2448550699787120
    Molecular point group: c1
  Basis Set: CC-PVTZ
  Basis Set:

  -Total Gradient:
     Atom            X                  Y                   Z
    ------   -----------------  -----------------  -----------------
       1       -0.000024484123    -0.000942874874    -0.000046511087
       2       -0.000103548470     0.001050374932     0.000014429748
       3        0.000562027576     0.000277497556     0.000034312240
       4       -0.000435660626    -0.000360748935    -0.000055623559
       5        0.000007159683    -0.000041970633     0.000016252232
       6        0.000005807881    -0.000008225933     0.000033942779
       7       -0.000005112507    -0.000010633609     0.000009269689
       8       -0.000001366384    -0.000003775534     0.000001984456
       9        0.000005692099     0.000017205271    -0.000000109145
      10        0.000001246292    -0.000008953691    -0.000013011368
      11       -0.000023760366     0.000023790574     0.000011480138
      12        0.000016402741     0.000011399220    -0.000009791297
      13       -0.000000055542    -0.000005490056     0.000000637925
      14       -0.000003628734     0.000012678825     0.000003222076
      15       -0.000000719518    -0.000010273113    -0.000000484825

  **** Optimization is complete! (in 6 steps) ****
    Final optimized geometry and variables:
    Molecular point group: c1

    Geometry (in Angstrom), charge = 0, multiplicity = 1:

    H           -0.902949176404    -0.061641357478     1.710689924351
    O           -0.020687158763    -0.056430912995     1.391387310475
    C            0.003420574909     0.003067761203    -0.024947600892
    C            0.938404241526    -1.104741404767    -0.498146813950
    C           -1.402387264185    -0.209534740664    -0.579567116043
    C            0.540652116735     1.373216512698    -0.428665381101
    H            1.048887915155    -1.090517391879    -1.576567882265
    H            0.555166451925    -2.073634799247    -0.202303455051
    H            1.917003290904    -0.980320145984    -0.051500002240
    H           -1.401426324700    -0.182500817026    -1.662135911841
    H           -1.795113015727    -1.171344274790    -0.267904383857
    H           -2.075527244644     0.566910655040    -0.229362369146
    H            0.627692519772     1.460659425763    -1.505990869837
    H            1.518114027557     1.531905731108     0.009188328693
    H           -0.117142189916     2.157762351915    -0.073192501184

  Mulliken Charges: (a.u.)
   Center  Symbol    Alpha    Beta     Spin     Total
       1     H     0.39193  0.39193  0.00000  0.21615
       2     O     4.21523  4.21523  0.00000 -0.43046
       3     C     2.88039  2.88039  0.00000  0.23923
       4     C     3.13948  3.13948  0.00000 -0.27897
       5     C     3.16291  3.16291  0.00000 -0.32581
       6     C     3.14030  3.14030  0.00000 -0.28061
       7     H     0.45959  0.45959  0.00000  0.08082
       8     H     0.45286  0.45286  0.00000  0.09427
       9     H     0.44766  0.44766  0.00000  0.10467
      10     H     0.45047  0.45047  0.00000  0.09905
      11     H     0.44706  0.44706  0.00000  0.10588
      12     H     0.45045  0.45045  0.00000  0.09911
      13     H     0.45927  0.45927  0.00000  0.08147
      14     H     0.44813  0.44813  0.00000  0.10373
      15     H     0.45427  0.45427  0.00000  0.09146

   Total alpha = 21.00000, Total beta = 21.00000, Total charge = -0.00000
