  ==> Input File <==

--------------------------------------------------------------------------
set {
	reference rhf
	basis 6-31G*
}

set_num_threads( 4 )
memory 2 gb

molecule MOL {
0 1

O	 2.862325	 1.357334	 0.000267
C	 2.843464	 0.164689	 -0.000222
C	 1.546494	 -0.624492	 -0.000609
C	 4.124123	 -0.644674	 -0.000428
C	 0.291004	 0.242674	 0.000989
H	 1.557904	 -1.283758	 -0.867573
H	 1.558622	 -1.285963	 0.864672
C	 -0.994322	 -0.586602	 0.000262
H	 0.309117	 0.896430	 -0.865270
H	 0.309661	 0.894078	 0.869017
C	 -2.259874	 0.272531	 0.000494
H	 -1.004862	 -1.240012	 -0.870939
H	 -1.005220	 -1.241071	 0.870675
C	 -3.310941	 -0.197642	 -1.006586
H	 -1.992981	 1.305680	 -0.214891
H	 -2.693890	 0.272837	 0.998806
C	 -4.572054	 0.665632	 -1.000600
H	 -2.878619	 -0.197231	 -2.005045
H	 -3.579648	 -1.229795	 -0.791377
H	 -4.341226	 1.698424	 -1.245973
H	 -5.297555	 0.307991	 -1.724784
H	 -5.047881	 0.657630	 -0.024040
H	 4.165367	 -1.288615	 -0.874074
H	 4.976217	 0.020734	 -0.001915
H	 4.166763	 -1.286207	 0.874930

	symmetry c1
}
set optking {
	frozen_dihedral = ("
		15 11 8 12
	")
}

ee = optimize('scf')
oeprop('DIPOLE', 'QUADRUPOLE', 'MULLIKEN_CHARGES')
f=open( 'psi4out.xyz', 'w' )
f.write( "25  " )
f.write( str(ee) + "\n" )
f.write( MOL.save_string_xyz() )
f.close()
--------------------------------------------------------------------------

    Molecular point group: c1
  Charge       = 0
  Multiplicity = 1
  Basis Set: 6-31G*
  Basis Set:
  @DF-RHF Final Energy:  -387.13170934072002
    Total Energy =                       -387.1317093407196808
    Molecular point group: c1
  Basis Set: 6-31G*
  Basis Set:
  Basis Set: 6-31G*
  Basis Set:
  @DF-RHF Final Energy:  -387.13194008028444
    Total Energy =                       -387.1319400802844939
  Basis Set: 6-31G*
  Basis Set:
  Basis Set: 6-31G*
  Basis Set:
  @DF-RHF Final Energy:  -387.13201295515557
    Total Energy =                       -387.1320129551555738
  Basis Set: 6-31G*
  Basis Set:
  Basis Set: 6-31G*
  Basis Set:
  @DF-RHF Final Energy:  -387.13201579207384
    Total Energy =                       -387.1320157920737302
  Basis Set: 6-31G*
  Basis Set:
  Basis Set: 6-31G*
  Basis Set:
  @DF-RHF Final Energy:  -387.13201924254389
    Total Energy =                       -387.1320192425437199
  Basis Set: 6-31G*
  Basis Set:
  Basis Set: 6-31G*
  Basis Set:
  @DF-RHF Final Energy:  -387.13202035087340
    Total Energy =                       -387.1320203508734039
  Basis Set: 6-31G*
  Basis Set:
  Charge       = 0
  Multiplicity = 1
  Basis Set: 6-31G*
  Basis Set:

    Orbital Energies (a.u.)
    -----------------------

    Doubly Occupied:

       1A    -20.550503     2A    -11.326377     3A    -11.231762
       4A    -11.228367     5A    -11.217361     6A    -11.216374
       7A    -11.215683     8A    -11.213148     9A    -11.208036
      10A     -1.395816    11A     -1.092167    12A     -1.055953
      13A     -1.014294    14A     -0.968149    15A     -0.890992
      16A     -0.816290    17A     -0.790569    18A     -0.730288
      19A     -0.655708    20A     -0.652010    21A     -0.633125
      22A     -0.621705    23A     -0.599192    24A     -0.582694
      25A     -0.565868    26A     -0.562003    27A     -0.538499
      28A     -0.529538    29A     -0.510056    30A     -0.489457
      31A     -0.486916    32A     -0.477759    33A     -0.464849
      34A     -0.454684    35A     -0.449656    36A     -0.399461

  @DF-RHF Final Energy:  -387.13202061694250

   => Energetics <=

    Nuclear Repulsion Energy =            438.8922506536994774
    One-Electron Energy =               -1394.3779205495493443
    Two-Electron Energy =                 568.3536492789075965
    DFT Exchange-Correlation Energy =       0.0000000000000000
    Empirical Dispersion Energy =           0.0000000000000000
    PCM Polarization Energy =               0.0000000000000000
    EFP Energy =                            0.0000000000000000
    Total Energy =                       -387.1320206169423273
    Molecular point group: c1
  Basis Set: 6-31G*
  Basis Set:

  -Total Gradient:
     Atom            X                  Y                   Z
    ------   -----------------  -----------------  -----------------
       1        0.000000657509    -0.000001459752    -0.000006988067
       2       -0.000000219244     0.000001505827     0.000020391968
       3       -0.000004140845    -0.000001291618    -0.000016783083
       4        0.000000259682     0.000000145375    -0.000005804139
       5       -0.000002305627     0.000010548186    -0.000008236529
       6       -0.000001305930    -0.000005090444     0.000000630984
       7        0.000001991466     0.000005197843     0.000000914348
       8        0.001910093384     0.002862912957    -0.001335839862
       9        0.000005531449     0.000004531257     0.000007680544
      10       -0.000001189288    -0.000002069276     0.000006091404
      11       -0.000837474817    -0.001199891722    -0.003399102209
      12       -0.001472758681    -0.002198735727     0.001671310729
      13       -0.000013370836    -0.000000924574     0.000004407423
      14        0.000005557254    -0.000003756036    -0.000011822030
      15        0.000401059779     0.000537874541     0.003060874568
      16        0.000009940393    -0.000004567779     0.000008954195
      17        0.000005317276     0.000004044953    -0.000000371787
      18       -0.000005070913    -0.000008935934    -0.000001215701
      19       -0.000003170623     0.000000111111     0.000005785201
      20       -0.000000516961     0.000001674030     0.000002427193
      21        0.000002335081     0.000001116764    -0.000001369135
      22       -0.000001322595    -0.000003040198    -0.000000934878
      23        0.000001742786    -0.000000419170    -0.000000308532
      24        0.000000200654    -0.000000048224    -0.000000238593
      25       -0.000001840357     0.000000567608    -0.000000454014

  **** Optimization is complete! (in 7 steps) ****
    Final optimized geometry and variables:
    Molecular point group: c1

    Geometry (in Angstrom), charge = 0, multiplicity = 1:

    O            2.828354081374     1.270834817328     0.231563712710
    C            2.803497128835     0.078349743834     0.242364370629
    C            1.502705404497    -0.704412877911     0.226603625322
    C            4.079809112602    -0.737234720759     0.272655420515
    C            0.252267326120     0.168857645197     0.198695365134
    H            1.525332210530    -1.371412280018    -0.634308381439
    H            1.496422299109    -1.358272156763     1.097697097694
    C           -1.037539421146    -0.652011257044     0.175811028091
    H            0.289289991650     0.818501902398    -0.670050711018
    H            0.255444987666     0.824718255804     1.063826654816
    C           -2.316341937092     0.210536536963     0.188893610110
    H           -1.045367078559    -1.307427909966    -0.693273410153
    H           -1.049120929148    -1.322773364141     1.032718758225
    C           -3.395905728804    -0.270130159012    -0.781606709989
    H           -2.064059655691     1.246741756994    -0.026282220510
    H           -2.729103388636     0.225184576800     1.195334033986
    C           -4.669572464578     0.571643999290    -0.724662470099
    H           -2.997950801900    -0.257021001628    -1.794185488592
    H           -3.638239386747    -1.308361894036    -0.563243028824
    H           -4.463585485283     1.610374981462    -0.967192618564
    H           -5.413045808490     0.209007739836    -1.427820421842
    H           -5.112260057695     0.546512329704     0.267131234216
    H            4.133032008984    -1.390082293904    -0.593701127397
    H            4.935187507918    -0.076097538426     0.279510194996
    H            4.103841845343    -1.370178709907     1.154954063106

  Mulliken Charges: (a.u.)
   Center  Symbol    Alpha    Beta     Spin     Total
       1     O     4.26118  4.26118  0.00000 -0.52236
       2     C     2.73565  2.73565  0.00000  0.52870
       3     C     3.21146  3.21146  0.00000 -0.42292
       4     C     3.28666  3.28666  0.00000 -0.57332
       5     C     3.14973  3.14973  0.00000 -0.29946
       6     H     0.40983  0.40983  0.00000  0.18033
       7     H     0.40997  0.40997  0.00000  0.18006
       8     C     3.15665  3.15665  0.00000 -0.31330
       9     H     0.41181  0.41181  0.00000  0.17637
      10     H     0.41175  0.41175  0.00000  0.17650
      11     C     3.15385  3.15385  0.00000 -0.30769
      12     H     0.42269  0.42269  0.00000  0.15463
      13     H     0.42310  0.42310  0.00000  0.15380
      14     C     3.15294  3.15294  0.00000 -0.30587
      15     H     0.41889  0.41889  0.00000  0.16222
      16     H     0.42172  0.42172  0.00000  0.15656
      17     C     3.24016  3.24016  0.00000 -0.48032
      18     H     0.42287  0.42287  0.00000  0.15425
      19     H     0.42325  0.42325  0.00000  0.15350
      20     H     0.42083  0.42083  0.00000  0.15834
      21     H     0.41944  0.41944  0.00000  0.16112
      22     H     0.42169  0.42169  0.00000  0.15662
      23     H     0.40873  0.40873  0.00000  0.18253
      24     H     0.39646  0.39646  0.00000  0.20708
      25     H     0.40869  0.40869  0.00000  0.18262

   Total alpha = 36.00000, Total beta = 36.00000, Total charge =  0.00000
