  ==> Input File <==

--------------------------------------------------------------------------
set {
	reference rhf
	basis 6-31G*
}

set_num_threads( 1 )
memory 2 gb

molecule MOL {
0 1

O	 1.214711	 1.306902	 -0.000018
C	 1.122059	 0.121804	 -0.000188
C	 -0.170150	 -0.657997	 -0.000612
O	 2.172624	 -0.688929	 0.000216
C	 -1.412532	 0.227344	 -0.000452
H	 -0.153702	 -1.313099	 -0.867402
H	 -0.153924	 -1.313811	 0.865644
C	 -2.640007	 -0.493440	 0.559138
H	 -1.613017	 0.563731	 -1.012951
H	 -1.214576	 1.122513	 0.580917
C	 -3.889051	 0.386826	 0.564149
H	 -2.833416	 -1.389957	 -0.026460
H	 -2.432795	 -0.830621	 1.572767
H	 -4.142588	 0.712334	 -0.440548
H	 -4.744434	 -0.147810	 0.965097
H	 -3.739320	 1.275335	 1.170592
C	 3.452279	 -0.082609	 0.000533
H	 3.583069	 0.529321	 -0.880332
H	 4.163299	 -0.894027	 0.001117
H	 3.582335	 0.529955	 0.881077

	symmetry c1
}
set optking {
	frozen_dihedral = ("
		9 5 8 12,
		1 2 3 6,
		1 2 4 17
	")
}

ee = energy('scf')
oeprop('DIPOLE', 'QUADRUPOLE', 'MULLIKEN_CHARGES')
f=open( 'psi4out.xyz', 'w' )
f.write( "20  " )
f.write( str(ee) + "\n" )
f.write( MOL.save_string_xyz() )
f.close()
--------------------------------------------------------------------------

    Molecular point group: c1

    Geometry (in Angstrom), charge = 0, multiplicity = 1:

       Center              X                  Y                   Z               Mass
    ------------   -----------------  -----------------  -----------------  -----------------
           O          1.197858116368     1.283277857497    -0.140481143408    15.994914619560
           C          1.105206116368     0.098179857497    -0.140651143408    12.000000000000
           C         -0.187002883632    -0.681621142503    -0.141075143408    12.000000000000
           O          2.155771116368    -0.712553142503    -0.140247143408    15.994914619560
           C         -1.429384883632     0.203719857497    -0.140915143408    12.000000000000
           H         -0.170554883632    -1.336723142503    -1.007865143408     1.007825032070
           H         -0.170776883632    -1.337435142503     0.725180856592     1.007825032070
           C         -2.656859883632    -0.517064142503     0.418674856592    12.000000000000
           H         -1.629869883632     0.540106857497    -1.153414143408     1.007825032070
           H         -1.231428883632     1.098888857497     0.440453856592     1.007825032070
           C         -3.905903883632     0.363201857497     0.423685856592    12.000000000000
           H         -2.850268883632    -1.413581142503    -0.166923143408     1.007825032070
           H         -2.449647883632    -0.854245142503     1.432303856592     1.007825032070
           H         -4.159440883632     0.688709857497    -0.581011143408     1.007825032070
           H         -4.761286883632    -0.171434142503     0.824633856592     1.007825032070
           H         -3.756172883632     1.251710857497     1.030128856592     1.007825032070
           C          3.435426116368    -0.106233142503    -0.139930143408    12.000000000000
           H          3.566216116368     0.505696857497    -1.020795143408     1.007825032070
           H          4.146446116368    -0.917651142503    -0.139346143408     1.007825032070
           H          3.565482116368     0.506330857497     0.740613856592     1.007825032070

  Charge       = 0
  Multiplicity = 1
  Basis Set: 6-31G*
  Basis Set:

    Orbital Energies (a.u.)
    -----------------------

    Doubly Occupied:

       1A    -20.603986     2A    -20.545844     3A    -11.372660
       4A    -11.281059     5A    -11.235204     6A    -11.219890
       7A    -11.217933     8A    -11.210164     9A     -1.469701
      10A     -1.363267    11A     -1.088386    12A     -1.024150
      13A     -0.969085    14A     -0.885504    15A     -0.804175
      16A     -0.767481    17A     -0.698572    18A     -0.682974
      19A     -0.672410    20A     -0.643919    21A     -0.598448
      22A     -0.592239    23A     -0.578883    24A     -0.542474
      25A     -0.533255    26A     -0.522340    27A     -0.501696
      28A     -0.478471    29A     -0.471213    30A     -0.468865
      31A     -0.456260    32A     -0.437855

  @DF-RHF Final Energy:  -383.93994825384209

   => Energetics <=

    Nuclear Repulsion Energy =            381.5115856274641146
    One-Electron Energy =               -1279.0264642945617197
    Two-Electron Energy =                 513.5749304132561974
    DFT Exchange-Correlation Energy =       0.0000000000000000
    Empirical Dispersion Energy =           0.0000000000000000
    PCM Polarization Energy =               0.0000000000000000
    EFP Energy =                            0.0000000000000000
    Total Energy =                       -383.9399482538414077

  Mulliken Charges: (a.u.)
   Center  Symbol    Alpha    Beta     Spin     Total
       1     O     4.28537  4.28537  0.00000 -0.57074
       2     C     2.60764  2.60764  0.00000  0.78473
       3     C     3.20886  3.20886  0.00000 -0.41773
       4     O     4.30659  4.30659  0.00000 -0.61318
       5     C     3.15413  3.15413  0.00000 -0.30826
       6     H     0.39926  0.39926  0.00000  0.20147
       7     H     0.40024  0.40024  0.00000  0.19952
       8     C     3.15515  3.15515  0.00000 -0.31029
       9     H     0.41638  0.41638  0.00000  0.16724
      10     H     0.40337  0.40337  0.00000  0.19326
      11     C     3.23961  3.23961  0.00000 -0.47922
      12     H     0.42337  0.42337  0.00000  0.15327
      13     H     0.42232  0.42232  0.00000  0.15535
      14     H     0.42061  0.42061  0.00000  0.15879
      15     H     0.41886  0.41886  0.00000  0.16228
      16     H     0.41940  0.41940  0.00000  0.16121
      17     C     3.09238  3.09238  0.00000 -0.18475
      18     H     0.40901  0.40901  0.00000  0.18197
      19     H     0.40840  0.40840  0.00000  0.18321
      20     H     0.40906  0.40906  0.00000  0.18188

   Total alpha = 32.00000, Total beta = 32.00000, Total charge = -0.00000
