  ==> Input File <==

--------------------------------------------------------------------------
set {
	reference rhf
	basis 6-31G*
}

set_num_threads( 4 )
memory 2 gb

molecule MOL {
0 1

H	 -4.031818	 -0.453427	 -0.000094
C	 -2.967712	 -0.297022	 -0.000064
C	 -2.458620	 0.992929	 0.000032
C	 -2.109895	 -1.385637	 -0.000122
H	 -3.124998	 1.836319	 0.000077
C	 -1.090278	 1.193236	 0.000070
H	 -2.506361	 -2.384847	 -0.000198
C	 -0.739812	 -1.187531	 -0.000085
H	 -0.678594	 2.184290	 0.000146
C	 -0.226438	 0.104061	 0.000012
H	 -0.072310	 -2.027032	 -0.000131
C	 1.239129	 0.373821	 0.000060
O	 1.674248	 0.877792	 -1.145055
O	 1.954831	 0.161943	 0.928358
C	 3.058589	 1.165186	 -1.232677
H	 3.341229	 1.895312	 -0.488482
H	 3.214309	 1.560534	 -2.224294
H	 3.641271	 0.266741	 -1.090559

	symmetry c1
}
set optking {
	frozen_dihedral = ("
		13 12 10 6
	")
}

ee = optimize('scf')
oeprop('DIPOLE', 'QUADRUPOLE', 'MULLIKEN_CHARGES')
f=open( 'psi4out.xyz', 'w' )
f.write( "18  " )
f.write( str(ee) + "\n" )
f.write( MOL.save_string_xyz() )
f.close()
--------------------------------------------------------------------------

    Molecular point group: c1
  Charge       = 0
  Multiplicity = 1
  Basis Set: 6-31G*
  Basis Set:
  @DF-RHF Final Energy:  -457.33929729892293
    Total Energy =                       -457.3392972989227019
    Molecular point group: c1
  Basis Set: 6-31G*
  Basis Set:
  Basis Set: 6-31G*
  Basis Set:
  @DF-RHF Final Energy:  -457.33999046981927
    Total Energy =                       -457.3399904698192131
  Basis Set: 6-31G*
  Basis Set:
  Basis Set: 6-31G*
  Basis Set:
  @DF-RHF Final Energy:  -457.34020419841329
    Total Energy =                       -457.3402041984137441
  Basis Set: 6-31G*
  Basis Set:
  Basis Set: 6-31G*
  Basis Set:
  @DF-RHF Final Energy:  -457.34028679785104
    Total Energy =                       -457.3402867978506947
  Basis Set: 6-31G*
  Basis Set:
  Basis Set: 6-31G*
  Basis Set:
  @DF-RHF Final Energy:  -457.34029713528838
    Total Energy =                       -457.3402971352886652
  Basis Set: 6-31G*
  Basis Set:
  Charge       = 0
  Multiplicity = 1
  Basis Set: 6-31G*
  Basis Set:

    Orbital Energies (a.u.)
    -----------------------

    Doubly Occupied:

       1A    -20.609813     2A    -20.550333     3A    -11.380342
       4A    -11.283609     5A    -11.250664     6A    -11.244408
       7A    -11.243243     8A    -11.240890     9A    -11.239347
      10A    -11.238753    11A     -1.475205    12A     -1.367886
      13A     -1.166395    14A     -1.048566    15A     -1.025615
      16A     -0.979988    17A     -0.859670    18A     -0.837880
      19A     -0.780243    20A     -0.737556    21A     -0.684926
      22A     -0.679802    23A     -0.676431    24A     -0.630432
      25A     -0.629627    26A     -0.597140    27A     -0.590938
      28A     -0.549675    29A     -0.536029    30A     -0.517437
      31A     -0.506486    32A     -0.501879    33A     -0.459539
      34A     -0.445264    35A     -0.342602    36A     -0.342017

  @DF-RHF Final Energy:  -457.34029759541085

   => Energetics <=

    Nuclear Repulsion Energy =            491.6261496425261726
    One-Electron Energy =               -1597.4316375019377574
    Two-Electron Energy =                 648.4651902640015351
    DFT Exchange-Correlation Energy =       0.0000000000000000
    Empirical Dispersion Energy =           0.0000000000000000
    PCM Polarization Energy =               0.0000000000000000
    EFP Energy =                            0.0000000000000000
    Total Energy =                       -457.3402975954101066
    Molecular point group: c1
  Basis Set: 6-31G*
  Basis Set:

  -Total Gradient:
     Atom            X                  Y                   Z
    ------   -----------------  -----------------  -----------------
       1       -0.000001860767     0.000005727618     0.000010695789
       2        0.000021847122    -0.000121471103    -0.000053444297
       3        0.000093087583     0.000067833896     0.000054109234
       4       -0.000118458874     0.000040019107    -0.000002726317
       5       -0.000004222091    -0.000006152586     0.000000141891
       6       -0.000223369867    -0.000152323344     0.004835710513
       7        0.000006739333    -0.000001031320     0.000009732429
       8        0.000080847528     0.000072458589    -0.000008954826
       9        0.000013269696    -0.000007328589     0.000005437530
      10        0.000439363406    -0.001274389411    -0.007729751372
      11       -0.000010853238    -0.000002747264    -0.000001611712
      12       -0.001027933069     0.005743344615     0.004718332738
      13        0.000747739013    -0.004394673436    -0.001820520883
      14       -0.000005219784     0.000003778206    -0.000034042967
      15       -0.000019904663     0.000033153168     0.000019079501
      16        0.000015390296     0.000001645377    -0.000005780823
      17        0.000007133434     0.000000700775    -0.000000075089
      18       -0.000013595059    -0.000008544299     0.000003668658

  **** Optimization is complete! (in 6 steps) ****
    Final optimized geometry and variables:
    Molecular point group: c1

    Geometry (in Angstrom), charge = 0, multiplicity = 1:

    H           -3.990977774675    -0.706383679681     0.231797342651
    C           -2.930404331670    -0.532385395492     0.199573280662
    C           -2.441479888064     0.764006406266     0.177212133992
    C           -2.052264889505    -1.604234797612     0.189214508023
    H           -3.120335307246     1.597325975965     0.197920615651
    C           -1.076154578457     0.989245106728     0.128426192448
    H           -2.428872178683    -2.610785942604     0.215614665243
    C           -0.685991418656    -1.381264866241     0.160393499297
    H           -0.696676328099     1.994886838897     0.101878919441
    C           -0.197794968448    -0.084174668697     0.105577888191
    H           -0.001665019663    -2.209795080436     0.181821748288
    C            1.281955654585     0.141721125874     0.148661208567
    O            1.739376327064     0.677264073697    -0.971912378881
    O            1.977762985716    -0.165022903105     1.061654368686
    C            3.131978254171     0.934232849580    -1.037802185542
    H            3.429702174420     1.618944566563    -0.256773901467
    H            3.303620702647     1.373509006843    -2.007826017994
    H            3.690303376266     0.014902241220    -0.937143117553

  Mulliken Charges: (a.u.)
   Center  Symbol    Alpha    Beta     Spin     Total
       1     H     0.39633  0.39633  0.00000  0.20733
       2     C     3.09622  3.09622  0.00000 -0.19245
       3     C     3.10073  3.10073  0.00000 -0.20146
       4     C     3.10140  3.10140  0.00000 -0.20281
       5     H     0.39602  0.39602  0.00000  0.20797
       6     C     3.09535  3.09535  0.00000 -0.19071
       7     H     0.39568  0.39568  0.00000  0.20864
       8     C     3.09688  3.09688  0.00000 -0.19375
       9     H     0.39090  0.39090  0.00000  0.21820
      10     C     3.01477  3.01477  0.00000 -0.02954
      11     H     0.38818  0.38818  0.00000  0.22364
      12     C     2.63739  2.63739  0.00000  0.72522
      13     O     4.29667  4.29667  0.00000 -0.59334
      14     O     4.27665  4.27665  0.00000 -0.55330
      15     C     3.09418  3.09418  0.00000 -0.18837
      16     H     0.40858  0.40858  0.00000  0.18284
      17     H     0.40648  0.40648  0.00000  0.18704
      18     H     0.40757  0.40757  0.00000  0.18486

   Total alpha = 36.00000, Total beta = 36.00000, Total charge =  0.00000
