  ==> Input File <==

--------------------------------------------------------------------------
set {
	reference rhf
	basis 6-31G*
}

set_num_threads( 4 )
memory 2 gb

molecule MOL {
0 1

H	 2.888919	 1.440352	 1.268077
O	 3.619070	 1.150872	 0.740675
C	 3.699616	 -0.251468	 0.772410
C	 2.602404	 -0.935051	 -0.036025
H	 4.668027	 -0.500096	 0.357635
H	 3.686676	 -0.610723	 1.800781
C	 1.189464	 -0.686097	 0.497352
H	 2.669210	 -0.593624	 -1.065749
H	 2.803027	 -2.005130	 -0.042923
C	 0.115918	 -1.429151	 -0.302766
H	 0.983242	 0.380422	 0.477970
H	 1.136351	 -0.996982	 1.540841
C	 -1.309753	 -1.282496	 0.241564
H	 0.142624	 -1.091542	 -1.337248
H	 0.369531	 -2.486966	 -0.322991
C	 -2.037799	 -0.007733	 -0.193645
H	 -1.890610	 -2.142323	 -0.085726
H	 -1.285946	 -1.330893	 1.329189
C	 -3.489788	 0.042957	 0.286558
H	 -2.017067	 0.064384	 -1.280144
H	 -1.513726	 0.868678	 0.179924
C	 -4.216917	 1.317354	 -0.141063
H	 -4.025645	 -0.823308	 -0.095450
H	 -3.513059	 -0.038752	 1.371301
H	 -4.239342	 1.411634	 -1.223113
H	 -5.243387	 1.322503	 0.212445
H	 -3.726170	 2.201406	 0.256408

	symmetry c1
}
set optking {
	frozen_dihedral = ("
		14 10 13 16
	")
}

ee = optimize('scf')
oeprop('DIPOLE', 'QUADRUPOLE', 'MULLIKEN_CHARGES')
f=open( 'psi4out.xyz', 'w' )
f.write( "27  " )
f.write( str(ee) + "\n" )
f.write( MOL.save_string_xyz() )
f.close()
--------------------------------------------------------------------------

    Molecular point group: c1
  Charge       = 0
  Multiplicity = 1
  Basis Set: 6-31G*
  Basis Set:
  @DF-RHF Final Energy:  -388.28075544511466
    Total Energy =                       -388.2807554451148917
    Molecular point group: c1
  Basis Set: 6-31G*
  Basis Set:
  Basis Set: 6-31G*
  Basis Set:
  @DF-RHF Final Energy:  -388.28102763896317
    Total Energy =                       -388.2810276389631099
  Basis Set: 6-31G*
  Basis Set:
  Basis Set: 6-31G*
  Basis Set:
  @DF-RHF Final Energy:  -388.28109143495624
    Total Energy =                       -388.2810914349568066
  Basis Set: 6-31G*
  Basis Set:
  Basis Set: 6-31G*
  Basis Set:
  @DF-RHF Final Energy:  -388.28109360093396
    Total Energy =                       -388.2810936009343550
  Basis Set: 6-31G*
  Basis Set:
  Basis Set: 6-31G*
  Basis Set:
  @DF-RHF Final Energy:  -388.28109494463934
    Total Energy =                       -388.2810949446396762
  Basis Set: 6-31G*
  Basis Set:
  Charge       = 0
  Multiplicity = 1
  Basis Set: 6-31G*
  Basis Set:

    Orbital Energies (a.u.)
    -----------------------

    Doubly Occupied:

       1A    -20.552288     2A    -11.267051     3A    -11.219960
       4A    -11.217172     5A    -11.215966     6A    -11.215501
       7A    -11.215178     8A    -11.214305     9A    -11.209204
      10A     -1.359048    11A     -1.094961    12A     -1.061661
      13A     -1.011353    14A     -0.948851    15A     -0.886187
      16A     -0.820214    17A     -0.798394    18A     -0.782787
      19A     -0.693911    20A     -0.647469    21A     -0.642466
      22A     -0.614175    23A     -0.600384    24A     -0.582839
      25A     -0.579598    26A     -0.552366    27A     -0.542971
      28A     -0.528166    29A     -0.505949    30A     -0.492167
      31A     -0.485053    32A     -0.474714    33A     -0.470165
      34A     -0.463116    35A     -0.450869    36A     -0.441894
      37A     -0.422459

  @DF-RHF Final Energy:  -388.28109544700675

   => Energetics <=

    Nuclear Repulsion Energy =            458.8070291209756419
    One-Electron Energy =               -1435.6146207329945810
    Two-Electron Energy =                 588.5264961650124178
    DFT Exchange-Correlation Energy =       0.0000000000000000
    Empirical Dispersion Energy =           0.0000000000000000
    PCM Polarization Energy =               0.0000000000000000
    EFP Energy =                            0.0000000000000000
    Total Energy =                       -388.2810954470065781
    Molecular point group: c1
  Basis Set: 6-31G*
  Basis Set:

  -Total Gradient:
     Atom            X                  Y                   Z
    ------   -----------------  -----------------  -----------------
       1       -0.000003370768    -0.000001532569    -0.000000461671
       2        0.000006389469     0.000009634630     0.000001870786
       3       -0.000009714636     0.000004039226    -0.000008060449
       4       -0.000002066656     0.000014735508    -0.000014831475
       5        0.000001260488     0.000001031303     0.000001383256
       6       -0.000000901018    -0.000001502670    -0.000000774090
       7        0.000015552289     0.000007862933     0.000031160091
       8        0.000008401083    -0.000005357630    -0.000009285290
       9       -0.000004373692     0.000002112821     0.000003803567
      10       -0.000840300682    -0.002777794863    -0.001344481824
      11        0.000028753893    -0.000022642289    -0.000006797648
      12       -0.000014910534    -0.000023352442     0.000011416111
      13        0.000925107815     0.001548129987     0.001960727237
      14        0.000471629597     0.002011263060     0.000699590727
      15       -0.000012002394    -0.000013963066    -0.000008002730
      16       -0.000592810476    -0.000753171191    -0.001316589341
      17        0.000006914501    -0.000012160690     0.000001051468
      18        0.000027946403     0.000008821593    -0.000011475421
      19        0.000012732138     0.000024551623     0.000013946437
      20        0.000007466455     0.000005819165    -0.000022103037
      21       -0.000032425259    -0.000024387979     0.000015569212
      22       -0.000005171015    -0.000009041276    -0.000008411223
      23        0.000006167350     0.000001443648     0.000004356434
      24       -0.000000909188     0.000004893444     0.000007055476
      25        0.000004140812     0.000003847906    -0.000002178522
      26       -0.000001172795    -0.000002671678    -0.000004256698
      27       -0.000002333180    -0.000000608507     0.000005778619

  **** Optimization is complete! (in 6 steps) ****
    Final optimized geometry and variables:
    Molecular point group: c1

    Geometry (in Angstrom), charge = 0, multiplicity = 1:

    H            2.700662770599     1.616256819769     1.147327999378
    O            3.436353084686     1.400112089788     0.593089875682
    C            3.595323035520     0.005135090424     0.540730490051
    C            2.520882452136    -0.691172100778    -0.287168172877
    H            4.567214951616    -0.163606003117     0.095113260804
    H            3.623760056051    -0.413204446351     1.546189475708
    C            1.107509383833    -0.549525672136     0.282304215502
    H            2.549577515079    -0.290576612885    -1.297110045038
    H            2.777864337645    -1.746938863568    -0.357324389582
    C            0.058089722099    -1.318089299922    -0.527545373183
    H            0.836849647359     0.503032075338     0.315280758649
    H            1.094022807716    -0.907934650690     1.311398541895
    C           -1.375040699427    -1.155896365602    -0.000282846359
    H            0.101608698911    -0.979754230089    -1.560825354757
    H            0.326051961378    -2.371679619383    -0.532025912972
    C           -2.066355558027     0.133030202921    -0.453744875312
    H           -1.973081140907    -1.998908881987    -0.339619209781
    H           -1.370923028127    -1.209095139210     1.086943911321
    C           -3.486284075991     0.279136846972     0.096591401941
    H           -2.099510805154     0.152467993643    -1.541646996246
    H           -1.479285889001     0.998399187333    -0.152572563729
    C           -4.182186353826     1.555342438601    -0.375378976729
    H           -4.077583590907    -0.584698706513    -0.199909765804
    H           -3.454051872263     0.267028402095     1.184067630248
    H           -4.260538952807     1.581497792787    -1.458590657054
    H           -5.186394079112     1.629385981133     0.030462201122
    H           -3.633581002005     2.439692261082    -0.063498034766

  Mulliken Charges: (a.u.)
   Center  Symbol    Alpha    Beta     Spin     Total
       1     H     0.27989  0.27989  0.00000  0.44021
       2     O     4.37096  4.37096  0.00000 -0.74192
       3     C     2.99737  2.99737  0.00000  0.00526
       4     C     3.16111  3.16111  0.00000 -0.32221
       5     H     0.41445  0.41445  0.00000  0.17111
       6     H     0.43202  0.43202  0.00000  0.13597
       7     C     3.16297  3.16297  0.00000 -0.32595
       8     H     0.41497  0.41497  0.00000  0.17006
       9     H     0.42434  0.42434  0.00000  0.15133
      10     C     3.15296  3.15296  0.00000 -0.30593
      11     H     0.42392  0.42392  0.00000  0.15216
      12     H     0.42505  0.42505  0.00000  0.14990
      13     C     3.15476  3.15476  0.00000 -0.30951
      14     H     0.42110  0.42110  0.00000  0.15780
      15     H     0.42066  0.42066  0.00000  0.15868
      16     C     3.15203  3.15203  0.00000 -0.30405
      17     H     0.42099  0.42099  0.00000  0.15802
      18     H     0.42384  0.42384  0.00000  0.15232
      19     C     3.15140  3.15140  0.00000 -0.30280
      20     H     0.42302  0.42302  0.00000  0.15397
      21     H     0.42389  0.42389  0.00000  0.15223
      22     C     3.23921  3.23921  0.00000 -0.47842
      23     H     0.42297  0.42297  0.00000  0.15406
      24     H     0.42342  0.42342  0.00000  0.15316
      25     H     0.42147  0.42147  0.00000  0.15707
      26     H     0.41928  0.41928  0.00000  0.16143
      27     H     0.42196  0.42196  0.00000  0.15607

   Total alpha = 37.00000, Total beta = 37.00000, Total charge =  0.00000
