                              Psi4 1.0.54 Driver

  ==> Input File <==

--------------------------------------------------------------------------
set {
	reference rhf
	basis cc-pvtz
}

set_num_threads( 4 )
memory 2 gb

molecule MOL {
0 1

H	 -2.816458	 -0.841657	 -0.064679
N	 -1.878861	 -0.711874	 0.250184
C	 -1.341419	 0.551458	 -0.220231
H	 -1.333674	 -1.468530	 -0.105118
C	 -0.748005	 1.335339	 0.927828
H	 -0.578579	 0.438275	 -0.989521
H	 -2.149615	 1.135126	 -0.647085
O	 0.349840	 0.635672	 1.430730
H	 -0.437250	 2.320027	 0.581428
H	 -1.496817	 1.468115	 1.705375
C	 0.946657	 1.220478	 2.540249
H	 1.778781	 0.598339	 2.836727
H	 1.319503	 2.216848	 2.312374
H	 0.251110	 1.295737	 3.372782

	symmetry c1
}
set optking {
	frozen_dihedral = ("
		6 3 2 4
	")
}

ee,wfn = optimize('scf', return_wfn=True)
oeprop( wfn, 'DIPOLE', 'QUADRUPOLE', 'MULLIKEN_CHARGES')
f=open( 'psi4out.xyz', 'w' )
f.write( "14  " )
f.write( str(ee) + "\n" )
f.write( MOL.save_string_xyz() )
f.close()
--------------------------------------------------------------------------

    Molecular point group: c1
  Charge       = 0
  Multiplicity = 1
  Basis Set: CC-PVTZ
  Basis Set:
  @DF-RHF Final Energy:  -248.22084597296396
    Total Energy =                       -248.2208459729639571
    Molecular point group: c1
  Basis Set: CC-PVTZ
  Basis Set:
  Basis Set: CC-PVTZ
  Basis Set:
  @DF-RHF Final Energy:  -248.21943066754329
    Total Energy =                       -248.2194306675432927
  Basis Set: CC-PVTZ
  Basis Set:
  Basis Set: CC-PVTZ
  Basis Set:
  @DF-RHF Final Energy:  -248.22160750961416
    Total Energy =                       -248.2216075096143868
  Basis Set: CC-PVTZ
  Basis Set:
  Basis Set: CC-PVTZ
  Basis Set:
  @DF-RHF Final Energy:  -248.22163018733906
    Total Energy =                       -248.2216301873390876
  Basis Set: CC-PVTZ
  Basis Set:
  Charge       = 0
  Multiplicity = 1
  Basis Set: CC-PVTZ
  Basis Set:

    Orbital Energies (a.u.)
    -----------------------

    Doubly Occupied:

       1A    -20.543102     2A    -15.525678     3A    -11.257967
       4A    -11.257635     5A    -11.241399     6A     -1.378001
       7A     -1.175133     8A     -0.998830     9A     -0.902732
      10A     -0.813742    11A     -0.682366    12A     -0.672739
      13A     -0.636494    14A     -0.627180    15A     -0.602065
      16A     -0.530339    17A     -0.519145    18A     -0.507397
      19A     -0.470267    20A     -0.413147    21A     -0.383861

  @DF-RHF Final Energy:  -248.22163238744821

   => Energetics <=

    Nuclear Repulsion Energy =            193.6011027154947897
    One-Electron Energy =                -721.3670280400046977
    Two-Electron Energy =                 279.5442929370615275
    DFT Exchange-Correlation Energy =       0.0000000000000000
    Empirical Dispersion Energy =           0.0000000000000000
    PCM Polarization Energy =               0.0000000000000000
    EFP Energy =                            0.0000000000000000
    Total Energy =                       -248.2216323874483805
    Molecular point group: c1
  Basis Set: CC-PVTZ
  Basis Set:

  -Total Gradient:
     Atom            X                  Y                   Z
    ------   -----------------  -----------------  -----------------
       1       -0.000060030083    -0.000002651825    -0.000037165330
       2        0.002463535698    -0.000576638934     0.003611736745
       3       -0.002580353202     0.000860716166    -0.003053541614
       4       -0.001565827594     0.000322101808    -0.002423977153
       5       -0.000038100681     0.000091914462     0.000002495968
       6        0.001783324655    -0.000553972850     0.001890866806
       7        0.000010052191    -0.000053305459     0.000045518355
       8        0.000001640433    -0.000106885018    -0.000076721449
       9       -0.000015083343    -0.000015214079    -0.000011979932
      10       -0.000001055242    -0.000014758713     0.000000156839
      11        0.000008953886     0.000073252204     0.000064007270
      12       -0.000026487658     0.000004616713    -0.000016557430
      13        0.000004280039    -0.000019319213     0.000007530243
      14        0.000015150902    -0.000009855260    -0.000002369315

  **** Optimization is complete! (in 5 steps) ****
    Final optimized geometry and variables:
    Molecular point group: c1

    Geometry (in Angstrom), charge = 0, multiplicity = 1:

    H           -2.448297131313    -1.041595516507    -1.249485090053
    N           -1.517625258752    -1.059934172735    -0.894404069687
    C           -0.821602268710     0.190194788833    -1.176068749373
    H           -1.061929870137    -1.837452274461    -1.318010188791
    C           -0.147797552162     0.746725218755     0.061092707632
    H           -0.050546458056     0.058131752364    -1.928322315236
    H           -1.520062925503     0.931895793565    -1.546977263129
    O            0.925454835623    -0.074272931807     0.398351568762
    H            0.205777258914     1.760184490457    -0.134185704261
    H           -0.864894092339     0.789449226156     0.877966964189
    C            1.552722545281     0.258004341062     1.590768912917
    H            2.367753780062    -0.435179391837     1.741885315580
    H            1.955589559392     1.268877018634     1.563013833480
    H            0.869863225933     0.183791375942     2.433965194998

  Mulliken Charges: (a.u.)
   Center  Symbol    Alpha    Beta     Spin     Total
       1     H     0.42814  0.42814  0.00000  0.14372
       2     N     3.69006  3.69006  0.00000 -0.38012
       3     C     3.04177  3.04177  0.00000 -0.08354
       4     H     0.42569  0.42569  0.00000  0.14862
       5     C     2.95043  2.95043  0.00000  0.09915
       6     H     0.45647  0.45647  0.00000  0.08707
       7     H     0.45665  0.45665  0.00000  0.08670
       8     O     4.17534  4.17534  0.00000 -0.35067
       9     H     0.47601  0.47601  0.00000  0.04799
      10     H     0.47596  0.47596  0.00000  0.04807
      11     C     3.03035  3.03035  0.00000 -0.06070
      12     H     0.44859  0.44859  0.00000  0.10282
      13     H     0.47406  0.47406  0.00000  0.05188
      14     H     0.47049  0.47049  0.00000  0.05902

   Total alpha = 21.00000, Total beta = 21.00000, Total charge =  0.00000

*** Psi4 exiting successfully. Buy a developer a beer!
