  ==> Input File <==

--------------------------------------------------------------------------
set {
	reference rhf
	basis 6-31G*
}

set_num_threads( 4 )
memory 2 gb

molecule MOL {
0 1

O	 1.846825	 1.296220	 0.000415
C	 1.705091	 0.115954	 0.001797
C	 0.381791	 -0.609817	 0.001258
O	 2.721346	 -0.737485	 -0.000216
C	 -0.823008	 0.326187	 0.001381
H	 0.371250	 -1.265087	 -0.865474
H	 0.370908	 -1.265746	 0.867490
C	 -0.937742	 1.124379	 1.300915
H	 -1.726662	 -0.254128	 -0.156205
H	 -0.749094	 1.004360	 -0.842969
C	 -2.141572	 2.067959	 1.318547
H	 -1.007912	 0.438727	 2.144096
H	 -0.027629	 1.702302	 1.454478
C	 -2.254988	 2.866104	 2.616758
H	 -3.051798	 1.491840	 1.167830
H	 -2.072462	 2.754075	 0.477354
H	 -2.360428	 2.207549	 3.474314
H	 -3.117189	 3.525446	 2.598616
H	 -1.373027	 3.479512	 2.778580
C	 4.024888	 -0.184556	 -0.001949
H	 4.179030	 0.422472	 -0.882452
H	 4.701782	 -1.024608	 -0.003642
H	 4.181981	 0.421185	 0.878906

	symmetry c1
}
set optking {
	frozen_dihedral = ("
		9 5 3 6
	")
}

ee = optimize('scf')
oeprop('DIPOLE', 'QUADRUPOLE', 'MULLIKEN_CHARGES')
f=open( 'psi4out.xyz', 'w' )
f.write( "23  " )
f.write( str(ee) + "\n" )
f.write( MOL.save_string_xyz() )
f.close()
--------------------------------------------------------------------------

    Molecular point group: c1
  Charge       = 0
  Multiplicity = 1
  Basis Set: 6-31G*
  Basis Set:
  @DF-RHF Final Energy:  -422.97486534365299
    Total Energy =                       -422.9748653436533914
    Molecular point group: c1
  Basis Set: 6-31G*
  Basis Set:
  Basis Set: 6-31G*
  Basis Set:
  @DF-RHF Final Energy:  -422.97565570913241
    Total Energy =                       -422.9756557091318427
  Basis Set: 6-31G*
  Basis Set:
  Basis Set: 6-31G*
  Basis Set:
  @DF-RHF Final Energy:  -422.97566994169301
    Total Energy =                       -422.9756699416927859
  Basis Set: 6-31G*
  Basis Set:
  Basis Set: 6-31G*
  Basis Set:
  @DF-RHF Final Energy:  -422.97559029999195
    Total Energy =                       -422.9755902999918362
  Basis Set: 6-31G*
  Basis Set:
  @DF-RHF Final Energy:  -422.97594128338591
    Total Energy =                       -422.9759412833857368
  Basis Set: 6-31G*
  Basis Set:
  @DF-RHF Final Energy:  -422.97595362717072
    Total Energy =                       -422.9759536271708384
  Basis Set: 6-31G*
  Basis Set:
  Basis Set: 6-31G*
  Basis Set:
  @DF-RHF Final Energy:  -422.97595826182032
    Total Energy =                       -422.9759582618200966
  Basis Set: 6-31G*
  Basis Set:
  Basis Set: 6-31G*
  Basis Set:
  @DF-RHF Final Energy:  -422.97595938300043
    Total Energy =                       -422.9759593830008271
  Basis Set: 6-31G*
  Basis Set:
  Charge       = 0
  Multiplicity = 1
  Basis Set: 6-31G*
  Basis Set:

    Orbital Energies (a.u.)
    -----------------------

    Doubly Occupied:

       1A    -20.604778     2A    -20.545880     3A    -11.373075
       4A    -11.281424     5A    -11.235821     6A    -11.220016
       7A    -11.213044     8A    -11.211406     9A    -11.206219
      10A     -1.470300    11A     -1.363327    12A     -1.090763
      13A     -1.041360    14A     -0.986022    15A     -0.930469
      16A     -0.843445    17A     -0.793738    18A     -0.766109
      19A     -0.701341    20A     -0.680920    21A     -0.671787
      22A     -0.640257    23A     -0.613041    24A     -0.599163
      25A     -0.568406    26A     -0.558316    27A     -0.552749
      28A     -0.529500    29A     -0.522685    30A     -0.500371
      31A     -0.491698    32A     -0.466809    33A     -0.464200
      34A     -0.455232    35A     -0.450843    36A     -0.435744

  @DF-RHF Final Energy:  -422.97595944116716

   => Energetics <=

    Nuclear Repulsion Energy =            462.9619502803354294
    One-Electron Energy =               -1493.7153028595189426
    Two-Electron Energy =                 607.7773931380161230
    DFT Exchange-Correlation Energy =       0.0000000000000000
    Empirical Dispersion Energy =           0.0000000000000000
    PCM Polarization Energy =               0.0000000000000000
    EFP Energy =                            0.0000000000000000
    Total Energy =                       -422.9759594411673334
    Molecular point group: c1
  Basis Set: 6-31G*
  Basis Set:

  -Total Gradient:
     Atom            X                  Y                   Z
    ------   -----------------  -----------------  -----------------
       1        0.000009185808     0.000006131279     0.000012869507
       2        0.000001022507     0.000010164110    -0.000031838383
       3       -0.000369856639    -0.000468113561     0.000483305946
       4        0.000018121648    -0.000004263847     0.000017704865
       5        0.000105368280     0.000178890114    -0.000729518211
       6        0.000275661078     0.000367376555    -0.000282911941
       7       -0.000003172794    -0.000000718234    -0.000001311275
       8       -0.000003637302    -0.000015510724     0.000011223915
       9       -0.000046293122    -0.000072253786     0.000527884850
      10        0.000005628369    -0.000009218768     0.000002029697
      11        0.000007931161     0.000006387839    -0.000013191825
      12        0.000005582498    -0.000004663437     0.000002773970
      13       -0.000000865890     0.000012363968     0.000003979991
      14        0.000000878723    -0.000006313705     0.000004570157
      15        0.000001129523     0.000001121927     0.000000026187
      16       -0.000001740262    -0.000000228185    -0.000003797129
      17        0.000002941520     0.000002035338     0.000002363084
      18       -0.000000703486    -0.000002700563     0.000000076711
      19       -0.000001500080     0.000003104236    -0.000000142622
      20       -0.000007752828    -0.000006392195    -0.000015393944
      21        0.000002218626     0.000000304487     0.000003338076
      22        0.000001860958     0.000000629882     0.000002931507
      23       -0.000002008295     0.000001867268     0.000003026873

  **** Optimization is complete! (in 9 steps) ****
    Final optimized geometry and variables:
    Molecular point group: c1

    Geometry (in Angstrom), charge = 0, multiplicity = 1:

    O            1.342676822302     0.561164030187    -0.929794596424
    C            1.173252313634    -0.585869862436    -0.664874634427
    C           -0.164803511457    -1.284247300383    -0.595830454128
    O            2.168907851734    -1.427972643640    -0.422640517427
    C           -1.360162898810    -0.333826084221    -0.552854219038
    H           -0.214789858971    -1.918584605748    -1.477967287071
    H           -0.156061077222    -1.954572839715     0.257035328182
    C           -1.484116139473     0.442393096218     0.760307408270
    H           -2.261939711940    -0.922766062039    -0.701913393175
    H           -1.293139464994     0.360150505690    -1.383734124565
    C           -2.702859006255     1.366265861115     0.789811917823
    H           -1.549258205594    -0.262139751531     1.588913302759
    H           -0.585913867933     1.031176436005     0.919501817125
    C           -2.832267427924     2.139028751879     2.101875764564
    H           -3.605346959957     0.780809136139     0.625448562665
    H           -2.638851618734     2.069153969467    -0.037631432281
    H           -2.931014872128     1.463592298264     2.947194888639
    H           -3.703701121273     2.786463452179     2.092828551134
    H           -1.959377164249     2.761331082484     2.276845773044
    C            3.484145764890    -0.908863153746    -0.502015576868
    H            3.683836445682    -0.529427382330    -1.493806934576
    H            4.141173968448    -1.734726604459    -0.278102857073
    H            3.622578014151    -0.114366622065     0.216988055390

  Mulliken Charges: (a.u.)
   Center  Symbol    Alpha    Beta     Spin     Total
       1     O     4.28748  4.28748  0.00000 -0.57497
       2     C     2.60594  2.60594  0.00000  0.78811
       3     C     3.20896  3.20896  0.00000 -0.41792
       4     O     4.30612  4.30612  0.00000 -0.61224
       5     C     3.15466  3.15466  0.00000 -0.30932
       6     H     0.39796  0.39796  0.00000  0.20408
       7     H     0.40070  0.40070  0.00000  0.19859
       8     C     3.15696  3.15696  0.00000 -0.31392
       9     H     0.41949  0.41949  0.00000  0.16103
      10     H     0.40765  0.40765  0.00000  0.18470
      11     C     3.15213  3.15213  0.00000 -0.30426
      12     H     0.42705  0.42705  0.00000  0.14590
      13     H     0.40963  0.40963  0.00000  0.18075
      14     C     3.23949  3.23949  0.00000 -0.47899
      15     H     0.42468  0.42468  0.00000  0.15064
      16     H     0.41996  0.41996  0.00000  0.16009
      17     H     0.42279  0.42279  0.00000  0.15442
      18     H     0.41959  0.41959  0.00000  0.16082
      19     H     0.42008  0.42008  0.00000  0.15984
      20     C     3.09249  3.09249  0.00000 -0.18497
      21     H     0.40910  0.40910  0.00000  0.18180
      22     H     0.40830  0.40830  0.00000  0.18339
      23     H     0.40879  0.40879  0.00000  0.18242

   Total alpha = 36.00000, Total beta = 36.00000, Total charge =  0.00000
