  ==> Input File <==

--------------------------------------------------------------------------
set {
	reference rhf
	basis 6-31G*
}

set_num_threads( 4 )
memory 2 gb

molecule MOL {
0 1

H	 -2.798360	 -0.862255	 -0.071053
N	 -1.863561	 -0.715187	 0.256814
C	 -1.344686	 0.554728	 -0.219830
H	 -1.300452	 -1.461917	 -0.101532
C	 0.081427	 0.741154	 0.254071
H	 -1.362155	 0.656231	 -1.305829
H	 -1.952773	 1.354456	 0.191809
O	 0.070485	 0.840062	 1.649487
H	 0.695032	 -0.104231	 -0.056492
H	 0.497464	 1.645236	 -0.185000
C	 1.314782	 1.100425	 2.216503
H	 1.182187	 1.153233	 3.288570
H	 2.028769	 0.310742	 1.989336
H	 1.722215	 2.045811	 1.864290

	symmetry c1
}
set optking {
	frozen_dihedral = ("
		8 5 3 6
	")
}

ee = optimize('scf')
oeprop('DIPOLE', 'QUADRUPOLE', 'MULLIKEN_CHARGES')
f=open( 'psi4out.xyz', 'w' )
f.write( "14  " )
f.write( str(ee) + "\n" )
f.write( MOL.save_string_xyz() )
f.close()
--------------------------------------------------------------------------

    Molecular point group: c1
  Charge       = 0
  Multiplicity = 1
  Basis Set: 6-31G*
  Basis Set:
  @DF-RHF Final Energy:  -248.11880426392040
    Total Energy =                       -248.1188042639206515
    Molecular point group: c1
  Basis Set: 6-31G*
  Basis Set:
  Basis Set: 6-31G*
  Basis Set:
  @DF-RHF Final Energy:  -248.11938798598834
    Total Energy =                       -248.1193879859887375
  Basis Set: 6-31G*
  Basis Set:
  Basis Set: 6-31G*
  Basis Set:
  @DF-RHF Final Energy:  -248.11950225374676
    Total Energy =                       -248.1195022537467594
  Basis Set: 6-31G*
  Basis Set:
  Basis Set: 6-31G*
  Basis Set:
  @DF-RHF Final Energy:  -248.11952241825344
    Total Energy =                       -248.1195224182534957
  Basis Set: 6-31G*
  Basis Set:
  Basis Set: 6-31G*
  Basis Set:
  @DF-RHF Final Energy:  -248.11952638952789
    Total Energy =                       -248.1195263895280050
  Basis Set: 6-31G*
  Basis Set:
  Charge       = 0
  Multiplicity = 1
  Basis Set: 6-31G*
  Basis Set:

    Orbital Energies (a.u.)
    -----------------------

    Doubly Occupied:

       1A    -20.549212     2A    -15.531623     3A    -11.266881
       4A    -11.261000     5A    -11.243400     6A     -1.376553
       7A     -1.175884     8A     -0.998448     9A     -0.903446
      10A     -0.817710    11A     -0.681661    12A     -0.665392
      13A     -0.647783    14A     -0.617116    15A     -0.592110
      16A     -0.555891    17A     -0.518293    18A     -0.501632
      19A     -0.462848    20A     -0.412072    21A     -0.379459

  @DF-RHF Final Energy:  -248.11952691952729

   => Energetics <=

    Nuclear Repulsion Energy =            193.5096469847329672
    One-Electron Energy =                -720.9415182290370012
    Two-Electron Energy =                 279.3123443247768023
    DFT Exchange-Correlation Energy =       0.0000000000000000
    Empirical Dispersion Energy =           0.0000000000000000
    PCM Polarization Energy =               0.0000000000000000
    EFP Energy =                            0.0000000000000000
    Total Energy =                       -248.1195269195272317
    Molecular point group: c1
  Basis Set: 6-31G*
  Basis Set:

  -Total Gradient:
     Atom            X                  Y                   Z
    ------   -----------------  -----------------  -----------------
       1        0.000014624541    -0.000017609264    -0.000018226170
       2       -0.000044060559     0.000042753175    -0.000011330096
       3       -0.000259370626     0.001112514217     0.000138209996
       4        0.000020954549     0.000014681466     0.000024898479
       5       -0.000126533471     0.001027775881    -0.000077687665
       6        0.000221645989    -0.001198332047    -0.000102699595
       7        0.000004066173     0.000000163207     0.000007233211
       8        0.000157037617    -0.000985319255     0.000037854399
       9        0.000004760193    -0.000000097557    -0.000011600393
      10        0.000009546714    -0.000002672758    -0.000000875356
      11        0.000002301243     0.000009405007     0.000020004036
      12        0.000003728794    -0.000000858966     0.000001738292
      13       -0.000005788222     0.000002607688    -0.000003951517
      14       -0.000002912936    -0.000005010796    -0.000003567622

  **** Optimization is complete! (in 6 steps) ****
    Final optimized geometry and variables:
    Molecular point group: c1

    Geometry (in Angstrom), charge = 0, multiplicity = 1:

    H           -2.478006138282    -1.354478357452    -0.849878406499
    N           -1.513492054698    -1.250837367760    -0.602586940734
    C           -1.000626498021     0.028448659499    -1.060498018787
    H           -1.016194963512    -2.008226480765    -1.030651859684
    C            0.408649534165     0.281942430652    -0.557497401777
    H           -0.981979141453     0.117115785523    -2.149920228492
    H           -1.646608528575     0.810876244896    -0.679909637976
    O            0.407727501008     0.406140261352     0.827364993374
    H            1.063458098926    -0.536427289995    -0.863915939365
    H            0.794837187732     1.191536778266    -1.019727908411
    C            1.667992770206     0.594650593768     1.382853280399
    H            1.543360273274     0.681278574517     2.453455568686
    H            2.326901276019    -0.246347510277     1.172894173377
    H            2.140353483466     1.502327813256     1.009122590462

  Mulliken Charges: (a.u.)
   Center  Symbol    Alpha    Beta     Spin     Total
       1     H     0.33159  0.33159  0.00000  0.33682
       2     N     3.91368  3.91368  0.00000 -0.82736
       3     C     3.07103  3.07103  0.00000 -0.14207
       4     H     0.33629  0.33629  0.00000  0.32742
       5     C     2.98494  2.98494  0.00000  0.03013
       6     H     0.43449  0.43449  0.00000  0.13103
       7     H     0.41116  0.41116  0.00000  0.17768
       8     O     4.29475  4.29475  0.00000 -0.58949
       9     H     0.43643  0.43643  0.00000  0.12714
      10     H     0.43206  0.43206  0.00000  0.13588
      11     C     3.07894  3.07894  0.00000 -0.15787
      12     H     0.41128  0.41128  0.00000  0.17744
      13     H     0.43081  0.43081  0.00000  0.13838
      14     H     0.43257  0.43257  0.00000  0.13487

   Total alpha = 21.00000, Total beta = 21.00000, Total charge =  0.00000
