  ==> Input File <==

--------------------------------------------------------------------------
set {
	reference rhf
	basis 6-31G*
}

set_num_threads( 1 )
memory 2 gb

molecule MOL {
0 1

O	 -0.709982	 -0.122831	 2.448878
C	 -1.002980	 0.496040	 1.477579
C	 -1.836557	 1.748820	 1.471407
O	 -0.632575	 0.154573	 0.251549
H	 -2.720940	 1.597271	 0.863257
H	 -2.121271	 1.999833	 2.482231
H	 -1.271368	 2.562460	 1.031739
C	 0.160891	 -1.019931	 0.106212
C	 1.589627	 -0.672828	 0.480843
H	 0.089836	 -1.367806	 -0.916050
H	 -0.238459	 -1.792301	 0.749618
C	 2.246377	 0.346236	 -0.452210
H	 2.163194	 -1.597435	 0.473358
H	 1.604769	 -0.303424	 1.502885
C	 3.691736	 0.652107	 -0.061850
H	 2.219579	 -0.032311	 -1.472055
H	 1.666466	 1.263317	 -0.447249
H	 4.134505	 1.377213	 -0.737283
H	 4.305508	 -0.243868	 -0.089969
H	 3.748266	 1.059562	 0.943567

	symmetry c1
}
set optking {
	frozen_dihedral = ("
		16 12 9 8,
		12 9 8 10,
		1 2 4 8
	")
}

ee = energy('scf')
oeprop('DIPOLE', 'QUADRUPOLE', 'MULLIKEN_CHARGES')
f=open( 'psi4out.xyz', 'w' )
f.write( "20  " )
f.write( str(ee) + "\n" )
f.write( MOL.save_string_xyz() )
f.close()
--------------------------------------------------------------------------

    Molecular point group: c1

    Geometry (in Angstrom), charge = 0, multiplicity = 1:

       Center              X                  Y                   Z               Mass
    ------------   -----------------  -----------------  -----------------  -----------------
           O         -1.144163372161    -0.326743627981     1.726337245175    15.994914619560
           C         -1.437161372161     0.292127372019     0.755038245175    12.000000000000
           C         -2.270738372161     1.544907372019     0.748866245175    12.000000000000
           O         -1.066756372161    -0.049339627981    -0.470991754825    15.994914619560
           H         -3.155121372161     1.393358372019     0.140716245175     1.007825032070
           H         -2.555452372161     1.795920372019     1.759690245175     1.007825032070
           H         -1.705549372161     2.358547372019     0.309198245175     1.007825032070
           C         -0.273290372161    -1.223843627981    -0.616328754825    12.000000000000
           C          1.155445627839    -0.876740627981    -0.241697754825    12.000000000000
           H         -0.344345372161    -1.571718627981    -1.638590754825     1.007825032070
           H         -0.672640372161    -1.996213627981     0.027077245175     1.007825032070
           C          1.812195627839     0.142323372019    -1.174750754825    12.000000000000
           H          1.729012627839    -1.801347627981    -0.249182754825     1.007825032070
           H          1.170587627839    -0.507336627981     0.780344245175     1.007825032070
           C          3.257554627839     0.448194372019    -0.784390754825    12.000000000000
           H          1.785397627839    -0.236223627981    -2.194595754825     1.007825032070
           H          1.232284627839     1.059404372019    -1.169789754825     1.007825032070
           H          3.700323627839     1.173300372019    -1.459823754825     1.007825032070
           H          3.871326627839    -0.447780627981    -0.812509754825     1.007825032070
           H          3.314084627839     0.855649372019     0.221026245175     1.007825032070

  Charge       = 0
  Multiplicity = 1
  Basis Set: 6-31G*
  Basis Set:

    Orbital Energies (a.u.)
    -----------------------

    Doubly Occupied:

       1A    -20.601549     2A    -20.544986     3A    -11.376537
       4A    -11.282345     5A    -11.234352     6A    -11.218263
       7A    -11.216955     8A    -11.210978     9A     -1.469554
      10A     -1.363483    11A     -1.081842    12A     -1.028509
      13A     -0.978453    14A     -0.885780    15A     -0.815993
      16A     -0.754826    17A     -0.698867    18A     -0.686674
      19A     -0.662311    20A     -0.628931    21A     -0.596806
      22A     -0.594552    23A     -0.570470    24A     -0.565697
      25A     -0.538033    26A     -0.523981    27A     -0.514286
      28A     -0.490935    29A     -0.472064    30A     -0.464215
      31A     -0.443575    32A     -0.437277

  @DF-RHF Final Energy:  -383.94247447947748

   => Energetics <=

    Nuclear Repulsion Energy =            394.6126296917096852
    One-Electron Energy =               -1305.2039681785972789
    Two-Electron Energy =                 526.6488640074103387
    DFT Exchange-Correlation Energy =       0.0000000000000000
    Empirical Dispersion Energy =           0.0000000000000000
    PCM Polarization Energy =               0.0000000000000000
    EFP Energy =                            0.0000000000000000
    Total Energy =                       -383.9424744794772550

  Mulliken Charges: (a.u.)
   Center  Symbol    Alpha    Beta     Spin     Total
       1     O     4.28402  4.28402  0.00000 -0.56804
       2     C     2.62005  2.62005  0.00000  0.75989
       3     C     3.28161  3.28161  0.00000 -0.56322
       4     O     4.30692  4.30692  0.00000 -0.61383
       5     H     0.39968  0.39968  0.00000  0.20064
       6     H     0.39691  0.39691  0.00000  0.20618
       7     H     0.40071  0.40071  0.00000  0.19858
       8     C     3.01104  3.01104  0.00000 -0.02209
       9     C     3.17293  3.17293  0.00000 -0.34586
      10     H     0.40894  0.40894  0.00000  0.18212
      11     H     0.40128  0.40128  0.00000  0.19745
      12     C     3.15318  3.15318  0.00000 -0.30636
      13     H     0.42144  0.42144  0.00000  0.15711
      14     H     0.40076  0.40076  0.00000  0.19848
      15     C     3.23968  3.23968  0.00000 -0.47936
      16     H     0.42442  0.42442  0.00000  0.15115
      17     H     0.41643  0.41643  0.00000  0.16714
      18     H     0.41853  0.41853  0.00000  0.16293
      19     H     0.42140  0.42140  0.00000  0.15719
      20     H     0.42006  0.42006  0.00000  0.15988

   Total alpha = 32.00000, Total beta = 32.00000, Total charge = -0.00000
