                              Psi4 1.0.54 Driver

  ==> Input File <==

--------------------------------------------------------------------------
set {
	reference rhf
	basis cc-pvtz
}

set_num_threads( 4 )
memory 2 gb

molecule MOL {
0 1

H	 -2.698799	 -0.000846	 0.036018
C	 -1.694291	 -0.000483	 0.434279
O	 -0.828718	 -0.000608	 -0.655022
H	 -1.576855	 0.881100	 1.056504
H	 -1.576401	 -0.881658	 1.057001
C	 0.075451	 1.066297	 -0.803576
C	 -0.625636	 2.400344	 -1.033943
C	 1.091930	 1.134772	 0.330590
H	 0.609802	 0.813309	 -1.710816
H	 -1.366063	 2.306478	 -1.818810
H	 0.098035	 3.148332	 -1.336534
H	 -1.117125	 2.764974	 -0.139479
H	 1.542688	 0.163270	 0.491974
H	 1.877999	 1.836840	 0.077669
H	 0.645992	 1.465712	 1.261267

	symmetry c1
}
set optking {
	frozen_dihedral = ("
		6 3 2 1
	")
}

ee,wfn = optimize('scf', return_wfn=True)
oeprop( wfn, 'DIPOLE', 'QUADRUPOLE', 'MULLIKEN_CHARGES')
f=open( 'psi4out.xyz', 'w' )
f.write( "15  " )
f.write( str(ee) + "\n" )
f.write( MOL.save_string_xyz() )
f.close()
--------------------------------------------------------------------------

    Molecular point group: c1
  Charge       = 0
  Multiplicity = 1
  Basis Set: CC-PVTZ
  Basis Set:
  @DF-RHF Final Energy:  -232.22310774985178
    Total Energy =                       -232.2231077498518061
    Molecular point group: c1
  Basis Set: CC-PVTZ
  Basis Set:
  Basis Set: CC-PVTZ
  Basis Set:
  @DF-RHF Final Energy:  -232.22367817338966
    Total Energy =                       -232.2236781733894304
  Basis Set: CC-PVTZ
  Basis Set:
  Basis Set: CC-PVTZ
  Basis Set:
  @DF-RHF Final Energy:  -232.22380267270918
    Total Energy =                       -232.2238026727092119
  Basis Set: CC-PVTZ
  Basis Set:
  Basis Set: CC-PVTZ
  Basis Set:
  @DF-RHF Final Energy:  -232.22378304470612
    Total Energy =                       -232.2237830447061810
  Basis Set: CC-PVTZ
  Basis Set:
  Basis Set: CC-PVTZ
  Basis Set:
  @DF-RHF Final Energy:  -232.22383157705534
    Total Energy =                       -232.2238315770553641
  Basis Set: CC-PVTZ
  Basis Set:
  Charge       = 0
  Multiplicity = 1
  Basis Set: CC-PVTZ
  Basis Set:

    Orbital Energies (a.u.)
    -----------------------

    Doubly Occupied:

       1A    -20.539308     2A    -11.273289     3A    -11.258916
       4A    -11.208591     5A    -11.208572     6A     -1.371013
       7A     -1.050998     8A     -0.940323     9A     -0.931787
      10A     -0.781817    11A     -0.677195    12A     -0.640233
      13A     -0.633632    14A     -0.570225    15A     -0.563650
      16A     -0.552256    17A     -0.538259    18A     -0.501438
      19A     -0.498597    20A     -0.443372    21A     -0.405828

  @DF-RHF Final Energy:  -232.22383236398960

   => Energetics <=

    Nuclear Repulsion Energy =            198.8658027528511241
    One-Electron Energy =                -709.0006774110743208
    Two-Electron Energy =                 277.9110422942334822
    DFT Exchange-Correlation Energy =       0.0000000000000000
    Empirical Dispersion Energy =           0.0000000000000000
    PCM Polarization Energy =               0.0000000000000000
    EFP Energy =                            0.0000000000000000
    Total Energy =                       -232.2238323639897430
    Molecular point group: c1
  Basis Set: CC-PVTZ
  Basis Set:

  -Total Gradient:
     Atom            X                  Y                   Z
    ------   -----------------  -----------------  -----------------
       1       -0.000023076146    -0.000063949142     0.000035027227
       2       -0.000028234160    -0.000021661248    -0.000057907575
       3       -0.000036334413     0.000135302224     0.000047011953
       4        0.000064130324     0.000032660173    -0.000020288084
       5       -0.000004257919     0.000010254100     0.000026563219
       6        0.000119353547    -0.000085770219    -0.000116342081
       7       -0.000022338465    -0.000021763416     0.000059576265
       8       -0.000066428817     0.000004849298     0.000022627025
       9        0.000028210747     0.000015698970    -0.000019601132
      10        0.000002258883    -0.000006503598    -0.000002082713
      11        0.000008530944    -0.000021623850     0.000003836532
      12       -0.000010704259     0.000016861434     0.000012116935
      13       -0.000006313064    -0.000002865018    -0.000011126933
      14       -0.000008281945     0.000002926111    -0.000011287280
      15       -0.000016515256     0.000005584180     0.000031876641

  **** Optimization is complete! (in 6 steps) ****
    Final optimized geometry and variables:
    Molecular point group: c1

    Geometry (in Angstrom), charge = 0, multiplicity = 1:

    H           -2.317863586459    -0.893592125797     0.436066098722
    C           -1.288600027630    -0.908056498040     0.775951453089
    O           -0.431115959947    -0.901100467679    -0.325457403572
    H           -1.141454624933    -0.061985159935     1.434674799865
    H           -1.130800107105    -1.812474487951     1.352178409453
    C            0.486782087986     0.152060594207    -0.481235105845
    C           -0.202021272194     1.495554152292    -0.692015258401
    C            1.522186074490     0.189273600218     0.636981364528
    H            1.003038313323    -0.100429290828    -1.399070840044
    H           -0.926839271484     1.422094778991    -1.493367530348
    H            0.528396857795     2.250091576629    -0.960831410920
    H           -0.713473852094     1.837957433682     0.200284062475
    H            1.984007043267    -0.783694192272     0.750819953767
    H            2.297567673552     0.909580711306     0.402301163149
    H            1.087677399311     0.474127392583     1.588332556415

  Mulliken Charges: (a.u.)
   Center  Symbol    Alpha    Beta     Spin     Total
       1     H     0.45383  0.45383  0.00000  0.09233
       2     C     3.03808  3.03808  0.00000 -0.07616
       3     O     4.18794  4.18794  0.00000 -0.37588
       4     H     0.46937  0.46937  0.00000  0.06126
       5     H     0.45347  0.45347  0.00000  0.09307
       6     C     2.93952  2.93952  0.00000  0.12096
       7     C     3.15476  3.15476  0.00000 -0.30953
       8     C     3.15481  3.15481  0.00000 -0.30961
       9     H     0.44596  0.44596  0.00000  0.10808
      10     H     0.44495  0.44495  0.00000  0.11009
      11     H     0.45065  0.45065  0.00000  0.09871
      12     H     0.45554  0.45554  0.00000  0.08891
      13     H     0.44494  0.44494  0.00000  0.11013
      14     H     0.45066  0.45066  0.00000  0.09868
      15     H     0.45552  0.45552  0.00000  0.08897

   Total alpha = 21.00000, Total beta = 21.00000, Total charge =  0.00000

*** Psi4 exiting successfully. Buy a developer a beer!
