  ==> Input File <==

--------------------------------------------------------------------------
set {
	reference rhf
	basis 6-31G*
}

set_num_threads( 1 )
memory 2 gb

molecule MOL {
0 1

H	 3.463771	 0.168298	 -0.756243
C	 2.752674	 -0.045734	 0.033351
C	 1.322923	 0.120767	 -0.479465
H	 2.934561	 -1.059086	 0.377456
H	 2.958358	 0.631174	 0.856809
C	 0.306652	 -0.176050	 0.621399
H	 1.144658	 -0.551717	 -1.312180
H	 1.166477	 1.131798	 -0.836680
N	 -1.068537	 -0.011044	 0.085269
H	 0.372515	 -1.192590	 0.973735
H	 0.391664	 0.520566	 1.441230
O	 -1.388674	 -0.701754	 -0.832230
O	 -1.749641	 0.827718	 0.591826

	symmetry c1
}
set optking {
	frozen_dihedral = ("
		7 3 6 9
	")
}

ee = energy('scf')
oeprop('DIPOLE', 'QUADRUPOLE', 'MULLIKEN_CHARGES')
f=open( 'psi4out.xyz', 'w' )
f.write( "13  " )
f.write( str(ee) + "\n" )
f.write( MOL.save_string_xyz() )
f.close()
--------------------------------------------------------------------------

    Molecular point group: c1

    Geometry (in Angstrom), charge = 0, multiplicity = 1:

       Center              X                  Y                   Z               Mass
    ------------   -----------------  -----------------  -----------------  -----------------
           H          3.464260741371     0.165000648109    -0.758513204953     1.007825032070
           C          2.753163741371    -0.049031351891     0.031080795047    12.000000000000
           C          1.323412741371     0.117469648109    -0.481735204953    12.000000000000
           H          2.935050741371    -1.062383351891     0.375185795047     1.007825032070
           H          2.958847741371     0.627876648109     0.854538795047     1.007825032070
           C          0.307141741371    -0.179347351891     0.619128795047    12.000000000000
           H          1.145147741371    -0.555014351891    -1.314450204953     1.007825032070
           H          1.166966741371     1.128500648109    -0.838950204953     1.007825032070
           N         -1.068047258629    -0.014341351891     0.082998795047    14.003074004780
           H          0.373004741371    -1.195887351891     0.971464795047     1.007825032070
           H          0.392153741371     0.517268648109     1.438959795047     1.007825032070
           O         -1.388184258629    -0.705051351891    -0.834500204953    15.994914619560
           O         -1.749151258629     0.824420648109     0.589555795047    15.994914619560

  Charge       = 0
  Multiplicity = 1
  Basis Set: 6-31G*
  Basis Set:

    Orbital Energies (a.u.)
    -----------------------

    Doubly Occupied:

       1A    -20.602216     2A    -20.600178     3A    -15.847415
       4A    -11.299269     5A    -11.254505     6A    -11.238767
       7A     -1.631056     8A     -1.416684     9A     -1.134901
      10A     -1.027773    11A     -0.883656    12A     -0.831412
      13A     -0.759647    14A     -0.737510    15A     -0.723913
      16A     -0.669244    17A     -0.604559    18A     -0.586743
      19A     -0.550177    20A     -0.521518    21A     -0.512596
      22A     -0.484655    23A     -0.473035    24A     -0.448649

  @DF-RHF Final Energy:  -321.73525730583481

   => Energetics <=

    Nuclear Repulsion Energy =            247.5970073818742776
    One-Electron Energy =                -928.9844437473527705
    Two-Electron Energy =                 359.6521790596432879
    DFT Exchange-Correlation Energy =       0.0000000000000000
    Empirical Dispersion Energy =           0.0000000000000000
    PCM Polarization Energy =               0.0000000000000000
    EFP Energy =                            0.0000000000000000
    Total Energy =                       -321.7352573058352050

  Mulliken Charges: (a.u.)
   Center  Symbol    Alpha    Beta     Spin     Total
       1     H     0.40754  0.40754  0.00000  0.18492
       2     C     3.24825  3.24825  0.00000 -0.49650
       3     C     3.17304  3.17304  0.00000 -0.34609
       4     H     0.41510  0.41510  0.00000  0.16980
       5     H     0.41557  0.41557  0.00000  0.16886
       6     C     3.08654  3.08654  0.00000 -0.17307
       7     H     0.39416  0.39416  0.00000  0.21169
       8     H     0.40399  0.40399  0.00000  0.19201
       9     N     3.22218  3.22218  0.00000  0.55564
      10     H     0.38843  0.38843  0.00000  0.22314
      11     H     0.38581  0.38581  0.00000  0.22839
      12     O     4.23075  4.23075  0.00000 -0.46150
      13     O     4.22864  4.22864  0.00000 -0.45729

   Total alpha = 24.00000, Total beta = 24.00000, Total charge = -0.00000
