  ==> Input File <==

--------------------------------------------------------------------------
set {
	reference rhf
	basis 6-31G*
}

set_num_threads( 1 )
memory 2 gb

molecule MOL {
0 1

H	 2.338664	 -0.954458	 -0.891193
O	 2.016064	 -0.864478	 0.000222
C	 1.050492	 0.053836	 0.000068
C	 -0.318135	 -0.576402	 0.000164
O	 1.285279	 1.218255	 -0.000078
C	 -1.454360	 0.441875	 -0.000474
H	 -0.374042	 -1.230163	 -0.866135
H	 -0.374274	 -1.229227	 0.867154
C	 -2.826123	 -0.230780	 0.000056
H	 -1.357605	 1.085198	 -0.868380
H	 -1.357504	 1.086451	 0.866496
H	 -2.959731	 -0.858053	 -0.876869
H	 -3.619374	 0.509403	 -0.000080
H	 -2.959371	 -0.857318	 0.877556

	symmetry c1
}
set optking {
	frozen_dihedral = ("
		7 4 6 10,
		2 3 4 7
	")
}

ee = energy('scf')
oeprop('DIPOLE', 'QUADRUPOLE', 'MULLIKEN_CHARGES')
f=open( 'psi4out.xyz', 'w' )
f.write( "14  " )
f.write( str(ee) + "\n" )
f.write( MOL.save_string_xyz() )
f.close()
--------------------------------------------------------------------------

    Molecular point group: c1

    Geometry (in Angstrom), charge = 0, multiplicity = 1:

       Center              X                  Y                   Z               Mass
    ------------   -----------------  -----------------  -----------------  -----------------
           H          2.344563777662    -0.948253252680    -0.880990494855     1.007825032070
           O          2.021963777662    -0.858273252680     0.010424505145    15.994914619560
           C          1.056391777662     0.060040747320     0.010270505145    12.000000000000
           C         -0.312235222338    -0.570197252680     0.010366505145    12.000000000000
           O          1.291178777662     1.224459747320     0.010124505145    15.994914619560
           C         -1.448460222338     0.448079747320     0.009728505145    12.000000000000
           H         -0.368142222338    -1.223958252680    -0.855932494855     1.007825032070
           H         -0.368374222338    -1.223022252680     0.877356505145     1.007825032070
           C         -2.820223222338    -0.224575252680     0.010258505145    12.000000000000
           H         -1.351705222338     1.091402747320    -0.858177494855     1.007825032070
           H         -1.351604222338     1.092655747320     0.876698505145     1.007825032070
           H         -2.953831222338    -0.851848252680    -0.866666494855     1.007825032070
           H         -3.613474222338     0.515607747320     0.010122505145     1.007825032070
           H         -2.953471222338    -0.851113252680     0.887758505145     1.007825032070

  Charge       = 0
  Multiplicity = 1
  Basis Set: 6-31G*
  Basis Set:

    Orbital Energies (a.u.)
    -----------------------

    Doubly Occupied:

       1A    -20.598639     2A    -20.560227     3A    -11.380433
       4A    -11.241814     5A    -11.225672     6A    -11.217798
       7A     -1.469707     8A     -1.368815     9A     -1.082933
      10A     -0.976773    11A     -0.852866    12A     -0.798845
      13A     -0.711510    14A     -0.680738    15A     -0.664949
      16A     -0.633213    17A     -0.578569    18A     -0.559784
      19A     -0.543467    20A     -0.501976    21A     -0.497276
      22A     -0.483500    23A     -0.479302    24A     -0.444495

  @DF-RHF Final Energy:  -305.85898013225244

   => Energetics <=

    Nuclear Repulsion Energy =            240.0266997410876968
    One-Electron Energy =                -892.6648129501875246
    Two-Electron Energy =                 346.7791330768475291
    DFT Exchange-Correlation Energy =       0.0000000000000000
    Empirical Dispersion Energy =           0.0000000000000000
    PCM Polarization Energy =               0.0000000000000000
    EFP Energy =                            0.0000000000000000
    Total Energy =                       -305.8589801322523272

  Mulliken Charges: (a.u.)
   Center  Symbol    Alpha    Beta     Spin     Total
       1     H     0.26481  0.26481  0.00000  0.47037
       2     O     4.35742  4.35742  0.00000 -0.71485
       3     C     2.63652  2.63652  0.00000  0.72696
       4     C     3.20769  3.20769  0.00000 -0.41538
       5     O     4.25325  4.25325  0.00000 -0.50650
       6     C     3.15315  3.15315  0.00000 -0.30630
       7     H     0.40874  0.40874  0.00000  0.18252
       8     H     0.39755  0.39755  0.00000  0.20491
       9     C     3.24267  3.24267  0.00000 -0.48533
      10     H     0.41203  0.41203  0.00000  0.17595
      11     H     0.40907  0.40907  0.00000  0.18185
      12     H     0.42207  0.42207  0.00000  0.15586
      13     H     0.41447  0.41447  0.00000  0.17105
      14     H     0.42055  0.42055  0.00000  0.15889

   Total alpha = 24.00000, Total beta = 24.00000, Total charge =  0.00000
