                              Psi4 1.0.54 Driver

  ==> Input File <==

--------------------------------------------------------------------------
set {
	reference rhf
	basis cc-pvtz
}

set_num_threads( 4 )
memory 2 gb

molecule MOL {
0 1

H	 -1.835082	 1.385983	 0.000069
C	 -1.300516	 0.441153	 -0.000028
O	 -0.006604	 0.654344	 -0.000106
O	 -1.828920	 -0.612308	 0.000113
C	 0.852093	 -0.482521	 -0.000161
C	 1.354489	 -0.680825	 -1.410471
H	 0.295721	 -1.340441	 0.349667
H	 1.663633	 -0.307279	 0.691689
H	 0.531287	 -0.851295	 -2.092562
H	 2.012657	 -1.540748	 -1.445136
H	 1.906056	 0.187077	 -1.748834

	symmetry c1
}
set optking {
	frozen_dihedral = ("
		7 5 3 2
	")
}

ee,wfn = optimize('scf', return_wfn=True)
oeprop( wfn, 'DIPOLE', 'QUADRUPOLE', 'MULLIKEN_CHARGES')
f=open( 'psi4out.xyz', 'w' )
f.write( "11  " )
f.write( str(ee) + "\n" )
f.write( MOL.save_string_xyz() )
f.close()
--------------------------------------------------------------------------

    Molecular point group: c1
  Charge       = 0
  Multiplicity = 1
  Basis Set: CC-PVTZ
  Basis Set:
  @DF-RHF Final Energy:  -266.92932457893301
    Total Energy =                       -266.9293245789330058
    Molecular point group: c1
  Basis Set: CC-PVTZ
  Basis Set:
  Basis Set: CC-PVTZ
  Basis Set:
  @DF-RHF Final Energy:  -266.90850845252976
    Total Energy =                       -266.9085084525297589
  Basis Set: CC-PVTZ
  Basis Set:
  Basis Set: CC-PVTZ
  Basis Set:
  @DF-RHF Final Energy:  -266.93002166165201
    Total Energy =                       -266.9300216616519492
  Basis Set: CC-PVTZ
  Basis Set:
  Basis Set: CC-PVTZ
  Basis Set:
  @DF-RHF Final Energy:  -266.92907970010191
    Total Energy =                       -266.9290797001017381
  Basis Set: CC-PVTZ
  Basis Set:
  Basis Set: CC-PVTZ
  Basis Set:
  @DF-RHF Final Energy:  -266.92978159576489
    Total Energy =                       -266.9297815957648936
  Basis Set: CC-PVTZ
  Basis Set:
  Basis Set: CC-PVTZ
  Basis Set:
  @DF-RHF Final Energy:  -266.93038435878810
    Total Energy =                       -266.9303843587879328
  Basis Set: CC-PVTZ
  Basis Set:
  Charge       = 0
  Multiplicity = 1
  Basis Set: CC-PVTZ
  Basis Set:

    Orbital Energies (a.u.)
    -----------------------

    Doubly Occupied:

       1A    -20.604712     2A    -20.545068     3A    -11.371293
       4A    -11.288941     5A    -11.223608     6A     -1.477545
       7A     -1.377446     8A     -1.051081     9A     -0.910969
      10A     -0.798405    11A     -0.749263    12A     -0.687613
      13A     -0.660519    14A     -0.622207    15A     -0.574704
      16A     -0.546296    17A     -0.538782    18A     -0.502575
      19A     -0.460062    20A     -0.457901

  @DF-RHF Final Energy:  -266.93038699180727

   => Energetics <=

    Nuclear Repulsion Energy =            181.1332569719481569
    One-Electron Energy =                -723.2293112883435242
    Two-Electron Energy =                 275.1656673245881848
    DFT Exchange-Correlation Energy =       0.0000000000000000
    Empirical Dispersion Energy =           0.0000000000000000
    PCM Polarization Energy =               0.0000000000000000
    EFP Energy =                            0.0000000000000000
    Total Energy =                       -266.9303869918071541
    Molecular point group: c1
  Basis Set: CC-PVTZ
  Basis Set:

  -Total Gradient:
     Atom            X                  Y                   Z
    ------   -----------------  -----------------  -----------------
       1        0.000011677013     0.000008138432    -0.000019595128
       2        0.000324640916     0.000366998166     0.000974105286
       3       -0.000659803641    -0.000366185355    -0.001599394180
       4        0.000015792347    -0.000121725469     0.000000557579
       5        0.000865299265     0.000543360617     0.001536371144
       6        0.000062776553    -0.000012057144     0.000002776573
       7       -0.000620145498    -0.000439774880    -0.000857497520
       8        0.000007626466     0.000016912570    -0.000004826393
       9       -0.000031044293    -0.000008524615     0.000019350650
      10        0.000001445817    -0.000013591746    -0.000017949178
      11        0.000021735054     0.000026449426    -0.000033898831

  **** Optimization is complete! (in 7 steps) ****
    Final optimized geometry and variables:
    Molecular point group: c1

    Geometry (in Angstrom), charge = 0, multiplicity = 1:

    H           -1.460545371484     1.706397373289     0.387502052748
    C           -0.998043155173     0.725288872922     0.431890715606
    O            0.259492952255     0.810854194956     0.067464472570
    O           -1.569727496186    -0.251715642345     0.760399743327
    C            1.072960965398    -0.361237719498     0.078908971079
    C            1.246613024903    -0.895394018917    -1.326906870102
    H            0.622252888154    -1.100737637140     0.719853089376
    H            2.018081862354    -0.050243866587     0.498086627894
    H            0.295925445902    -1.212798225107    -1.736526289341
    H            1.913274498755    -1.750007199774    -1.313670776758
    H            1.670142448184    -0.139936559738    -1.976802155975

  Mulliken Charges: (a.u.)
   Center  Symbol    Alpha    Beta     Spin     Total
       1     H     0.44895  0.44895  0.00000  0.10209
       2     C     2.84053  2.84053  0.00000  0.31894
       3     O     4.14968  4.14968  0.00000 -0.29936
       4     O     4.19701  4.19701  0.00000 -0.39402
       5     C     2.98116  2.98116  0.00000  0.03768
       6     C     3.13948  3.13948  0.00000 -0.27896
       7     H     0.44578  0.44578  0.00000  0.10843
       8     H     0.44660  0.44660  0.00000  0.10681
       9     H     0.44730  0.44730  0.00000  0.10541
      10     H     0.45262  0.45262  0.00000  0.09475
      11     H     0.45089  0.45089  0.00000  0.09823

   Total alpha = 20.00000, Total beta = 20.00000, Total charge = -0.00000

*** Psi4 exiting successfully. Buy a developer a beer!
