  ==> Input File <==

--------------------------------------------------------------------------
set {
	reference rhf
	basis cc-pvtz
}

set_num_threads( 4 )
memory 2 gb

molecule MOL {
0 1

H	 3.889604	 0.356866	 -0.089510
N	 3.091268	 -0.241216	 -0.065538
C	 1.860978	 0.530248	 0.016256
H	 3.192566	 -0.835836	 0.730398
C	 0.644130	 -0.381765	 -0.031064
H	 1.835721	 1.204666	 -0.833114
H	 1.808789	 1.151975	 0.911067
C	 -0.678115	 0.376691	 0.025731
H	 0.693998	 -0.977147	 -0.936845
H	 0.693309	 -1.082142	 0.800523
C	 -1.388878	 0.252442	 1.370566
H	 -1.335934	 0.011733	 -0.759784
H	 -0.503512	 1.428456	 -0.189157
C	 -2.713324	 1.006736	 1.421156
H	 -1.563819	 -0.797648	 1.587358
H	 -0.735104	 0.620022	 2.156846
H	 -3.402641	 0.638140	 0.668681
H	 -3.191086	 0.897818	 2.388052
H	 -2.567348	 2.066929	 1.242225

	symmetry c1
}
set optking {
	frozen_dihedral = ("
		12 8 5 9
	")
}

ee = optimize('scf')
oeprop('DIPOLE', 'QUADRUPOLE', 'MULLIKEN_CHARGES')
f=open( 'psi4out.xyz', 'w' )
f.write( "19  " )
f.write( str(ee) + "\n" )
f.write( MOL.save_string_xyz() )
f.close()
--------------------------------------------------------------------------

    Molecular point group: c1
  Charge       = 0
  Multiplicity = 1
  Basis Set: CC-PVTZ
  Basis Set:
  @DF-RHF Final Energy:  -251.44341199285520
    Total Energy =                       -251.4434119928552036
    Molecular point group: c1
  Basis Set: CC-PVTZ
  Basis Set:
  Basis Set: CC-PVTZ
  Basis Set:
  @DF-RHF Final Energy:  -251.44367841466052
    Total Energy =                       -251.4436784146604396
  Basis Set: CC-PVTZ
  Basis Set:
  Basis Set: CC-PVTZ
  Basis Set:
  @DF-RHF Final Energy:  -251.44373975301508
    Total Energy =                       -251.4437397530150520
  Basis Set: CC-PVTZ
  Basis Set:
  Charge       = 0
  Multiplicity = 1
  Basis Set: CC-PVTZ
  Basis Set:

    Orbital Energies (a.u.)
    -----------------------

    Doubly Occupied:

       1A    -15.526524     2A    -11.238587     3A    -11.213166
       4A    -11.210444     5A    -11.207467     6A    -11.205998
       7A     -1.178489     8A     -1.073250     9A     -0.998445
      10A     -0.900913    11A     -0.819897    12A     -0.787394
      13A     -0.662026    14A     -0.638716    15A     -0.620504
      16A     -0.593573    17A     -0.566000    18A     -0.549618
      19A     -0.533258    20A     -0.495903    21A     -0.485736
      22A     -0.465436    23A     -0.456731    24A     -0.449463
      25A     -0.383809

  @DF-RHF Final Energy:  -251.44374065000665

   => Energetics <=

    Nuclear Repulsion Energy =            247.7027789069200026
    One-Electron Energy =                -829.7703439700953822
    Two-Electron Energy =                 330.6238244131683928
    DFT Exchange-Correlation Energy =       0.0000000000000000
    Empirical Dispersion Energy =           0.0000000000000000
    PCM Polarization Energy =               0.0000000000000000
    EFP Energy =                            0.0000000000000000
    Total Energy =                       -251.4437406500069869
    Molecular point group: c1
  Basis Set: CC-PVTZ
  Basis Set:

  -Total Gradient:
     Atom            X                  Y                   Z
    ------   -----------------  -----------------  -----------------
       1        0.000035948991    -0.000001601892     0.000006178262
       2        0.000027196452    -0.000030080558    -0.000022307891
       3       -0.000022069487     0.000086066504    -0.000010823893
       4        0.000001203105    -0.000005091974     0.000012395739
       5        0.001334286924     0.002636811854    -0.001653028246
       6       -0.000001594332     0.000014392570    -0.000001284067
       7       -0.000007654318    -0.000017152367    -0.000015015432
       8       -0.001227509301    -0.002411285746     0.001993664223
       9       -0.000954818110    -0.001750501724     0.001114130949
      10       -0.000027151194    -0.000004229633     0.000001514996
      11       -0.000040331124    -0.000137985322     0.000027398569
      12        0.000813625177     0.001562251457    -0.001386269474
      13        0.000024323931     0.000007623270    -0.000034081679
      14        0.000053592979     0.000064144631    -0.000024171711
      15       -0.000017077438    -0.000010959066    -0.000003064899
      16        0.000000492329    -0.000017287050    -0.000014251028
      17        0.000013869421    -0.000010681562     0.000013294078
      18        0.000017719285     0.000011055290     0.000008267783
      19       -0.000024053292     0.000014511321    -0.000012546276

  **** Optimization is complete! (in 4 steps) ****
    Final optimized geometry and variables:
    Molecular point group: c1

    Geometry (in Angstrom), charge = 0, multiplicity = 1:

    H            3.715835205798     0.128823947957    -0.501215959657
    N            2.925030345723    -0.479611495381    -0.491089458380
    C            1.682613857531     0.273859794778    -0.455946155417
    H            3.011710941453    -1.063158223639     0.314682495943
    C            0.479613341155    -0.655334379938    -0.528866551367
    H            1.671399874180     0.937566421230    -1.313885966127
    H            1.592793433052     0.906254608840     0.428924827506
    C           -0.867392122520     0.084378031660    -0.454834196866
    H            0.546538434957    -1.246615807232    -1.433986578991
    H            0.542577921631    -1.369761760625     0.289083487561
    C           -1.561966916553    -0.024481871496     0.900255784318
    H           -1.531424320107    -0.278951606094    -1.232423693561
    H           -0.711538938838     1.136327049136    -0.683373883462
    C           -2.860845625172     0.770245601844     0.974924960137
    H           -1.765776120343    -1.070226999500     1.112925221863
    H           -0.884954503904     0.317229705448     1.679019823542
    H           -3.570196563130     0.430168396567     0.227629268192
    H           -3.329967620492     0.667099513775     1.946742353234
    H           -2.684102104358     1.826931652946     0.803420723368

  Mulliken Charges: (a.u.)
   Center  Symbol    Alpha    Beta     Spin     Total
       1     H     0.43018  0.43018  0.00000  0.13964
       2     N     3.68976  3.68976  0.00000 -0.37953
       3     C     3.02457  3.02457  0.00000 -0.04915
       4     H     0.43046  0.43046  0.00000  0.13908
       5     C     3.08989  3.08989  0.00000 -0.17978
       6     H     0.45619  0.45619  0.00000  0.08762
       7     H     0.46793  0.46793  0.00000  0.06414
       8     C     3.10334  3.10334  0.00000 -0.20668
       9     H     0.44321  0.44321  0.00000  0.11358
      10     H     0.46077  0.46077  0.00000  0.07846
      11     C     3.08154  3.08154  0.00000 -0.16307
      12     H     0.44662  0.44662  0.00000  0.10676
      13     H     0.45693  0.45693  0.00000  0.08615
      14     C     3.15026  3.15026  0.00000 -0.30052
      15     H     0.45391  0.45391  0.00000  0.09219
      16     H     0.45558  0.45558  0.00000  0.08884
      17     H     0.45480  0.45480  0.00000  0.09039
      18     H     0.44881  0.44881  0.00000  0.10238
      19     H     0.45525  0.45525  0.00000  0.08950

   Total alpha = 25.00000, Total beta = 25.00000, Total charge = -0.00000
