                              Psi4 1.0.54 Driver

  ==> Input File <==

--------------------------------------------------------------------------
set {
	reference rhf
	basis cc-pvtz
}

set_num_threads( 4 )
memory 2 gb

molecule MOL {
0 1

O	 0.803026	 1.957349	 0.415954
C	 -0.080195	 2.023698	 1.201180
C	 -1.342949	 1.201546	 1.169833
O	 -0.070477	 2.850429	 2.234039
C	 -1.413045	 0.229353	 0.001137
H	 -1.409928	 0.680344	 2.119223
H	 -2.177120	 1.895365	 1.154508
C	 -2.702562	 -0.586401	 0.000228
H	 -0.557661	 -0.435914	 0.036903
H	 -1.326244	 0.780189	 -0.928696
C	 -3.953810	 0.284959	 -0.000782
H	 -2.717793	 -1.238567	 -0.869075
H	 -2.719108	 -1.238472	 0.869576
H	 -3.983727	 0.924403	 -0.876454
H	 -4.852989	 -0.320147	 -0.001515
H	 -3.985140	 0.924399	 0.874841
C	 1.059744	 3.685098	 2.386509
H	 1.955914	 3.095001	 2.508545
H	 0.878149	 4.273289	 3.271338
H	 1.176462	 4.329587	 1.527885

	symmetry c1
}
set optking {
	frozen_dihedral = ("
		9 5 8 12
	")
}

ee,wfn = optimize('scf', return_wfn=True)
oeprop( wfn, 'DIPOLE', 'QUADRUPOLE', 'MULLIKEN_CHARGES')
f=open( 'psi4out.xyz', 'w' )
f.write( "20  " )
f.write( str(ee) + "\n" )
f.write( MOL.save_string_xyz() )
f.close()
--------------------------------------------------------------------------

    Molecular point group: c1
  Charge       = 0
  Multiplicity = 1
  Basis Set: CC-PVTZ
  Basis Set:
  @DF-RHF Final Energy:  -384.08010571291373
    Total Energy =                       -384.0801057129136780
    Molecular point group: c1
  Basis Set: CC-PVTZ
  Basis Set:
  Basis Set: CC-PVTZ
  Basis Set:
  @DF-RHF Final Energy:  -384.07980289646287
    Total Energy =                       -384.0798028964625246
  Basis Set: CC-PVTZ
  Basis Set:
  Basis Set: CC-PVTZ
  Basis Set:
  @DF-RHF Final Energy:  -384.08124978383250
    Total Energy =                       -384.0812497838325044
  Basis Set: CC-PVTZ
  Basis Set:
  Basis Set: CC-PVTZ
  Basis Set:
  @DF-RHF Final Energy:  -384.08126140438270
    Total Energy =                       -384.0812614043827580
  Basis Set: CC-PVTZ
  Basis Set:
  Basis Set: CC-PVTZ
  Basis Set:
  @DF-RHF Final Energy:  -384.08095285801124
    Total Energy =                       -384.0809528580111873
  Basis Set: CC-PVTZ
  Basis Set:
  Basis Set: CC-PVTZ
  Basis Set:
  @DF-RHF Final Energy:  -384.08132397625036
    Total Energy =                       -384.0813239762503599
  Basis Set: CC-PVTZ
  Basis Set:
  Basis Set: CC-PVTZ
  Basis Set:
  @DF-RHF Final Energy:  -384.08132786959862
    Total Energy =                       -384.0813278695990221
  Basis Set: CC-PVTZ
  Basis Set:
  Charge       = 0
  Multiplicity = 1
  Basis Set: CC-PVTZ
  Basis Set:

    Orbital Energies (a.u.)
    -----------------------

    Doubly Occupied:

       1A    -20.596222     2A    -20.534098     3A    -11.364554
       4A    -11.278431     5A    -11.233300     6A    -11.218759
       7A    -11.217577     8A    -11.210829     9A     -1.472175
      10A     -1.365742    11A     -1.089865    12A     -1.023401
      13A     -0.968449    14A     -0.896424    15A     -0.799978
      16A     -0.765340    17A     -0.703682    18A     -0.686043
      19A     -0.675808    20A     -0.637504    21A     -0.611102
      22A     -0.595714    23A     -0.569962    24A     -0.550096
      25A     -0.536699    26A     -0.524267    27A     -0.509870
      28A     -0.474887    29A     -0.471920    30A     -0.468744
      31A     -0.459058    32A     -0.440944

  @DF-RHF Final Energy:  -384.08132806153645

   => Energetics <=

    Nuclear Repulsion Energy =            385.7147877620106442
    One-Electron Energy =               -1287.6893449913868608
    Two-Electron Energy =                 517.8932291678395359
    DFT Exchange-Correlation Energy =       0.0000000000000000
    Empirical Dispersion Energy =           0.0000000000000000
    PCM Polarization Energy =               0.0000000000000000
    EFP Energy =                            0.0000000000000000
    Total Energy =                       -384.0813280615366239
    Molecular point group: c1
  Basis Set: CC-PVTZ
  Basis Set:

  -Total Gradient:
     Atom            X                  Y                   Z
    ------   -----------------  -----------------  -----------------
       1       -0.000003452827     0.000016788842     0.000030284051
       2       -0.000013536326     0.000013807372     0.000010400881
       3        0.000003295831    -0.000015352920    -0.000004537244
       4        0.000011671364    -0.000020194032    -0.000038441411
       5       -0.000228050173     0.000415272027    -0.002510821083
       6       -0.000005155493     0.000003364254    -0.000003245672
       7        0.000003865395    -0.000004464947    -0.000003857457
       8        0.001191642209    -0.001661110010     0.001489859838
       9        0.000010514093    -0.000096236758     0.001893738100
      10       -0.000002017992    -0.000003882091     0.000005705540
      11       -0.000013362857    -0.000005650581     0.000013253532
      12       -0.000982269681     0.001350655513    -0.000862569103
      13        0.000002688151     0.000001596207    -0.000003020464
      14       -0.000006136180    -0.000002641500     0.000002887984
      15        0.000014821486     0.000020754135     0.000006862563
      16        0.000003587919    -0.000015431555    -0.000028716962
      17        0.000014579434     0.000006250078     0.000005028222
      18       -0.000000496139     0.000002600018     0.000000138296
      19        0.000001556557    -0.000001481335    -0.000005984423
      20       -0.000003744765    -0.000004642719     0.000003034815

  **** Optimization is complete! (in 8 steps) ****
    Final optimized geometry and variables:
    Molecular point group: c1

    Geometry (in Angstrom), charge = 0, multiplicity = 1:

    O            1.737651102502     0.554083103699    -0.491517688873
    C            0.856498296537     0.557815921801     0.298757688865
    C           -0.410564631824    -0.253563704898     0.204359023028
    O            0.871787444494     1.296922521339     1.396170135570
    C           -0.477915795345    -1.127956824287    -1.042110847365
    H           -0.474537736503    -0.852937849706     1.107271099493
    H           -1.235270562594     0.447000750866     0.254678977832
    C           -1.699634696956    -2.047164335476    -1.086615101195
    H            0.419224993602    -1.733802193318    -1.076218867333
    H           -0.457835224995    -0.497175907506    -1.923668816759
    C           -3.047405938204    -1.330164076706    -1.030137162798
    H           -1.657168810679    -2.612408774919    -2.011890374745
    H           -1.641121735166    -2.770029658031    -0.277608666000
    H           -3.122868406007    -0.579296865708    -1.810307572584
    H           -3.860076664450    -2.033140220735    -1.171004922179
    H           -3.209015140858    -0.836908491530    -0.079023307160
    C            2.005380381183     2.112281264706     1.613590464307
    H            2.899793695196     1.511168773925     1.683810441450
    H            1.828372346839     2.626076996195     2.544485097499
    H            2.122104585283     2.825060237323     0.810758272918

  Mulliken Charges: (a.u.)
   Center  Symbol    Alpha    Beta     Spin     Total
       1     O     4.19668  4.19668  0.00000 -0.39336
       2     C     2.80604  2.80604  0.00000  0.38792
       3     C     3.10261  3.10261  0.00000 -0.20522
       4     O     4.14701  4.14701  0.00000 -0.29402
       5     C     3.08921  3.08921  0.00000 -0.17842
       6     H     0.43995  0.43995  0.00000  0.12010
       7     H     0.43849  0.43849  0.00000  0.12302
       8     C     3.09390  3.09390  0.00000 -0.18780
       9     H     0.44121  0.44121  0.00000  0.11758
      10     H     0.44584  0.44584  0.00000  0.10833
      11     C     3.15548  3.15548  0.00000 -0.31096
      12     H     0.44636  0.44636  0.00000  0.10729
      13     H     0.45340  0.45340  0.00000  0.09319
      14     H     0.45303  0.45303  0.00000  0.09394
      15     H     0.44490  0.44490  0.00000  0.11020
      16     H     0.45410  0.45410  0.00000  0.09180
      17     C     3.03792  3.03792  0.00000 -0.07585
      18     H     0.45427  0.45427  0.00000  0.09146
      19     H     0.44523  0.44523  0.00000  0.10953
      20     H     0.45437  0.45437  0.00000  0.09127

   Total alpha = 32.00000, Total beta = 32.00000, Total charge = -0.00000

*** Psi4 exiting successfully. Buy a developer a beer!
