  ==> Input File <==

--------------------------------------------------------------------------
set {
	reference rhf
	basis 6-31G*
}

set_num_threads( 1 )
memory 2 gb

molecule MOL {
0 1

H	 -3.311594	 0.193155	 -2.489083
O	 -2.964044	 -0.231824	 -1.718040
C	 -1.703565	 0.305745	 -1.410139
C	 -1.177863	 -0.397191	 -0.171080
H	 -1.013283	 0.163746	 -2.240593
H	 -1.778081	 1.376952	 -1.227651
C	 0.198102	 0.111031	 0.262842
H	 -1.135916	 -1.463681	 -0.374958
H	 -1.898135	 -0.260832	 0.630850
C	 1.331804	 -0.827780	 -0.158768
H	 0.361943	 1.100838	 -0.156218
H	 0.217265	 0.229072	 1.345532
C	 2.723619	 -0.410569	 0.329459
H	 1.342964	 -0.912588	 -1.244120
H	 1.116806	 -1.824343	 0.220779
C	 3.243875	 0.895854	 -0.272975
H	 3.424222	 -1.207124	 0.091250
H	 2.714788	 -0.329854	 1.414619
H	 3.251977	 0.848779	 -1.358681
H	 2.637085	 1.747371	 0.016682
H	 4.259473	 1.094070	 0.055697

	symmetry c1
}
set optking {
	frozen_dihedral = ("
		2 3 4 8,
		4 7 10 14,
		16 13 10 14,
		1 2 3 5
	")
}

ee = energy('scf')
oeprop('DIPOLE', 'QUADRUPOLE', 'MULLIKEN_CHARGES')
f=open( 'psi4out.xyz', 'w' )
f.write( "21  " )
f.write( str(ee) + "\n" )
f.write( MOL.save_string_xyz() )
f.close()
--------------------------------------------------------------------------

    Molecular point group: c1

    Geometry (in Angstrom), charge = 0, multiplicity = 1:

       Center              X                  Y                   Z               Mass
    ------------   -----------------  -----------------  -----------------  -----------------
           H         -3.490345052199     0.259963555269    -2.000511544008     1.007825032070
           O         -3.142795052199    -0.165015444731    -1.229468544008    15.994914619560
           C         -1.882316052199     0.372553555269    -0.921567544008    12.000000000000
           C         -1.356614052199    -0.330382444731     0.317491455992    12.000000000000
           H         -1.192034052199     0.230554555269    -1.752021544008     1.007825032070
           H         -1.956832052199     1.443760555269    -0.739079544008     1.007825032070
           C          0.019350947801     0.177839555269     0.751413455992    12.000000000000
           H         -1.314667052199    -1.396872444731     0.113613455992     1.007825032070
           H         -2.076886052199    -0.194023444731     1.119421455992     1.007825032070
           C          1.153052947801    -0.760971444731     0.329803455992    12.000000000000
           H          0.183191947801     1.167646555269     0.332353455992     1.007825032070
           H          0.038513947801     0.295880555269     1.834103455992     1.007825032070
           C          2.544867947801    -0.343760444731     0.818030455992    12.000000000000
           H          1.164212947801    -0.845779444731    -0.755548544008     1.007825032070
           H          0.938054947801    -1.757534444731     0.709350455992     1.007825032070
           C          3.065123947801     0.962662555269     0.215596455992    12.000000000000
           H          3.245470947801    -1.140315444731     0.579821455992     1.007825032070
           H          2.536036947801    -0.263045444731     1.903190455992     1.007825032070
           H          3.073225947801     0.915587555269    -0.870109544008     1.007825032070
           H          2.458333947801     1.814179555269     0.505253455992     1.007825032070
           H          4.080721947801     1.160878555269     0.544268455992     1.007825032070

  Charge       = 0
  Multiplicity = 1
  Basis Set: 6-31G*
  Basis Set:

    Orbital Energies (a.u.)
    -----------------------

    Doubly Occupied:

       1A    -20.551772     2A    -11.267375     3A    -11.215260
       4A    -11.214758     5A    -11.213921     6A    -11.209345
       7A    -11.208854     8A     -1.358634     9A     -1.087075
      10A     -1.032930    11A     -0.953049    12A     -0.878156
      13A     -0.809884    14A     -0.777367    15A     -0.693960
      16A     -0.647923    17A     -0.633938    18A     -0.608173
      19A     -0.587775    20A     -0.563615    21A     -0.541044
      22A     -0.521779    23A     -0.510128    24A     -0.492621
      25A     -0.475222    26A     -0.457472    27A     -0.456248
      28A     -0.445040    29A     -0.431022

  @DF-RHF Final Energy:  -310.20850541259369

   => Energetics <=

    Nuclear Repulsion Energy =            315.4937458188126129
    One-Electron Energy =               -1045.7158944538637115
    Two-Electron Energy =                 420.0136432224575742
    DFT Exchange-Correlation Energy =       0.0000000000000000
    Empirical Dispersion Energy =           0.0000000000000000
    PCM Polarization Energy =               0.0000000000000000
    EFP Energy =                            0.0000000000000000
    Total Energy =                       -310.2085054125935244

  Mulliken Charges: (a.u.)
   Center  Symbol    Alpha    Beta     Spin     Total
       1     H     0.28130  0.28130  0.00000  0.43740
       2     O     4.37159  4.37159  0.00000 -0.74318
       3     C     2.99259  2.99259  0.00000  0.01482
       4     C     3.16075  3.16075  0.00000 -0.32151
       5     H     0.43275  0.43275  0.00000  0.13450
       6     H     0.43231  0.43231  0.00000  0.13539
       7     C     3.16540  3.16540  0.00000 -0.33081
       8     H     0.41280  0.41280  0.00000  0.17441
       9     H     0.41241  0.41241  0.00000  0.17518
      10     C     3.15345  3.15345  0.00000 -0.30691
      11     H     0.42122  0.42122  0.00000  0.15756
      12     H     0.41878  0.41878  0.00000  0.16245
      13     C     3.15269  3.15269  0.00000 -0.30538
      14     H     0.42463  0.42463  0.00000  0.15074
      15     H     0.41997  0.41997  0.00000  0.16006
      16     C     3.24129  3.24129  0.00000 -0.48258
      17     H     0.42086  0.42086  0.00000  0.15829
      18     H     0.42303  0.42303  0.00000  0.15394
      19     H     0.42282  0.42282  0.00000  0.15436
      20     H     0.42038  0.42038  0.00000  0.15924
      21     H     0.41899  0.41899  0.00000  0.16203

   Total alpha = 29.00000, Total beta = 29.00000, Total charge =  0.00000
