                              Psi4 1.0.54 Driver

  ==> Input File <==

--------------------------------------------------------------------------
set {
	reference rhf
	basis cc-pvtz
}

set_num_threads( 4 )
memory 2 gb

molecule MOL {
0 1

O	 -1.543275	 1.238249	 0.032210
C	 -1.081510	 0.147522	 0.122720
C	 0.327029	 -0.064006	 0.641890
C	 -1.859988	 -1.079033	 -0.289354
C	 1.349460	 -0.017068	 -0.500215
H	 0.399029	 -1.014606	 1.159950
H	 0.538021	 0.726928	 1.350471
C	 2.779782	 -0.209014	 -0.009215
H	 1.115007	 -0.782959	 -1.233891
H	 1.259071	 0.936707	 -1.006644
H	 3.481860	 -0.160270	 -0.833072
H	 2.903471	 -1.171535	 0.475559
H	 3.052569	 0.559584	 0.705428
H	 -1.270048	 -1.701770	 -0.952623
H	 -2.779996	 -0.790162	 -0.773746
H	 -2.084571	 -1.672080	 0.591391

	symmetry c1
}
set optking {
	frozen_dihedral = ("
		4 2 3 5
	")
}

ee,wfn = optimize('scf', return_wfn=True)
oeprop( wfn, 'DIPOLE', 'QUADRUPOLE', 'MULLIKEN_CHARGES')
f=open( 'psi4out.xyz', 'w' )
f.write( "16  " )
f.write( str(ee) + "\n" )
f.write( MOL.save_string_xyz() )
f.close()
--------------------------------------------------------------------------

    Molecular point group: c1
  Charge       = 0
  Multiplicity = 1
  Basis Set: CC-PVTZ
  Basis Set:
  @DF-RHF Final Energy:  -270.12942413720316
    Total Energy =                       -270.1294241372032161
    Molecular point group: c1
  Basis Set: CC-PVTZ
  Basis Set:
  Basis Set: CC-PVTZ
  Basis Set:
  @DF-RHF Final Energy:  -270.12942289386763
    Total Energy =                       -270.1294228938675701
  Basis Set: CC-PVTZ
  Basis Set:
  Basis Set: CC-PVTZ
  Basis Set:
  @DF-RHF Final Energy:  -270.12941315711186
    Total Energy =                       -270.1294131571117418
  Basis Set: CC-PVTZ
  Basis Set:
  Basis Set: CC-PVTZ
  Basis Set:
  @DF-RHF Final Energy:  -270.12943178297473
    Total Energy =                       -270.1294317829746774
  Basis Set: CC-PVTZ
  Basis Set:
  Basis Set: CC-PVTZ
  Basis Set:
  @DF-RHF Final Energy:  -270.12942614360713
    Total Energy =                       -270.1294261436074748
  Basis Set: CC-PVTZ
  Basis Set:
  Basis Set: CC-PVTZ
  Basis Set:
  @DF-RHF Final Energy:  -270.12943397710114
    Total Energy =                       -270.1294339771008026
  Basis Set: CC-PVTZ
  Basis Set:
  Charge       = 0
  Multiplicity = 1
  Basis Set: CC-PVTZ
  Basis Set:

    Orbital Energies (a.u.)
    -----------------------

    Doubly Occupied:

       1A    -20.537478     2A    -11.319767     3A    -11.232182
       4A    -11.228538     5A    -11.227202     6A    -11.218020
       7A     -1.397465     8A     -1.084469     9A     -1.013847
      10A     -0.950771    11A     -0.830276    12A     -0.736676
      13A     -0.661303    14A     -0.651441    15A     -0.613764
      16A     -0.610351    17A     -0.577152    18A     -0.559047
      19A     -0.536871    20A     -0.520541    21A     -0.506039
      22A     -0.485444    23A     -0.474954    24A     -0.400600

  @DF-RHF Final Energy:  -270.12943415979419

   => Energetics <=

    Nuclear Repulsion Energy =            237.5266876179394728
    One-Electron Energy =                -836.5638482935989941
    Two-Electron Energy =                 328.9077265158651926
    DFT Exchange-Correlation Energy =       0.0000000000000000
    Empirical Dispersion Energy =           0.0000000000000000
    PCM Polarization Energy =               0.0000000000000000
    EFP Energy =                            0.0000000000000000
    Total Energy =                       -270.1294341597943003
    Molecular point group: c1
  Basis Set: CC-PVTZ
  Basis Set:

  -Total Gradient:
     Atom            X                  Y                   Z
    ------   -----------------  -----------------  -----------------
       1       -0.000004354368     0.000011785018     0.000000849328
       2       -0.000090550969    -0.000108672217     0.000243700224
       3        0.000058577611     0.000267534426    -0.000060837077
       4        0.000040827733     0.000020329263    -0.000136373579
       5       -0.000029470893    -0.000188989140    -0.000015010643
       6        0.000001132969    -0.000000114895    -0.000000507238
       7        0.000002036333     0.000000742877    -0.000000812631
       8        0.000004895618     0.000000311564     0.000006340212
       9        0.000000060305    -0.000000093563     0.000001385909
      10       -0.000000390429    -0.000000921449    -0.000003533946
      11       -0.000001101301     0.000000456168    -0.000000327332
      12       -0.000000949709    -0.000000643074    -0.000000223178
      13       -0.000002079943     0.000000191028    -0.000000349941
      14        0.000011996137     0.000004072468    -0.000014575337
      15        0.000002495639     0.000004656437    -0.000006655575
      16        0.000006875262    -0.000010644910    -0.000013069196

  **** Optimization is complete! (in 7 steps) ****
    Final optimized geometry and variables:
    Molecular point group: c1

    Geometry (in Angstrom), charge = 0, multiplicity = 1:

    O           -1.551401076806     1.232856174751     0.042894526340
    C           -1.083516017615     0.144446439715     0.130209300061
    C            0.327816475060    -0.062625455982     0.641997279816
    C           -1.860802025322    -1.085056261259    -0.277383749817
    C            1.349011403590    -0.014262930369    -0.501430093837
    H            0.401772511468    -1.015274389556     1.156855698147
    H            0.538626431499     0.726518396800     1.352039898979
    C            2.780051532798    -0.201002083224    -0.010169264193
    H            1.117906159264    -0.781298209721    -1.234418247202
    H            1.257252518428     0.939036009350    -1.009313302777
    H            3.481690770808    -0.155133521105    -0.834550659429
    H            2.905284989107    -1.160918091766     0.479303516471
    H            3.051645027562     0.571546302217     0.700550261364
    H           -1.267875495703    -1.720787646161    -0.924738768003
    H           -2.773831554347    -0.797767280887    -0.775755205337
    H           -2.100419533595    -1.663769506760     0.609014791418

  Mulliken Charges: (a.u.)
   Center  Symbol    Alpha    Beta     Spin     Total
       1     O     4.17648  4.17648  0.00000 -0.35295
       2     C     2.85782  2.85782  0.00000  0.28436
       3     C     3.09752  3.09752  0.00000 -0.19505
       4     C     3.15513  3.15513  0.00000 -0.31026
       5     C     3.09270  3.09270  0.00000 -0.18540
       6     H     0.45049  0.45049  0.00000  0.09903
       7     H     0.43900  0.43900  0.00000  0.12201
       8     C     3.14885  3.14885  0.00000 -0.29769
       9     H     0.45221  0.45221  0.00000  0.09558
      10     H     0.44191  0.44191  0.00000  0.11618
      11     H     0.44613  0.44613  0.00000  0.10773
      12     H     0.45490  0.45490  0.00000  0.09019
      13     H     0.45145  0.45145  0.00000  0.09711
      14     H     0.45106  0.45106  0.00000  0.09788
      15     H     0.43591  0.43591  0.00000  0.12818
      16     H     0.44845  0.44845  0.00000  0.10310

   Total alpha = 24.00000, Total beta = 24.00000, Total charge = -0.00000

*** Psi4 exiting successfully. Buy a developer a beer!
