  ==> Input File <==

--------------------------------------------------------------------------
set {
	reference rhf
	basis cc-pvtz
}

set_num_threads( 4 )
memory 2 gb

molecule MOL {
0 1

O	 0.395927	 1.296676	 -0.000076
C	 0.503051	 0.114301	 -0.000074
C	 -0.701422	 -0.805636	 -0.000109
C	 1.858118	 -0.556123	 0.000212
C	 -1.571060	 -0.688421	 1.241693
H	 -1.276337	 -0.592721	 -0.897647
H	 -0.337319	 -1.822257	 -0.124010
H	 -1.953927	 0.317120	 1.353623
H	 -2.411036	 -1.369800	 1.178303
H	 -1.006599	 -0.923317	 2.134127
H	 1.961106	 -1.191101	 -0.872843
H	 2.636688	 0.191085	 -0.000109
H	 1.961070	 -1.190284	 0.873873

	symmetry c1
}
set optking {
	frozen_dihedral = ("
		6 3 2 1
	")
}

ee = optimize('scf')
oeprop('DIPOLE', 'QUADRUPOLE', 'MULLIKEN_CHARGES')
f=open( 'psi4out.xyz', 'w' )
f.write( "13  " )
f.write( str(ee) + "\n" )
f.write( MOL.save_string_xyz() )
f.close()
--------------------------------------------------------------------------

    Molecular point group: c1
  Charge       = 0
  Multiplicity = 1
  Basis Set: CC-PVTZ
  Basis Set:
  @DF-RHF Final Energy:  -231.08056853460877
    Total Energy =                       -231.0805685346087728
    Molecular point group: c1
  Basis Set: CC-PVTZ
  Basis Set:
  Basis Set: CC-PVTZ
  Basis Set:
  @DF-RHF Final Energy:  -231.08134541471455
    Total Energy =                       -231.0813454147145194
  Basis Set: CC-PVTZ
  Basis Set:
  Basis Set: CC-PVTZ
  Basis Set:
  @DF-RHF Final Energy:  -231.08113652666242
    Total Energy =                       -231.0811365266625046
  Basis Set: CC-PVTZ
  Basis Set:
  Basis Set: CC-PVTZ
  Basis Set:
  @DF-RHF Final Energy:  -231.08137015825758
    Total Energy =                       -231.0813701582575277
  Basis Set: CC-PVTZ
  Basis Set:
  Charge       = 0
  Multiplicity = 1
  Basis Set: CC-PVTZ
  Basis Set:

    Orbital Energies (a.u.)
    -----------------------

    Doubly Occupied:

       1A    -20.538030     2A    -11.321176     3A    -11.231929
       4A    -11.228442     5A    -11.220824     6A     -1.398822
       7A     -1.063406     8A     -1.001101     9A     -0.880661
      10A     -0.733670    11A     -0.658759    12A     -0.646725
      13A     -0.612310    14A     -0.590650    15A     -0.571660
      16A     -0.536122    17A     -0.524373    18A     -0.503650
      19A     -0.482536    20A     -0.402449

  @DF-RHF Final Energy:  -231.08138458424366

   => Energetics <=

    Nuclear Repulsion Energy =            177.2486297074765389
    One-Electron Energy =                -664.3654391351074082
    Two-Electron Energy =                 256.0354248433871476
    DFT Exchange-Correlation Energy =       0.0000000000000000
    Empirical Dispersion Energy =           0.0000000000000000
    PCM Polarization Energy =               0.0000000000000000
    EFP Energy =                            0.0000000000000000
    Total Energy =                       -231.0813845842437217
    Molecular point group: c1
  Basis Set: CC-PVTZ
  Basis Set:

  -Total Gradient:
     Atom            X                  Y                   Z
    ------   -----------------  -----------------  -----------------
       1        0.000022814971    -0.000006706442    -0.000436620760
       2       -0.000000250353     0.000069280516     0.000648422326
       3        0.000252549493    -0.000414383421    -0.000442762300
       4        0.000021685632     0.000010886977    -0.000021150100
       5        0.000022300202     0.000005438754    -0.000047769862
       6       -0.000228273693     0.000308914967     0.000230617136
       7       -0.000012306110     0.000026373911     0.000014336070
       8        0.000001788744    -0.000003589658     0.000002580568
       9       -0.000028001329    -0.000015157285     0.000019798775
      10       -0.000006969021    -0.000004830130     0.000013473816
      11       -0.000017754321     0.000008731672     0.000005727890
      12       -0.000012029764     0.000003632525     0.000002123045
      13       -0.000015554451     0.000011407611     0.000011223396

  **** Optimization is complete! (in 5 steps) ****
    Final optimized geometry and variables:
    Molecular point group: c1

    Geometry (in Angstrom), charge = 0, multiplicity = 1:

    O            0.261320606619     1.402157231526    -0.215123805685
    C            0.411745652920     0.224630057002    -0.249963084626
    C           -0.784751306477    -0.712175382803    -0.270542950652
    C            1.784598240247    -0.399745535088    -0.280265128823
    C           -1.664930576455    -0.530438589205     0.966277632621
    H           -1.356461853627    -0.470926391745    -1.160012230818
    H           -0.460004484461    -1.741877805501    -0.357664080627
    H           -1.998119182251     0.494831906094     1.044920133199
    H           -2.534587610504    -1.173272620320     0.910107313180
    H           -1.124950759348    -0.780303223829     1.873036097153
    H            1.896682026986    -0.994788511687    -1.180700162202
    H            2.544226335719     0.366034747632    -0.249388769121
    H            1.902319907952    -1.072289203302     0.563215440254

  Mulliken Charges: (a.u.)
   Center  Symbol    Alpha    Beta     Spin     Total
       1     O     4.17570  4.17570  0.00000 -0.35140
       2     C     2.85499  2.85499  0.00000  0.29002
       3     C     3.09868  3.09868  0.00000 -0.19736
       4     C     3.15216  3.15216  0.00000 -0.30431
       5     C     3.14539  3.14539  0.00000 -0.29077
       6     H     0.44321  0.44321  0.00000  0.11358
       7     H     0.44866  0.44866  0.00000  0.10267
       8     H     0.44062  0.44062  0.00000  0.11875
       9     H     0.44835  0.44835  0.00000  0.10330
      10     H     0.45562  0.45562  0.00000  0.08875
      11     H     0.44952  0.44952  0.00000  0.10095
      12     H     0.43654  0.43654  0.00000  0.12693
      13     H     0.45056  0.45056  0.00000  0.09889

   Total alpha = 20.00000, Total beta = 20.00000, Total charge = -0.00000
