                              Psi4 1.0.54 Driver

  ==> Input File <==

--------------------------------------------------------------------------
set {
	reference rhf
	basis cc-pvtz
}

set_num_threads( 4 )
memory 2 gb

molecule MOL {
0 1

H	 1.835876	 -1.294351	 0.135155
C	 1.948180	 -0.217873	 0.320185
C	 0.692262	 0.592428	 0.156232
O	 3.002999	 0.223635	 0.620287
C	 -0.554654	 -0.292621	 0.086567
H	 0.791858	 1.203694	 -0.731051
H	 0.617379	 1.254358	 1.016534
C	 -1.846385	 0.513195	 -0.016346
H	 -0.473986	 -0.956115	 -0.769708
H	 -0.597929	 -0.929215	 0.966651
C	 -3.089953	 -0.365049	 -0.098564
H	 -1.798267	 1.154820	 -0.891143
H	 -1.925398	 1.173265	 0.842889
H	 -3.055079	 -1.012299	 -0.968245
H	 -3.988403	 0.236438	 -0.170014
H	 -3.183055	 -0.995885	 0.779079

	symmetry c1
}
set optking {
	frozen_dihedral = ("
		4 2 3 6
	")
}

ee,wfn = optimize('scf', return_wfn=True)
oeprop( wfn, 'DIPOLE', 'QUADRUPOLE', 'MULLIKEN_CHARGES')
f=open( 'psi4out.xyz', 'w' )
f.write( "16  " )
f.write( str(ee) + "\n" )
f.write( MOL.save_string_xyz() )
f.close()
--------------------------------------------------------------------------

    Molecular point group: c1
  Charge       = 0
  Multiplicity = 1
  Basis Set: CC-PVTZ
  Basis Set:
  @DF-RHF Final Energy:  -270.11747847819004
    Total Energy =                       -270.1174784781900939
    Molecular point group: c1
  Basis Set: CC-PVTZ
  Basis Set:
  Basis Set: CC-PVTZ
  Basis Set:
  @DF-RHF Final Energy:  -270.11794174324802
    Total Energy =                       -270.1179417432481955
  Basis Set: CC-PVTZ
  Basis Set:
  Basis Set: CC-PVTZ
  Basis Set:
  @DF-RHF Final Energy:  -270.11778226910701
    Total Energy =                       -270.1177822691067831
  Basis Set: CC-PVTZ
  Basis Set:
  Basis Set: CC-PVTZ
  Basis Set:
  @DF-RHF Final Energy:  -270.11796801201126
    Total Energy =                       -270.1179680120113744
  Basis Set: CC-PVTZ
  Basis Set:
  Basis Set: CC-PVTZ
  Basis Set:
  @DF-RHF Final Energy:  -270.11798395394646
    Total Energy =                       -270.1179839539465775
  Basis Set: CC-PVTZ
  Basis Set:
  Charge       = 0
  Multiplicity = 1
  Basis Set: CC-PVTZ
  Basis Set:

    Orbital Energies (a.u.)
    -----------------------

    Doubly Occupied:

       1A    -20.551355     2A    -11.322523     3A    -11.234343
       4A    -11.232387     5A    -11.227420     6A    -11.216900
       7A     -1.407171     8A     -1.097920     9A     -1.019585
      10A     -0.905567    11A     -0.812568    12A     -0.797481
      13A     -0.668351    14A     -0.659447    15A     -0.634850
      16A     -0.603296    17A     -0.591168    18A     -0.544160
      19A     -0.538568    20A     -0.498207    21A     -0.491558
      22A     -0.486435    23A     -0.478459    24A     -0.411925

  @DF-RHF Final Energy:  -270.11798389116620

   => Energetics <=

    Nuclear Repulsion Energy =            228.5285419275701884
    One-Electron Energy =                -818.4297561198229687
    Two-Electron Energy =                 319.7832303010864052
    DFT Exchange-Correlation Energy =       0.0000000000000000
    Empirical Dispersion Energy =           0.0000000000000000
    PCM Polarization Energy =               0.0000000000000000
    EFP Energy =                            0.0000000000000000
    Total Energy =                       -270.1179838911664319
    Molecular point group: c1
  Basis Set: CC-PVTZ
  Basis Set:

  -Total Gradient:
     Atom            X                  Y                   Z
    ------   -----------------  -----------------  -----------------
       1        0.000012704347     0.000022637352     0.000004021047
       2       -0.000084156274    -0.000080607018     0.001186174354
       3       -0.000277500668    -0.000573127486    -0.000776282484
       4        0.000119330774     0.000093477236    -0.000759016111
       5       -0.000022050302     0.000008081388    -0.000043177527
       6        0.000262391385     0.000511780253     0.000399766550
       7       -0.000001725046     0.000021544936    -0.000006629756
       8       -0.000005214651    -0.000015274835     0.000025525103
       9       -0.000018251683    -0.000008486427    -0.000015925033
      10        0.000027574192     0.000014564852    -0.000012683957
      11       -0.000009592590     0.000004926054    -0.000007603203
      12       -0.000000677986    -0.000002969903     0.000001762679
      13       -0.000001707272     0.000006095227     0.000005864202
      14        0.000000466596    -0.000005075336    -0.000001144758
      15       -0.000002572713    -0.000001443438    -0.000002303862
      16        0.000000981893     0.000003877145     0.000001652757

  **** Optimization is complete! (in 6 steps) ****
    Final optimized geometry and variables:
    Molecular point group: c1

    Geometry (in Angstrom), charge = 0, multiplicity = 1:

    H            1.899800207529    -1.333203178601    -0.096339223285
    C            1.951401090319    -0.258430914362     0.120643345339
    C            0.652989718685     0.505090819104     0.007334815181
    O            2.985670267818     0.237763241154     0.404714010571
    C           -0.581268212643    -0.385840938218    -0.072895750519
    H            0.734514573168     1.130323454316    -0.877824465283
    H            0.598861104679     1.182965144653     0.851686469994
    C           -1.880756586424     0.404172310878    -0.193167118856
    H           -0.488937005961    -1.056001326896    -0.924058107979
    H           -0.627159068727    -1.019576041540     0.809477310823
    C           -3.115402203175    -0.486806382854    -0.272564714007
    H           -1.834006082023     1.036832253991    -1.075092165318
    H           -1.972290296600     1.073800017964     0.657161925891
    H           -3.068661019307    -1.145227691733    -1.133462957514
    H           -4.019229953846     0.104710100695    -0.357724670835
    H           -3.208213633407    -1.106983450420     0.612603169108

  Mulliken Charges: (a.u.)
   Center  Symbol    Alpha    Beta     Spin     Total
       1     H     0.46218  0.46218  0.00000  0.07564
       2     C     2.91469  2.91469  0.00000  0.17062
       3     C     3.08133  3.08133  0.00000 -0.16265
       4     O     4.16472  4.16472  0.00000 -0.32944
       5     C     3.10301  3.10301  0.00000 -0.20602
       6     H     0.44108  0.44108  0.00000  0.11784
       7     H     0.43884  0.43884  0.00000  0.12233
       8     C     3.08453  3.08453  0.00000 -0.16906
       9     H     0.45183  0.45183  0.00000  0.09634
      10     H     0.44976  0.44976  0.00000  0.10048
      11     C     3.14908  3.14908  0.00000 -0.29816
      12     H     0.45249  0.45249  0.00000  0.09501
      13     H     0.45163  0.45163  0.00000  0.09674
      14     H     0.45436  0.45436  0.00000  0.09129
      15     H     0.44645  0.44645  0.00000  0.10710
      16     H     0.45402  0.45402  0.00000  0.09195

   Total alpha = 24.00000, Total beta = 24.00000, Total charge = -0.00000

*** Psi4 exiting successfully. Buy a developer a beer!
