                              Psi4 1.0.54 Driver

  ==> Input File <==

--------------------------------------------------------------------------
set {
	reference rhf
	basis cc-pvtz
}

set_num_threads( 4 )
memory 2 gb

molecule MOL {
0 1

H	 3.721907	 -0.933076	 -0.066039
O	 2.824271	 -1.154299	 0.131461
C	 2.076458	 -0.067370	 -0.038225
C	 0.626018	 -0.337582	 0.258241
O	 2.538288	 0.965419	 -0.381593
C	 -0.267326	 0.883135	 0.076490
H	 0.325620	 -1.161483	 -0.378003
H	 0.574537	 -0.713685	 1.275261
C	 -1.726822	 0.642622	 0.463839
H	 -0.210803	 1.217591	 -0.953497
H	 0.129920	 1.693110	 0.675679
C	 -2.480891	 -0.340606	 -0.429852
H	 -2.243098	 1.597649	 0.438609
H	 -1.776542	 0.301208	 1.495542
C	 -3.925668	 0.079631	 -0.679845
H	 -1.961831	 -0.428199	 -1.380608
H	 -2.475072	 -1.330972	 0.014105
H	 -4.436895	 -0.632405	 -1.317287
H	 -3.972745	 1.049871	 -1.162667
H	 -4.479647	 0.147613	 0.250553

	symmetry c1
}
set optking {
	frozen_dihedral = ("
		16 12 9 6
	")
}

ee,wfn = optimize('scf', return_wfn=True)
oeprop( wfn, 'DIPOLE', 'QUADRUPOLE', 'MULLIKEN_CHARGES')
f=open( 'psi4out.xyz', 'w' )
f.write( "20  " )
f.write( str(ee) + "\n" )
f.write( MOL.save_string_xyz() )
f.close()
--------------------------------------------------------------------------

    Molecular point group: c1
  Charge       = 0
  Multiplicity = 1
  Basis Set: CC-PVTZ
  Basis Set:
  @DF-RHF Final Energy:  -384.09158516829694
    Total Energy =                       -384.0915851682966604
    Molecular point group: c1
  Basis Set: CC-PVTZ
  Basis Set:
  Basis Set: CC-PVTZ
  Basis Set:
  @DF-RHF Final Energy:  -384.09185139209495
    Total Energy =                       -384.0918513920943269
  Basis Set: CC-PVTZ
  Basis Set:
  Basis Set: CC-PVTZ
  Basis Set:
  @DF-RHF Final Energy:  -384.09188664108530
    Total Energy =                       -384.0918866410854093
  Basis Set: CC-PVTZ
  Basis Set:
  Basis Set: CC-PVTZ
  Basis Set:
  @DF-RHF Final Energy:  -384.09193061481636
    Total Energy =                       -384.0919306148165333
  Basis Set: CC-PVTZ
  Basis Set:
  Basis Set: CC-PVTZ
  Basis Set:
  @DF-RHF Final Energy:  -384.09175817152965
    Total Energy =                       -384.0917581715302731
  Basis Set: CC-PVTZ
  Basis Set:
  Basis Set: CC-PVTZ
  Basis Set:
  @DF-RHF Final Energy:  -384.09194472360764
    Total Energy =                       -384.0919447236072983
  Basis Set: CC-PVTZ
  Basis Set:
  Charge       = 0
  Multiplicity = 1
  Basis Set: CC-PVTZ
  Basis Set:

    Orbital Energies (a.u.)
    -----------------------

    Doubly Occupied:

       1A    -20.603811     2A    -20.540427     3A    -11.373303
       4A    -11.238465     5A    -11.221206     6A    -11.218819
       7A    -11.218013     8A    -11.210989     9A     -1.477329
      10A     -1.368872    11A     -1.097023    12A     -1.041054
      13A     -0.962537    14A     -0.870514    15A     -0.818986
      16A     -0.777131    17A     -0.703603    18A     -0.692136
      19A     -0.668184    20A     -0.634881    21A     -0.601759
      22A     -0.598596    23A     -0.575108    24A     -0.564742
      25A     -0.533991    26A     -0.515024    27A     -0.499030
      28A     -0.484325    29A     -0.471459    30A     -0.464319
      31A     -0.458170    32A     -0.445945

  @DF-RHF Final Energy:  -384.09194515860963

   => Energetics <=

    Nuclear Repulsion Energy =            376.8446170930462813
    One-Electron Energy =               -1269.9736189209188524
    Two-Electron Energy =                 509.0370566692631655
    DFT Exchange-Correlation Energy =       0.0000000000000000
    Empirical Dispersion Energy =           0.0000000000000000
    PCM Polarization Energy =               0.0000000000000000
    EFP Energy =                            0.0000000000000000
    Total Energy =                       -384.0919451586094056
    Molecular point group: c1
  Basis Set: CC-PVTZ
  Basis Set:

  -Total Gradient:
     Atom            X                  Y                   Z
    ------   -----------------  -----------------  -----------------
       1       -0.000025110088     0.000022719541     0.000000163806
       2       -0.000004706120    -0.000109822590     0.000050023658
       3       -0.000008154297    -0.000026022710    -0.000083738235
       4        0.000029981593    -0.000004639746     0.000003591304
       5       -0.000000425217     0.000125784912     0.000005531434
       6       -0.000834142960     0.002298640321    -0.001802542506
       7       -0.000006328970    -0.000017305562    -0.000003575456
       8       -0.000000507267    -0.000008512782     0.000036511147
       9        0.001726813741    -0.004003444081     0.002924887136
      10       -0.000000423384     0.000012264281    -0.000022845373
      11       -0.000002679140     0.000000648222     0.000009449955
      12       -0.003148526186     0.004783378289    -0.002672073527
      13       -0.000005521824     0.000012767303    -0.000007341844
      14       -0.000003386477    -0.000006823901     0.000003575867
      15        0.000002279674     0.000018745463     0.000008200034
      16        0.002269728242    -0.003093452493     0.001540373531
      17        0.000024133389    -0.000018876710     0.000008809875
      18        0.000010960640    -0.000010752321     0.000000761321
      19       -0.000011738241     0.000019408492    -0.000017284234
      20       -0.000012247106     0.000005296073     0.000017522107

  **** Optimization is complete! (in 7 steps) ****
    Final optimized geometry and variables:
    Molecular point group: c1

    Geometry (in Angstrom), charge = 0, multiplicity = 1:

    H            3.694437640570    -1.029383200222    -0.026844807497
    O            2.799356518966    -1.235563576826     0.196834966267
    C            2.061883099643    -0.141022049803     0.030545439110
    C            0.616122477028    -0.386360975693     0.367431540510
    O            2.527761646563     0.880890686511    -0.339358035962
    C           -0.265839614856     0.844780737389     0.201676685547
    H            0.282602170819    -1.209267240118    -0.254850037482
    H            0.584626672282    -0.755855361315     1.387654065084
    C           -1.729356877807     0.591970417738     0.562772867398
    H           -0.200480743810     1.198486333302    -0.820868571176
    H            0.126778650473     1.640875798461     0.822637849277
    C           -2.458124826541    -0.399212990227    -0.360528992860
    H           -2.240325682304     1.548861801080     0.519748765790
    H           -1.805801857821     0.260916859733     1.594552323352
    C           -3.916590852517    -0.034086068454    -0.609822457860
    H           -1.926379551287    -0.482185519020    -1.303993793388
    H           -2.416255004144    -1.394787184272     0.072034270098
    H           -4.407758549770    -0.775737831579    -1.229184478526
    H           -3.998671154059     0.925040696802    -1.109762653009
    H           -4.465446961451     0.033478126815     0.323816516045

  Mulliken Charges: (a.u.)
   Center  Symbol    Alpha    Beta     Spin     Total
       1     H     0.38236  0.38236  0.00000  0.23527
       2     O     4.16036  4.16036  0.00000 -0.32071
       3     C     2.80396  2.80396  0.00000  0.39207
       4     C     3.10966  3.10966  0.00000 -0.21933
       5     O     4.19124  4.19124  0.00000 -0.38247
       6     C     3.09353  3.09353  0.00000 -0.18706
       7     H     0.43622  0.43622  0.00000  0.12756
       8     H     0.43779  0.43779  0.00000  0.12441
       9     C     3.10121  3.10121  0.00000 -0.20242
      10     H     0.44517  0.44517  0.00000  0.10967
      11     H     0.44049  0.44049  0.00000  0.11901
      12     C     3.09176  3.09176  0.00000 -0.18353
      13     H     0.44672  0.44672  0.00000  0.10655
      14     H     0.45092  0.45092  0.00000  0.09816
      15     C     3.14766  3.14766  0.00000 -0.29532
      16     H     0.45252  0.45252  0.00000  0.09496
      17     H     0.45153  0.45153  0.00000  0.09693
      18     H     0.44876  0.44876  0.00000  0.10248
      19     H     0.45428  0.45428  0.00000  0.09144
      20     H     0.45383  0.45383  0.00000  0.09233

   Total alpha = 32.00000, Total beta = 32.00000, Total charge =  0.00000

*** Psi4 exiting successfully. Buy a developer a beer!
