  ==> Input File <==

--------------------------------------------------------------------------
set {
	reference rhf
	basis 6-31G*
}

set_num_threads( 4 )
memory 2 gb

molecule MOL {
0 1

O	 -2.821601	 1.309235	 -0.001213
C	 -2.668563	 0.129746	 -0.000350
C	 -3.801572	 -0.864014	 -0.000442
O	 -1.481751	 -0.454642	 0.000584
H	 -4.417280	 -0.689587	 -0.874708
H	 -3.443784	 -1.883046	 -0.000565
H	 -4.417179	 -0.689832	 0.873954
C	 -0.334255	 0.388708	 0.000906
C	 0.891947	 -0.504646	 0.000751
H	 -0.365390	 1.025305	 -0.873475
H	 -0.365484	 1.024911	 0.875569
C	 2.191998	 0.301789	 0.000897
H	 0.855148	 -1.151283	 -0.871571
H	 0.855132	 -1.151660	 0.872805
C	 3.441114	 -0.581407	 0.000108
H	 2.215074	 0.954890	 -0.869742
H	 2.215465	 0.953923	 0.872248
C	 4.735266	 0.218143	 -0.143959
H	 3.370116	 -1.303326	 -0.810366
H	 3.473510	 -1.158642	 0.921423
H	 4.747506	 0.780527	 -1.073254
H	 5.602307	 -0.434903	 -0.141349
H	 4.851850	 0.926038	 0.671702

	symmetry c1
}
set optking {
	frozen_dihedral = ("
		19 15 12 16
	")
}

ee = optimize('scf')
oeprop('DIPOLE', 'QUADRUPOLE', 'MULLIKEN_CHARGES')
f=open( 'psi4out.xyz', 'w' )
f.write( "23  " )
f.write( str(ee) + "\n" )
f.write( MOL.save_string_xyz() )
f.close()
--------------------------------------------------------------------------

    Molecular point group: c1
  Charge       = 0
  Multiplicity = 1
  Basis Set: 6-31G*
  Basis Set:
  @DF-RHF Final Energy:  -422.97939389364637
    Total Energy =                       -422.9793938936468294
    Molecular point group: c1
  Basis Set: 6-31G*
  Basis Set:
  Basis Set: 6-31G*
  Basis Set:
  @DF-RHF Final Energy:  -422.97940173569674
    Total Energy =                       -422.9794017356967970
  Basis Set: 6-31G*
  Basis Set:
  Basis Set: 6-31G*
  Basis Set:
  @DF-RHF Final Energy:  -422.97941326265465
    Total Energy =                       -422.9794132626551573
  Basis Set: 6-31G*
  Basis Set:
  Basis Set: 6-31G*
  Basis Set:
  @DF-RHF Final Energy:  -422.97939288188383
    Total Energy =                       -422.9793928818836548
  Basis Set: 6-31G*
  Basis Set:
  Basis Set: 6-31G*
  Basis Set:
  @DF-RHF Final Energy:  -422.97941777788895
    Total Energy =                       -422.9794177778891253
  Basis Set: 6-31G*
  Basis Set:
  Charge       = 0
  Multiplicity = 1
  Basis Set: 6-31G*
  Basis Set:

    Orbital Energies (a.u.)
    -----------------------

    Doubly Occupied:

       1A    -20.603051     2A    -20.540572     3A    -11.374122
       4A    -11.281553     5A    -11.232409     6A    -11.224505
       7A    -11.223837     8A    -11.221692     9A    -11.213085
      10A     -1.468006    11A     -1.360781    12A     -1.094257
      13A     -1.042293    14A     -1.003510    15A     -0.931003
      16A     -0.841823    17A     -0.802852    18A     -0.774478
      19A     -0.692227    20A     -0.685098    21A     -0.667984
      22A     -0.646227    23A     -0.606030    24A     -0.588601
      25A     -0.582289    26A     -0.566788    27A     -0.558656
      28A     -0.537349    29A     -0.523255    30A     -0.505040
      31A     -0.491097    32A     -0.478478    33A     -0.470450
      34A     -0.465805    35A     -0.451273    36A     -0.435392

  @DF-RHF Final Energy:  -422.97941778453253

   => Energetics <=

    Nuclear Repulsion Energy =            449.6034258729797557
    One-Electron Energy =               -1466.7939514947129283
    Two-Electron Energy =                 594.2111078372007569
    DFT Exchange-Correlation Energy =       0.0000000000000000
    Empirical Dispersion Energy =           0.0000000000000000
    PCM Polarization Energy =               0.0000000000000000
    EFP Energy =                            0.0000000000000000
    Total Energy =                       -422.9794177845324157
    Molecular point group: c1
  Basis Set: 6-31G*
  Basis Set:

  -Total Gradient:
     Atom            X                  Y                   Z
    ------   -----------------  -----------------  -----------------
       1       -0.000000337430     0.000000161955     0.000005341959
       2        0.000000102522    -0.000000405094    -0.000014513688
       3        0.000000299013     0.000000234825     0.000008873006
       4       -0.000002012711     0.000000022021    -0.000002016016
       5        0.000001449594    -0.000000233171    -0.000001502444
       6        0.000000136776     0.000000022985    -0.000000160582
       7       -0.000001291757     0.000000382554    -0.000001375457
       8        0.000002143680     0.000000448236     0.000008434807
       9       -0.000001426228    -0.000002934537    -0.000003293915
      10       -0.000002566054     0.000000360130    -0.000001901692
      11        0.000002671124    -0.000000859623    -0.000002247671
      12       -0.000793956300    -0.001142045467    -0.000571822906
      13        0.000002111147    -0.000000547937     0.000000998900
      14        0.000000511645     0.000002911783     0.000000376719
      15        0.000767507978     0.001085984437    -0.000730690181
      16        0.000548353424     0.000783777688     0.000604919031
      17       -0.000003178116     0.000000707532     0.000005319014
      18        0.000002587709     0.000002820679     0.000002120922
      19       -0.000523142229    -0.000729028409     0.000692647726
      20        0.000003544269     0.000002035850     0.000001369315
      21        0.000001408541    -0.000004732980    -0.000001571765
      22       -0.000001132199    -0.000000780265     0.000003654388
      23       -0.000003784397     0.000001696807    -0.000002959468

  **** Optimization is complete! (in 6 steps) ****
    Final optimized geometry and variables:
    Molecular point group: c1

    Geometry (in Angstrom), charge = 0, multiplicity = 1:

    O           -2.821389774160     1.309972423154     0.030485758452
    C           -2.668444976084     0.130489520054     0.023391192474
    C           -3.801572437399    -0.863136506812     0.023827385600
    O           -1.481734419073    -0.454048870461     0.014461378088
    H           -4.422481439580    -0.683153594727    -0.845613964078
    H           -3.443933110513    -1.882187822726     0.015199398486
    H           -4.411906337868    -0.694375783621     0.902971354044
    C           -0.334091483773     0.389130759270     0.013421795889
    C            0.891903670865    -0.504389055140     0.002314131525
    H           -0.369384197491     1.030320966022    -0.857452219095
    H           -0.360748378220     1.020705158636     0.891556085022
    C            2.191752908546     0.301482753807    -0.003524774227
    H            0.849369196162    -1.148162276391    -0.871778577724
    H            0.860831965177    -1.154258812866     0.872549685904
    C            3.442325446816    -0.579999086751     0.010160908786
    H            2.218948984438     0.951790862931    -0.876183635942
    H            2.214358009342     0.961430917834     0.862201636774
    C            4.738199713813     0.219512599540    -0.112464753275
    H            3.381407595470    -1.306615452997    -0.797021974286
    H            3.460078833044    -1.157264472513     0.932064156556
    H            4.770945298600     0.772723767592    -1.046685199226
    H            5.605666323851    -0.432271312676    -0.083319208952
    H            4.835227648653     0.935600231438     0.698663509467

  Mulliken Charges: (a.u.)
   Center  Symbol    Alpha    Beta     Spin     Total
       1     O     4.28390  4.28390  0.00000 -0.56780
       2     C     2.61531  2.61531  0.00000  0.76937
       3     C     3.28774  3.28774  0.00000 -0.57549
       4     O     4.31275  4.31275  0.00000 -0.62549
       5     H     0.39750  0.39750  0.00000  0.20501
       6     H     0.39986  0.39986  0.00000  0.20029
       7     H     0.39750  0.39750  0.00000  0.20501
       8     C     2.99562  2.99562  0.00000  0.00875
       9     C     3.16481  3.16481  0.00000 -0.32961
      10     H     0.41061  0.41061  0.00000  0.17878
      11     H     0.41062  0.41062  0.00000  0.17876
      12     C     3.16017  3.16017  0.00000 -0.32034
      13     H     0.41412  0.41412  0.00000  0.17176
      14     H     0.41423  0.41423  0.00000  0.17154
      15     C     3.15149  3.15149  0.00000 -0.30297
      16     H     0.42079  0.42079  0.00000  0.15842
      17     H     0.42077  0.42077  0.00000  0.15845
      18     C     3.23989  3.23989  0.00000 -0.47978
      19     H     0.42148  0.42148  0.00000  0.15704
      20     H     0.42135  0.42135  0.00000  0.15729
      21     H     0.42076  0.42076  0.00000  0.15849
      22     H     0.41795  0.41795  0.00000  0.16411
      23     H     0.42078  0.42078  0.00000  0.15843

   Total alpha = 36.00000, Total beta = 36.00000, Total charge =  0.00000
