                              Psi4 1.0.54 Driver

  ==> Input File <==

--------------------------------------------------------------------------
set {
	reference rhf
	basis cc-pvtz
}

set_num_threads( 4 )
memory 2 gb

molecule MOL {
0 1

H	 1.428950	 -0.398733	 -3.027909
C	 1.428732	 -0.094460	 -1.986658
C	 0.081159	 -0.403421	 -1.348619
H	 1.631498	 0.968324	 -1.938739
H	 2.243680	 -0.611168	 -1.495124
N	 0.000297	 0.000045	 0.046090
H	 -0.680756	 0.127545	 -1.902403
H	 -0.148463	 -1.466604	 -1.461963
C	 -1.359159	 0.315706	 0.454404
C	 0.639923	 -0.954024	 0.937805
C	 -2.416729	 -0.286720	 -0.460525
H	 -1.478729	 1.390261	 0.442008
H	 -1.539692	 0.003361	 1.486761
C	 1.170058	 -0.319513	 2.216395
H	 1.473829	 -1.403198	 0.416362
H	 -0.039616	 -1.774524	 1.184623
H	 -2.285276	 0.073129	 -1.473515
H	 -2.371743	 -1.368476	 -0.483209
H	 -3.408658	 -0.007405	 -0.121593
H	 1.896519	 0.448355	 1.980721
H	 0.383529	 0.136007	 2.805165
H	 1.650065	 -1.069569	 2.835928

	symmetry c1
}
set optking {
	frozen_dihedral = ("
		3 6 9 11
	")
}

ee,wfn = optimize('scf', return_wfn=True)
oeprop( wfn, 'DIPOLE', 'QUADRUPOLE', 'MULLIKEN_CHARGES')
f=open( 'psi4out.xyz', 'w' )
f.write( "22  " )
f.write( str(ee) + "\n" )
f.write( MOL.save_string_xyz() )
f.close()
--------------------------------------------------------------------------

    Molecular point group: c1
  Charge       = 0
  Multiplicity = 1
  Basis Set: CC-PVTZ
  Basis Set:
  @DF-RHF Final Energy:  -290.45952731205966
    Total Energy =                       -290.4595273120597199
    Molecular point group: c1
  Basis Set: CC-PVTZ
  Basis Set:
  Basis Set: CC-PVTZ
  Basis Set:
  @DF-RHF Final Energy:  -290.31538544182956
    Total Energy =                       -290.3153854418293349
  Basis Set: CC-PVTZ
  Basis Set:
  Basis Set: CC-PVTZ
  Basis Set:
  @DF-RHF Final Energy:  -290.42059719124313
    Total Energy =                       -290.4205971912431323
  Basis Set: CC-PVTZ
  Basis Set:
  Basis Set: CC-PVTZ
  Basis Set:
  @DF-RHF Final Energy:  -290.45735759603724
    Total Energy =                       -290.4573575960371272
  Basis Set: CC-PVTZ
  Basis Set:
  @DF-RHF Final Energy:  -290.30646264263311
    Total Energy =                       -290.3064626426330506
  @DF-RHF Final Energy:  -290.44157452554839
    Total Energy =                       -290.4415745255482193
  @DF-RHF Final Energy:  -290.46628456605464
    Total Energy =                       -290.4662845660545827
  @DF-RHF Final Energy:  -290.46718908388232
    Total Energy =                       -290.4671890838824311
  Basis Set: CC-PVTZ
  Basis Set:
  @DF-RHF Final Energy:  -290.46746392876651
    Total Energy =                       -290.4674639287666764
  Basis Set: CC-PVTZ
  Basis Set:
  Basis Set: CC-PVTZ
  Basis Set:
  @DF-RHF Final Energy:  -290.46753832375236
    Total Energy =                       -290.4675383237524784
  Basis Set: CC-PVTZ
  Basis Set:
  Basis Set: CC-PVTZ
  Basis Set:
  @DF-RHF Final Energy:  -290.46754946247489
    Total Energy =                       -290.4675494624748353
  Basis Set: CC-PVTZ
  Basis Set:
  Charge       = 0
  Multiplicity = 1
  Basis Set: CC-PVTZ
  Basis Set:

    Orbital Energies (a.u.)
    -----------------------

    Doubly Occupied:

       1A    -15.529568     2A    -11.239055     3A    -11.237645
       4A    -11.236914     5A    -11.208613     6A    -11.202228
       7A    -11.201883     8A     -1.219468     9A     -1.023797
      10A     -1.022714    11A     -0.956747    12A     -0.857650
      13A     -0.845059    14A     -0.759235    15A     -0.657386
      16A     -0.643005    17A     -0.618206    18A     -0.597947
      19A     -0.581169    20A     -0.545794    21A     -0.540940
      22A     -0.516759    23A     -0.512452    24A     -0.504058
      25A     -0.493536    26A     -0.491133    27A     -0.466142
      28A     -0.456880    29A     -0.334991

  @DF-RHF Final Energy:  -290.46755036481466

   => Energetics <=

    Nuclear Repulsion Energy =            337.8452732501300488
    One-Electron Energy =               -1061.6237109864862305
    Two-Electron Energy =                 433.3108873715414120
    DFT Exchange-Correlation Energy =       0.0000000000000000
    Empirical Dispersion Energy =           0.0000000000000000
    PCM Polarization Energy =               0.0000000000000000
    EFP Energy =                            0.0000000000000000
    Total Energy =                       -290.4675503648147696
    Molecular point group: c1
  Basis Set: CC-PVTZ
  Basis Set:

  -Total Gradient:
     Atom            X                  Y                   Z
    ------   -----------------  -----------------  -----------------
       1       -0.000017516196    -0.000007411083     0.000020357759
       2        0.000027748177     0.000024075336     0.000006325596
       3       -0.002842499371    -0.001333872903     0.002278800834
       4        0.000013072563    -0.000000656185    -0.000001881488
       5       -0.000018608722     0.000010157181    -0.000024180620
       6        0.005022206426     0.002476270994    -0.004869719203
       7        0.000026239287    -0.000035750801    -0.000010948313
       8       -0.000009836981    -0.000004087613    -0.000000959180
       9       -0.003830100201    -0.002528825606     0.005496453260
      10       -0.000054165395     0.000084043387     0.000035933144
      11        0.001692896545     0.001342836848    -0.002949101304
      12       -0.000024570030    -0.000018744022     0.000014124797
      13       -0.000022197530     0.000031225657    -0.000031063609
      14        0.000008563992    -0.000028833146    -0.000017684647
      15        0.000027431902     0.000027067463     0.000013736976
      16       -0.000029003719    -0.000017382963     0.000023233047
      17       -0.000004987794     0.000015539882     0.000006712548
      18        0.000002019115     0.000005151541    -0.000008636395
      19        0.000015970254    -0.000004145014     0.000005726767
      20       -0.000003249988    -0.000005297648     0.000014282345
      21        0.000007232832    -0.000029270448     0.000004692643
      22        0.000013354834    -0.000002090855    -0.000006204956

  **** Optimization is complete! (in 12 steps) ****
    Final optimized geometry and variables:
    Molecular point group: c1

    Geometry (in Angstrom), charge = 0, multiplicity = 1:

    H           -0.392913011987    -1.683816458183    -2.918926758267
    C            0.181050583258    -1.434886876455    -2.032452898050
    C           -0.546910479576    -0.365512315310    -1.225326714143
    H            1.153139831605    -1.071762321531    -2.342873998376
    H            0.329445044779    -2.350863962983    -1.475058799645
    N            0.200097989627     0.065720214719    -0.056874041506
    H           -0.684300730887     0.483687246802    -1.877809393611
    H           -1.546388324572    -0.722174063553    -0.965430460042
    C           -0.047049503138     1.432088545231     0.416891201036
    C            0.164512978340    -0.906871165182     1.024096248661
    C           -1.343607933130     2.119726933357    -0.013242623737
    H            0.778764584885     2.067001434221     0.106943361890
    H           -0.021873911471     1.422347632880     1.498248834065
    C            1.426558049942    -0.898253613731     1.876725665936
    H            0.055671804554    -1.894000635169     0.598332403605
    H           -0.710576185546    -0.755922634577     1.662021428579
    H           -1.369174103268     2.336116191908    -1.072231009787
    H           -2.220596841217     1.531824001406     0.233610762275
    H           -1.423203232155     3.065939703895     0.510467994797
    H            2.293113030656    -1.119858703952     1.265708613491
    H            1.591294578388     0.062175608384     2.349844958616
    H            1.357306712081    -1.644334908388     2.661439610563

  Mulliken Charges: (a.u.)
   Center  Symbol    Alpha    Beta     Spin     Total
       1     H     0.45315  0.45315  0.00000  0.09371
       2     C     3.14229  3.14229  0.00000 -0.28458
       3     C     3.04143  3.04143  0.00000 -0.08285
       4     H     0.45206  0.45206  0.00000  0.09587
       5     H     0.45603  0.45603  0.00000  0.08795
       6     N     3.62374  3.62374  0.00000 -0.24748
       7     H     0.45181  0.45181  0.00000  0.09638
       8     H     0.46433  0.46433  0.00000  0.07134
       9     C     3.04141  3.04141  0.00000 -0.08281
      10     C     3.04556  3.04556  0.00000 -0.09111
      11     C     3.15801  3.15801  0.00000 -0.31602
      12     H     0.45026  0.45026  0.00000  0.09948
      13     H     0.45835  0.45835  0.00000  0.08330
      14     C     3.13961  3.13961  0.00000 -0.27921
      15     H     0.44858  0.44858  0.00000  0.10284
      16     H     0.46337  0.46337  0.00000  0.07326
      17     H     0.45055  0.45055  0.00000  0.09891
      18     H     0.45196  0.45196  0.00000  0.09608
      19     H     0.44610  0.44610  0.00000  0.10780
      20     H     0.45210  0.45210  0.00000  0.09581
      21     H     0.45525  0.45525  0.00000  0.08951
      22     H     0.45408  0.45408  0.00000  0.09184

   Total alpha = 29.00000, Total beta = 29.00000, Total charge =  0.00000

*** Psi4 exiting successfully. Buy a developer a beer!
