  ==> Input File <==

--------------------------------------------------------------------------
set {
	reference rhf
	basis 6-31G*
}

set_num_threads( 1 )
memory 2 gb

molecule MOL {
0 1

H	 -1.495763	 -0.503179	 -1.137670
O	 -1.422729	 -0.573567	 -0.196946
C	 -0.731407	 0.539437	 0.309156
C	 0.680193	 0.672443	 -0.251532
H	 -1.319765	 1.404033	 0.030086
H	 -0.700012	 0.506517	 1.397677
C	 1.599139	 -0.492137	 0.118598
H	 0.616402	 0.758534	 -1.332349
H	 1.107032	 1.602637	 0.117369
H	 1.239738	 -1.428634	 -0.297334
H	 2.601428	 -0.335055	 -0.265730
H	 1.674954	 -0.608418	 1.197020

	symmetry c1
}
set optking {
	frozen_dihedral = ("
		8 4 3 2
	")
}

ee = energy('scf')
oeprop('DIPOLE', 'QUADRUPOLE', 'MULLIKEN_CHARGES')
f=open( 'psi4out.xyz', 'w' )
f.write( "12  " )
f.write( str(ee) + "\n" )
f.write( MOL.save_string_xyz() )
f.close()
--------------------------------------------------------------------------

    Molecular point group: c1

    Geometry (in Angstrom), charge = 0, multiplicity = 1:

       Center              X                  Y                   Z               Mass
    ------------   -----------------  -----------------  -----------------  -----------------
           H         -1.488633594901    -0.517667161171    -1.115546573784     1.007825032070
           O         -1.415599594901    -0.588055161171    -0.174822573784    15.994914619560
           C         -0.724277594901     0.524948838829     0.331279426216    12.000000000000
           C          0.687322405099     0.657954838829    -0.229408573784    12.000000000000
           H         -1.312635594901     1.389544838829     0.052209426216     1.007825032070
           H         -0.692882594901     0.492028838829     1.419800426216     1.007825032070
           C          1.606268405099    -0.506625161171     0.140721426216    12.000000000000
           H          0.623531405099     0.744045838829    -1.310225573784     1.007825032070
           H          1.114161405099     1.588148838829     0.139492426216     1.007825032070
           H          1.246867405099    -1.443122161171    -0.275210573784     1.007825032070
           H          2.608557405099    -0.349543161171    -0.243606573784     1.007825032070
           H          1.682083405099    -0.622906161171     1.219143426216     1.007825032070

  Charge       = 0
  Multiplicity = 1
  Basis Set: 6-31G*
  Basis Set:

    Orbital Energies (a.u.)
    -----------------------

    Doubly Occupied:

       1A    -20.551899     2A    -11.268600     3A    -11.221016
       4A    -11.209620     5A     -1.359937     6A     -1.049397
       7A     -0.921911     8A     -0.814119     9A     -0.676289
      10A     -0.641816    11A     -0.626911    12A     -0.568769
      13A     -0.529834    14A     -0.518921    15A     -0.487474
      16A     -0.464802    17A     -0.428034

  @DF-RHF Final Energy:  -193.10847994739009

   => Energetics <=

    Nuclear Repulsion Energy =            132.9005487447785185
    One-Electron Energy =                -525.3395013402747509
    Two-Electron Energy =                 199.3304726481057969
    DFT Exchange-Correlation Energy =       0.0000000000000000
    Empirical Dispersion Energy =           0.0000000000000000
    PCM Polarization Energy =               0.0000000000000000
    EFP Energy =                            0.0000000000000000
    Total Energy =                       -193.1084799473904354

  Mulliken Charges: (a.u.)
   Center  Symbol    Alpha    Beta     Spin     Total
       1     H     0.28235  0.28235  0.00000  0.43530
       2     O     4.36979  4.36979  0.00000 -0.73958
       3     C     2.99414  2.99414  0.00000  0.01171
       4     C     3.16763  3.16763  0.00000 -0.33526
       5     H     0.42880  0.42880  0.00000  0.14240
       6     H     0.41637  0.41637  0.00000  0.16726
       7     C     3.23916  3.23916  0.00000 -0.47831
       8     H     0.42710  0.42710  0.00000  0.14580
       9     H     0.42130  0.42130  0.00000  0.15740
      10     H     0.41252  0.41252  0.00000  0.17495
      11     H     0.42000  0.42000  0.00000  0.15999
      12     H     0.42084  0.42084  0.00000  0.15832

   Total alpha = 17.00000, Total beta = 17.00000, Total charge = -0.00000
