  ==> Input File <==

--------------------------------------------------------------------------
set {
	reference rhf
	basis 6-31G*
}

set_num_threads( 4 )
memory 2 gb

molecule MOL {
0 1

H	 -3.269016	 -0.876744	 0.468090
C	 -2.809304	 0.000122	 0.025886
N	 -1.391456	 0.000019	 0.300661
H	 -3.037557	 -0.000063	 -1.044252
H	 -3.269223	 0.876956	 0.468000
C	 -0.687361	 -1.027686	 -0.440864
C	 -1.105565	 -0.101634	 1.718315
H	 -1.031209	 -2.029319	 -0.165169
H	 -0.884730	 -0.891581	 -1.499204
C	 0.809786	 -0.930617	 -0.192476
H	 -1.607964	 0.709854	 2.234685
H	 -1.477096	 -1.041966	 2.136943
C	 0.391583	 -0.004564	 1.966702
H	 1.312186	 -1.742105	 -0.708847
H	 1.181317	 0.009715	 -0.611103
N	 1.095678	 -1.032271	 1.225178
H	 0.588951	 -0.140671	 3.025043
H	 0.735431	 0.997067	 1.691008
C	 2.513525	 -1.032375	 1.499953
H	 2.989131	 -1.853413	 0.975103
H	 2.682016	 -1.172798	 2.561895
H	 3.007865	 -0.104258	 1.197423

	symmetry c1
}
set optking {
	frozen_dihedral = ("
		6 3 2 4
	")
}

ee = optimize('scf')
oeprop('DIPOLE', 'QUADRUPOLE', 'MULLIKEN_CHARGES')
f=open( 'psi4out.xyz', 'w' )
f.write( "22  " )
f.write( str(ee) + "\n" )
f.write( MOL.save_string_xyz() )
f.close()
--------------------------------------------------------------------------

    Molecular point group: c1
  Charge       = 0
  Multiplicity = 1
  Basis Set: 6-31G*
  Basis Set:
  @DF-RHF Final Energy:  -344.22957911465255
    Total Energy =                       -344.2295791146524380
    Molecular point group: c1
  Basis Set: 6-31G*
  Basis Set:
  Basis Set: 6-31G*
  Basis Set:
  @DF-RHF Final Energy:  -344.23031449853869
    Total Energy =                       -344.2303144985386325
  Basis Set: 6-31G*
  Basis Set:
  Basis Set: 6-31G*
  Basis Set:
  @DF-RHF Final Energy:  -344.23042448710822
    Total Energy =                       -344.2304244871081664
  Basis Set: 6-31G*
  Basis Set:
  Charge       = 0
  Multiplicity = 1
  Basis Set: 6-31G*
  Basis Set:

    Orbital Energies (a.u.)
    -----------------------

    Doubly Occupied:

       1A    -15.541978     2A    -15.541378     3A    -11.238875
       4A    -11.238762     5A    -11.238229     6A    -11.238135
       7A    -11.235980     8A    -11.235947     9A     -1.255174
      10A     -1.204083    11A     -1.024860    12A     -0.991730
      13A     -0.911432    14A     -0.867149    15A     -0.835293
      16A     -0.754624    17A     -0.665450    18A     -0.636832
      19A     -0.630513    20A     -0.626705    21A     -0.620986
      22A     -0.580802    23A     -0.550067    24A     -0.545833
      25A     -0.542515    26A     -0.517484    27A     -0.496310
      28A     -0.490778    29A     -0.465323    30A     -0.455889
      31A     -0.349961    32A     -0.343795

  @DF-RHF Final Energy:  -344.23042576598846

   => Energetics <=

    Nuclear Repulsion Energy =            421.3916825790877283
    One-Electron Energy =               -1301.4984771748186176
    Two-Electron Energy =                 535.8763688297423187
    DFT Exchange-Correlation Energy =       0.0000000000000000
    Empirical Dispersion Energy =           0.0000000000000000
    PCM Polarization Energy =               0.0000000000000000
    EFP Energy =                            0.0000000000000000
    Total Energy =                       -344.2304257659885707
    Molecular point group: c1
  Basis Set: 6-31G*
  Basis Set:

  -Total Gradient:
     Atom            X                  Y                   Z
    ------   -----------------  -----------------  -----------------
       1        0.000029099221    -0.000004953122     0.000010768764
       2        0.000027444981     0.002580663248    -0.000315500348
       3       -0.000246272766    -0.001622000287     0.001446552005
       4        0.000041909282    -0.001786493527    -0.000012306343
       5        0.000041296274    -0.000002004927     0.000009535069
       6        0.000221306005     0.000884331986    -0.001088971332
       7       -0.000108883391    -0.000044811068     0.000125632765
       8        0.000027163088     0.000033005051     0.000007579116
       9        0.000011018196    -0.000014138316    -0.000013513234
      10       -0.000011179916    -0.000060582129     0.000000846617
      11       -0.000013645733     0.000010668524     0.000003639656
      12       -0.000006923696     0.000000311306    -0.000028389113
      13       -0.000014773124     0.000032610206    -0.000146274843
      14        0.000028300420    -0.000006728631     0.000003245354
      15       -0.000026181836    -0.000008655146     0.000005469188
      16        0.000017992049    -0.000011589301     0.000005479553
      17       -0.000056108911     0.000000951443    -0.000023793169
      18        0.000027383214     0.000027052844     0.000009998979
      19        0.000006438718    -0.000012324529    -0.000008577007
      20        0.000003626467     0.000002303870     0.000004324594
      21        0.000001739127     0.000000181418     0.000003456247
      22       -0.000000747665     0.000002201088     0.000000797484

  **** Optimization is complete! (in 4 steps) ****
    Final optimized geometry and variables:
    Molecular point group: c1

    Geometry (in Angstrom), charge = 0, multiplicity = 1:

    H           -3.182287045730    -0.357083040759    -0.321653384162
    C           -2.664717950424     0.517246841883    -0.728679971578
    N           -1.246384289759     0.505659284760    -0.458242736434
    H           -2.834356914883     0.527606619333    -1.799231810248
    H           -3.116721754815     1.405472466293    -0.301218751187
    C           -0.540065537962    -0.515978184155    -1.205347365482
    C           -0.956160336003     0.413413854814     0.958052446309
    H           -0.877667418984    -1.521224923698    -0.934686770036
    H           -0.738584750042    -0.375220895878    -2.262648829558
    C            0.956917421455    -0.412705248426    -0.957885059537
    H           -1.460031051212     1.226371714227     1.471106563818
    H           -1.324752228398    -0.525451139036     1.382593670763
    C            0.541348796502     0.515221162715     1.201342151687
    H            1.462626497590    -1.221831541636    -1.474777639960
    H            1.323771147258     0.529389103485    -1.376689421848
    N            1.245188648384    -0.512770129603     0.459590126920
    H            0.742430201113     0.381730129770     2.259288663744
    H            0.882340120974     1.516967071110     0.922444426871
    C            2.663523593502    -0.510813786845     0.731605899753
    H            3.139400090773    -1.331915719546     0.207062236571
    H            2.834141915344    -0.649592614902     1.793423446330
    H            3.156230827954     0.417562525672     0.427124306910

  Mulliken Charges: (a.u.)
   Center  Symbol    Alpha    Beta     Spin     Total
       1     H     0.43360  0.43360  0.00000  0.13279
       2     C     3.13959  3.13959  0.00000 -0.27917
       3     N     3.78812  3.78812  0.00000 -0.57624
       4     H     0.41754  0.41754  0.00000  0.16493
       5     H     0.41619  0.41619  0.00000  0.16762
       6     C     3.05551  3.05551  0.00000 -0.11101
       7     C     3.05565  3.05565  0.00000 -0.11131
       8     H     0.42880  0.42880  0.00000  0.14240
       9     H     0.41799  0.41799  0.00000  0.16402
      10     C     3.05667  3.05667  0.00000 -0.11335
      11     H     0.41805  0.41805  0.00000  0.16390
      12     H     0.42847  0.42847  0.00000  0.14307
      13     C     3.05647  3.05647  0.00000 -0.11293
      14     H     0.41797  0.41797  0.00000  0.16407
      15     H     0.42856  0.42856  0.00000  0.14288
      16     N     3.78710  3.78710  0.00000 -0.57420
      17     H     0.41798  0.41798  0.00000  0.16405
      18     H     0.42854  0.42854  0.00000  0.14292
      19     C     3.14026  3.14026  0.00000 -0.28052
      20     H     0.41676  0.41676  0.00000  0.16648
      21     H     0.41675  0.41675  0.00000  0.16649
      22     H     0.43344  0.43344  0.00000  0.13312

   Total alpha = 32.00000, Total beta = 32.00000, Total charge =  0.00000
