                              Psi4 1.0.54 Driver

  ==> Input File <==

--------------------------------------------------------------------------
set {
	reference rhf
	basis cc-pvtz
}

set_num_threads( 4 )
memory 2 gb

molecule MOL {
0 1

H	 0.114527	 -0.025011	 -0.150984
N	 -0.625934	 -0.663929	 -0.000707
C	 -1.978635	 -0.158664	 0.001017
C	 -0.313395	 -1.964892	 0.190074
H	 -2.519057	 -0.493535	 -0.876362
H	 -1.938890	 0.917202	 -0.004137
H	 -2.514266	 -0.485137	 0.884506
C	 1.167590	 -2.270432	 0.143712
O	 -1.132292	 -2.815906	 0.375166
H	 1.692031	 -1.717842	 0.914558
H	 1.311711	 -3.327013	 0.298413
H	 1.583488	 -1.985828	 -0.815792

	symmetry c1
}
set optking {
	frozen_dihedral = ("
		4 2 3 5
	")
}

ee,wfn = optimize('scf', return_wfn=True)
oeprop( wfn, 'DIPOLE', 'QUADRUPOLE', 'MULLIKEN_CHARGES')
f=open( 'psi4out.xyz', 'w' )
f.write( "12  " )
f.write( str(ee) + "\n" )
f.write( MOL.save_string_xyz() )
f.close()
--------------------------------------------------------------------------

    Molecular point group: c1
  Charge       = 0
  Multiplicity = 1
  Basis Set: CC-PVTZ
  Basis Set:
  @DF-RHF Final Energy:  -247.10101804885983
    Total Energy =                       -247.1010180488599417
    Molecular point group: c1
  Basis Set: CC-PVTZ
  Basis Set:
  Basis Set: CC-PVTZ
  Basis Set:
  @DF-RHF Final Energy:  -247.10118921087462
    Total Energy =                       -247.1011892108745087
  Basis Set: CC-PVTZ
  Basis Set:
  Basis Set: CC-PVTZ
  Basis Set:
  @DF-RHF Final Energy:  -247.10104984054544
    Total Energy =                       -247.1010498405454996
  Basis Set: CC-PVTZ
  Basis Set:
  Basis Set: CC-PVTZ
  Basis Set:
  @DF-RHF Final Energy:  -247.10125729696151
    Total Energy =                       -247.1012572969615917
  Basis Set: CC-PVTZ
  Basis Set:
  @DF-RHF Final Energy:  -247.10126091257530
    Total Energy =                       -247.1012609125752419
  @DF-RHF Final Energy:  -247.10127524317167
    Total Energy =                       -247.1012752431716422
  Basis Set: CC-PVTZ
  Basis Set:
  @DF-RHF Final Energy:  -247.10128280282538
    Total Energy =                       -247.1012828028252102
  Basis Set: CC-PVTZ
  Basis Set:
  Basis Set: CC-PVTZ
  Basis Set:
  @DF-RHF Final Energy:  -247.10128473319884
    Total Energy =                       -247.1012847331988951
  Basis Set: CC-PVTZ
  Basis Set:
  Basis Set: CC-PVTZ
  Basis Set:
  @DF-RHF Final Energy:  -247.10128598362112
    Total Energy =                       -247.1012859836210396
  Basis Set: CC-PVTZ
  Basis Set:
  Charge       = 0
  Multiplicity = 1
  Basis Set: CC-PVTZ
  Basis Set:

    Orbital Energies (a.u.)
    -----------------------

    Doubly Occupied:

       1A    -20.507467     2A    -15.574311     3A    -11.335286
       4A    -11.253788     5A    -11.228181     6A     -1.389059
       7A     -1.230444     8A     -1.016455     9A     -0.932859
      10A     -0.788920    11A     -0.690550    12A     -0.651049
      13A     -0.636282    14A     -0.584798    15A     -0.582767
      16A     -0.557924    17A     -0.546696    18A     -0.507741
      19A     -0.417738    20A     -0.390549

  @DF-RHF Final Energy:  -247.10128655232884

   => Energetics <=

    Nuclear Repulsion Energy =            181.8576840026357502
    One-Electron Energy =                -696.2722107252261594
    Two-Electron Energy =                 267.3132401702617358
    DFT Exchange-Correlation Energy =       0.0000000000000000
    Empirical Dispersion Energy =           0.0000000000000000
    PCM Polarization Energy =               0.0000000000000000
    EFP Energy =                            0.0000000000000000
    Total Energy =                       -247.1012865523286450
    Molecular point group: c1
  Basis Set: CC-PVTZ
  Basis Set:

  -Total Gradient:
     Atom            X                  Y                   Z
    ------   -----------------  -----------------  -----------------
       1        0.000009028639    -0.000000785906    -0.000014709645
       2       -0.000072002975     0.000044503553    -0.000054813387
       3        0.000095714087    -0.000133667614     0.000014273209
       4       -0.000017316142     0.000032497756     0.000014676608
       5       -0.000017300478     0.000028821825     0.000005825284
       6       -0.000009785175     0.000078806066     0.000015518847
       7       -0.000004061730    -0.000004084172    -0.000026354886
       8        0.000075259751     0.000019142624    -0.000076263012
       9       -0.000058115795    -0.000045561232     0.000049750491
      10        0.000001741441    -0.000001374291     0.000060679843
      11        0.000000757428    -0.000034088856    -0.000003480343
      12       -0.000003919054     0.000015790248     0.000014896990

  **** Optimization is complete! (in 10 steps) ****
    Final optimized geometry and variables:
    Molecular point group: c1

    Geometry (in Angstrom), charge = 0, multiplicity = 1:

    H            0.665927370309     1.558715018296    -0.336629329934
    N           -0.047381428138     0.911563227571    -0.112524990672
    C           -1.423536431436     1.348306086069    -0.161958477234
    C            0.283716791809    -0.387275213025     0.052438806443
    H           -1.917461903547     1.025497343758    -1.070604536112
    H           -1.447862348079     2.428079221338    -0.114935640222
    H           -1.970799844248     0.948955430895     0.678505532973
    C            1.766221926498    -0.683654898337     0.008584665436
    O           -0.536474134180    -1.239064403347     0.228179136453
    H            2.292104747121    -0.105721263135     0.759361609662
    H            1.918717097351    -1.734988652219     0.190117516723
    H            2.173478142132    -0.423932838358    -0.961906182845

  Mulliken Charges: (a.u.)
   Center  Symbol    Alpha    Beta     Spin     Total
       1     H     0.41207  0.41207  0.00000  0.17586
       2     N     3.61788  3.61788  0.00000 -0.23576
       3     C     3.07739  3.07739  0.00000 -0.15477
       4     C     2.83775  2.83775  0.00000  0.32449
       5     H     0.45482  0.45482  0.00000  0.09037
       6     H     0.45566  0.45566  0.00000  0.08867
       7     H     0.44296  0.44296  0.00000  0.11408
       8     C     3.15358  3.15358  0.00000 -0.30717
       9     O     4.21464  4.21464  0.00000 -0.42928
      10     H     0.44933  0.44933  0.00000  0.10135
      11     H     0.43366  0.43366  0.00000  0.13268
      12     H     0.45026  0.45026  0.00000  0.09948

   Total alpha = 20.00000, Total beta = 20.00000, Total charge =  0.00000

*** Psi4 exiting successfully. Buy a developer a beer!
