  ==> Input File <==

--------------------------------------------------------------------------
set {
	reference rhf
	basis 6-31G*
}

set_num_threads( 4 )
memory 2 gb

molecule MOL {
0 1

H	 -0.367348	 2.047014	 -0.308205
C	 0.352277	 1.337084	 0.083769
N	 -0.000016	 0.000074	 -0.335546
H	 1.328359	 1.600444	 -0.307950
H	 0.381933	 1.450534	 1.172486
C	 -1.195255	 -0.013700	 -1.147632
C	 1.102581	 -0.670075	 -0.986189
H	 -1.468123	 -1.036198	 -1.382990
H	 -2.017194	 0.433457	 -0.599973
H	 -1.079029	 0.531746	 -2.089897
H	 1.957885	 -0.702217	 -0.320760
H	 0.824857	 -1.691177	 -1.222111
H	 1.413791	 -0.180071	 -1.914613

	symmetry c1
}
set optking {
	frozen_dihedral = ("
		6 3 2 1
	")
}

ee = optimize('scf')
oeprop('DIPOLE', 'QUADRUPOLE', 'MULLIKEN_CHARGES')
f=open( 'psi4out.xyz', 'w' )
f.write( "13  " )
f.write( str(ee) + "\n" )
f.write( MOL.save_string_xyz() )
f.close()
--------------------------------------------------------------------------

    Molecular point group: c1
  Charge       = 0
  Multiplicity = 1
  Basis Set: 6-31G*
  Basis Set:
  @DF-RHF Final Energy:  -173.26152625808049
    Total Energy =                       -173.2615262580804654
    Molecular point group: c1
  Basis Set: 6-31G*
  Basis Set:
  Basis Set: 6-31G*
  Basis Set:
  @DF-RHF Final Energy:  -173.26232152545325
    Total Energy =                       -173.2623215254533591
  Basis Set: 6-31G*
  Basis Set:
  Basis Set: 6-31G*
  Basis Set:
  @DF-RHF Final Energy:  -173.26252516398685
    Total Energy =                       -173.2625251639868793
  Basis Set: 6-31G*
  Basis Set:
  Basis Set: 6-31G*
  Basis Set:
  @DF-RHF Final Energy:  -173.26253690033769
    Total Energy =                       -173.2625369003376932
  Basis Set: 6-31G*
  Basis Set:
  Charge       = 0
  Multiplicity = 1
  Basis Set: 6-31G*
  Basis Set:

    Orbital Energies (a.u.)
    -----------------------

    Doubly Occupied:

       1A    -15.538702     2A    -11.235425     3A    -11.235344
       4A    -11.235313     5A     -1.218652     6A     -0.951301
       7A     -0.950969     8A     -0.805781     9A     -0.636597
      10A     -0.628257    11A     -0.626797    12A     -0.549842
      13A     -0.546926    14A     -0.514153    15A     -0.501143
      16A     -0.500087    17A     -0.337179

  @DF-RHF Final Energy:  -173.26253866663714

   => Energetics <=

    Nuclear Repulsion Energy =            138.7167143985694509
    One-Electron Energy =                -507.9335721701875741
    Two-Electron Energy =                 195.9543191049809820
    DFT Exchange-Correlation Energy =       0.0000000000000000
    Empirical Dispersion Energy =           0.0000000000000000
    PCM Polarization Energy =               0.0000000000000000
    EFP Energy =                            0.0000000000000000
    Total Energy =                       -173.2625386666371696
    Molecular point group: c1
  Basis Set: 6-31G*
  Basis Set:

  -Total Gradient:
     Atom            X                  Y                   Z
    ------   -----------------  -----------------  -----------------
       1        0.000900956040     0.000226945952    -0.001407532512
       2       -0.001363715658    -0.000270091641     0.002260553208
       3        0.001162241956     0.000260163159    -0.001861813633
       4       -0.000023825338    -0.000004699554    -0.000028026793
       5       -0.000003656376    -0.000032928953    -0.000027874762
       6       -0.000705722335    -0.000156181135     0.001068261924
       7        0.000035463503     0.000010598136     0.000022348279
       8       -0.000008411145    -0.000004313188    -0.000008272363
       9       -0.000021846383    -0.000003384410    -0.000018706948
      10        0.000020655563    -0.000006675390     0.000014647796
      11        0.000020394934    -0.000015307307    -0.000015766421
      12        0.000009564734    -0.000011767961    -0.000008304980
      13       -0.000022099494     0.000007642293     0.000010487204

  **** Optimization is complete! (in 5 steps) ****
    Final optimized geometry and variables:
    Molecular point group: c1

    Geometry (in Angstrom), charge = 0, multiplicity = 1:

    H           -0.434858707335     1.914620180549     0.383472573345
    C            0.288265678390     1.177331063950     0.716282247567
    N           -0.065016102800    -0.154865555919     0.248566115638
    H            1.253645222957     1.495022530570     0.329003846383
    H            0.336694456807     1.214168754872     1.800535527458
    C           -1.274340103422    -0.199453087234    -0.538371772721
    C            1.034390273126    -0.862248472987    -0.361940991965
    H           -1.535934914322    -1.230766883659    -0.747763761724
    H           -2.093444130942     0.241187280385     0.018097826672
    H           -1.191442120562     0.327441482523    -1.494883350265
    H            1.877543029158    -0.891990917474     0.319031180727
    H            0.743063036277    -1.885750319315    -0.570301899274
    H            1.372802107381    -0.408956521699    -1.299636778931

  Mulliken Charges: (a.u.)
   Center  Symbol    Alpha    Beta     Spin     Total
       1     H     0.42171  0.42171  0.00000  0.15658
       2     C     3.14315  3.14315  0.00000 -0.28629
       3     N     3.77234  3.77234  0.00000 -0.54468
       4     H     0.42476  0.42476  0.00000  0.15048
       5     H     0.41611  0.41611  0.00000  0.16777
       6     C     3.14012  3.14012  0.00000 -0.28024
       7     C     3.14039  3.14039  0.00000 -0.28079
       8     H     0.41831  0.41831  0.00000  0.16338
       9     H     0.41657  0.41657  0.00000  0.16686
      10     H     0.43597  0.43597  0.00000  0.12805
      11     H     0.41658  0.41658  0.00000  0.16684
      12     H     0.41821  0.41821  0.00000  0.16358
      13     H     0.43577  0.43577  0.00000  0.12845

   Total alpha = 17.00000, Total beta = 17.00000, Total charge = -0.00000
