  ==> Input File <==

--------------------------------------------------------------------------
set {
	reference rhf
	basis 6-31G*
}

set_num_threads( 4 )
memory 2 gb

molecule MOL {
0 1

O	 1.188031	 1.349318	 -0.215161
C	 1.042842	 0.247743	 -0.637645
C	 -0.247887	 -0.534412	 -0.625490
O	 2.024907	 -0.454090	 -1.188966
C	 -1.412532	 0.227344	 -0.000452
H	 -0.466915	 -0.815347	 -1.652065
H	 -0.058346	 -1.465569	 -0.098445
C	 -2.706999	 -0.587347	 -0.000541
H	 -1.562987	 1.157468	 -0.539653
H	 -1.153616	 0.506753	 1.016109
C	 -3.956778	 0.291888	 0.000910
H	 -2.726114	 -1.239230	 -0.871609
H	 -2.725217	 -1.240844	 0.869333
H	 -3.985213	 0.933254	 -0.875158
H	 -4.860123	 -0.309979	 0.000519
H	 -3.984618	 0.931166	 0.878514
C	 3.295342	 0.166888	 -1.263278
H	 3.243013	 1.069744	 -1.854548
H	 3.947834	 -0.551483	 -1.734601
H	 3.657838	 0.410114	 -0.274873

	symmetry c1
}
set optking {
	frozen_dihedral = ("
		9 5 8 12
	")
}

ee = optimize('scf')
oeprop('DIPOLE', 'QUADRUPOLE', 'MULLIKEN_CHARGES')
f=open( 'psi4out.xyz', 'w' )
f.write( "20  " )
f.write( str(ee) + "\n" )
f.write( MOL.save_string_xyz() )
f.close()
--------------------------------------------------------------------------

    Molecular point group: c1
  Charge       = 0
  Multiplicity = 1
  Basis Set: 6-31G*
  Basis Set:
  @DF-RHF Final Energy:  -383.93919895557741
    Total Energy =                       -383.9391989555774671
    Molecular point group: c1
  Basis Set: 6-31G*
  Basis Set:
  Basis Set: 6-31G*
  Basis Set:
  @DF-RHF Final Energy:  -383.93945329233765
    Total Energy =                       -383.9394532923377028
  Basis Set: 6-31G*
  Basis Set:
  Basis Set: 6-31G*
  Basis Set:
  @DF-RHF Final Energy:  -383.93915451640828
    Total Energy =                       -383.9391545164079389
  Basis Set: 6-31G*
  Basis Set:
  Basis Set: 6-31G*
  Basis Set:
  @DF-RHF Final Energy:  -383.93950785127447
    Total Energy =                       -383.9395078512744703
  Basis Set: 6-31G*
  Basis Set:
  Basis Set: 6-31G*
  Basis Set:
  @DF-RHF Final Energy:  -383.93951100059314
    Total Energy =                       -383.9395110005929155
  Basis Set: 6-31G*
  Basis Set:
  Charge       = 0
  Multiplicity = 1
  Basis Set: 6-31G*
  Basis Set:

    Orbital Energies (a.u.)
    -----------------------

    Doubly Occupied:

       1A    -20.603841     2A    -20.545683     3A    -11.372497
       4A    -11.280997     5A    -11.236181     6A    -11.220080
       7A    -11.219018     8A    -11.211172     9A     -1.469551
      10A     -1.363016    11A     -1.087931    12A     -1.024400
      13A     -0.969337    14A     -0.886155    15A     -0.804678
      16A     -0.767874    17A     -0.697855    18A     -0.683298
      19A     -0.672322    20A     -0.641871    21A     -0.597501
      22A     -0.594527    23A     -0.578563    24A     -0.541737
      25A     -0.534546    26A     -0.522954    27A     -0.503077
      28A     -0.479707    29A     -0.473321    30A     -0.466245
      31A     -0.455392    32A     -0.436994

  @DF-RHF Final Energy:  -383.93951173350530

   => Energetics <=

    Nuclear Repulsion Energy =            380.9987194651405957
    One-Electron Energy =               -1277.9918213811001806
    Two-Electron Energy =                 513.0535901824542862
    DFT Exchange-Correlation Energy =       0.0000000000000000
    Empirical Dispersion Energy =           0.0000000000000000
    PCM Polarization Energy =               0.0000000000000000
    EFP Energy =                            0.0000000000000000
    Total Energy =                       -383.9395117335053556
    Molecular point group: c1
  Basis Set: 6-31G*
  Basis Set:

  -Total Gradient:
     Atom            X                  Y                   Z
    ------   -----------------  -----------------  -----------------
       1       -0.000004225519    -0.000008021772    -0.000010102573
       2       -0.000000144936     0.000007124601     0.000008361904
       3       -0.000028158975     0.000007215536     0.000009283592
       4        0.000001921384     0.000002095804     0.000002738479
       5        0.001878055552    -0.003166620332    -0.003988083744
       6        0.000004026742     0.000007904585    -0.000001281018
       7       -0.000017785856     0.000005705990     0.000001037290
       8       -0.002744336002     0.004234635078    -0.001800662335
       9       -0.001103362322     0.001927491873     0.003575007582
      10       -0.000027855037     0.000017413296     0.000020831058
      11        0.000021524192    -0.000007010303    -0.000031231336
      12        0.001966296337    -0.002983936872     0.002199799712
      13        0.000021095170    -0.000034750629     0.000013978805
      14        0.000010983555     0.000012689999     0.000010983253
      15        0.000005702728    -0.000002960614    -0.000014214668
      16        0.000014120756    -0.000018280497     0.000006099988
      17        0.000000761717    -0.000001144877    -0.000003000951
      18        0.000000087229    -0.000000034804     0.000000189537
      19        0.000001160152     0.000000459930     0.000000117743
      20        0.000000133127     0.000000024006     0.000000147685

  **** Optimization is complete! (in 6 steps) ****
    Final optimized geometry and variables:
    Molecular point group: c1

    Geometry (in Angstrom), charge = 0, multiplicity = 1:

    O            1.253096357853     1.250477236699     0.283779972419
    C            1.109175387981     0.150500822173    -0.143201779970
    C           -0.186828537437    -0.622819886004    -0.159446439983
    O            2.097339399332    -0.557056519948    -0.676009247476
    C           -1.359573029439     0.145405651051     0.437998965612
    H           -0.384883166116    -0.903912339286    -1.190008631528
    H           -0.016583196648    -1.554642906210     0.373466928102
    C           -2.653121809019    -0.679876206629     0.477476615751
    H           -1.519231526660     1.071700700349    -0.105365589065
    H           -1.102912738404     0.456949524667     1.445832073746
    C           -3.912170672621     0.180058363647     0.552259914863
    H           -2.699751508465    -1.345082815727    -0.382423107526
    H           -2.620260149781    -1.341472138587     1.340952548314
    H           -4.011253027874     0.806082734013    -0.329636693277
    H           -4.804260348774    -0.433770013681     0.626974321662
    H           -3.886048516824     0.833952917501     1.419302141267
    C            3.373109524339     0.055510732463    -0.723983810413
    H            3.338480184000     0.959814828745    -1.314355668900
    H            4.029963174016    -0.666344631137    -1.183786794474
    H            3.717646811398     0.294424809763     0.271868300846

  Mulliken Charges: (a.u.)
   Center  Symbol    Alpha    Beta     Spin     Total
       1     O     4.28585  4.28585  0.00000 -0.57170
       2     C     2.60538  2.60538  0.00000  0.78923
       3     C     3.20870  3.20870  0.00000 -0.41740
       4     O     4.30724  4.30724  0.00000 -0.61449
       5     C     3.15328  3.15328  0.00000 -0.30656
       6     H     0.40030  0.40030  0.00000  0.19940
       7     H     0.40041  0.40041  0.00000  0.19917
       8     C     3.15524  3.15524  0.00000 -0.31048
       9     H     0.41177  0.41177  0.00000  0.17647
      10     H     0.41046  0.41046  0.00000  0.17908
      11     C     3.23966  3.23966  0.00000 -0.47933
      12     H     0.42315  0.42315  0.00000  0.15371
      13     H     0.42114  0.42114  0.00000  0.15773
      14     H     0.42026  0.42026  0.00000  0.15949
      15     H     0.41894  0.41894  0.00000  0.16213
      16     H     0.41930  0.41930  0.00000  0.16140
      17     C     3.09246  3.09246  0.00000 -0.18492
      18     H     0.40903  0.40903  0.00000  0.18195
      19     H     0.40840  0.40840  0.00000  0.18320
      20     H     0.40904  0.40904  0.00000  0.18191

   Total alpha = 32.00000, Total beta = 32.00000, Total charge = -0.00000
