  ==> Input File <==

--------------------------------------------------------------------------
set {
	reference rhf
	basis cc-pvtz
}

set_num_threads( 4 )
memory 2 gb

molecule MOL {
0 1

H	 -3.144994	 -1.202467	 -0.018751
O	 -2.321472	 -0.864941	 -0.318626
C	 -2.021813	 0.336996	 0.342658
C	 -0.669613	 0.837286	 -0.127252
H	 -2.780861	 1.084746	 0.127159
H	 -2.006390	 0.184138	 1.420053
C	 0.490865	 -0.082543	 0.241244
H	 -0.708709	 0.967192	 -1.204587
H	 -0.507562	 1.822272	 0.303070
C	 1.839800	 0.429565	 -0.255472
H	 0.305636	 -1.070211	 -0.165276
H	 0.527397	 -0.195943	 1.322876
C	 2.464311	 -0.466651	 -1.319694
H	 1.716175	 1.431597	 -0.657157
H	 2.523981	 0.520980	 0.584308
H	 1.819038	 -0.549423	 -2.187845
H	 3.418932	 -0.075563	 -1.652941
H	 2.632568	 -1.468480	 -0.938285

	symmetry c1
}
set optking {
	frozen_dihedral = ("
		14 10 7 11
	")
}

ee = optimize('scf')
oeprop('DIPOLE', 'QUADRUPOLE', 'MULLIKEN_CHARGES')
f=open( 'psi4out.xyz', 'w' )
f.write( "18  " )
f.write( str(ee) + "\n" )
f.write( MOL.save_string_xyz() )
f.close()
--------------------------------------------------------------------------

    Molecular point group: c1
  Charge       = 0
  Multiplicity = 1
  Basis Set: CC-PVTZ
  Basis Set:
  @DF-RHF Final Energy:  -271.28110295213958
    Total Energy =                       -271.2811029521395767
    Molecular point group: c1
  Basis Set: CC-PVTZ
  Basis Set:
  Basis Set: CC-PVTZ
  Basis Set:
  @DF-RHF Final Energy:  -271.28136728270749
    Total Energy =                       -271.2813672827077198
  Basis Set: CC-PVTZ
  Basis Set:
  Basis Set: CC-PVTZ
  Basis Set:
  @DF-RHF Final Energy:  -271.28143817780051
    Total Energy =                       -271.2814381778002257
  Basis Set: CC-PVTZ
  Basis Set:
  Charge       = 0
  Multiplicity = 1
  Basis Set: CC-PVTZ
  Basis Set:

    Orbital Energies (a.u.)
    -----------------------

    Doubly Occupied:

       1A    -20.546421     2A    -11.265806     3A    -11.210930
       4A    -11.208766     5A    -11.204677     6A    -11.201881
       7A     -1.364260     8A     -1.074265     9A     -1.008657
      10A     -0.913446    11A     -0.821690    12A     -0.782665
      13A     -0.707755    14A     -0.641673    15A     -0.619874
      16A     -0.591077    17A     -0.571626    18A     -0.561666
      19A     -0.509496    20A     -0.506488    21A     -0.499409
      22A     -0.465108    23A     -0.453363    24A     -0.448379
      25A     -0.430614

  @DF-RHF Final Energy:  -271.28143878147625

   => Energetics <=

    Nuclear Repulsion Energy =            250.5887778925705334
    One-Electron Energy =                -864.5204452994304347
    Two-Electron Energy =                 342.6502286253837610
    DFT Exchange-Correlation Energy =       0.0000000000000000
    Empirical Dispersion Energy =           0.0000000000000000
    PCM Polarization Energy =               0.0000000000000000
    EFP Energy =                            0.0000000000000000
    Total Energy =                       -271.2814387814761403
    Molecular point group: c1
  Basis Set: CC-PVTZ
  Basis Set:

  -Total Gradient:
     Atom            X                  Y                   Z
    ------   -----------------  -----------------  -----------------
       1       -0.000000038840     0.000001230516     0.000001290753
       2        0.000013161585     0.000001034827     0.000034232150
       3       -0.000035846542     0.000019285816    -0.000057183695
       4        0.000047320407    -0.000036443638     0.000067271503
       5       -0.000023065859    -0.000001637872     0.000007047698
       6        0.000004240408    -0.000013852409    -0.000018496452
       7        0.000706287088    -0.000773762093     0.001064552982
       8        0.000003800047     0.000001667468     0.000010619504
       9       -0.000000275666     0.000007669609     0.000004612563
      10        0.000196202095     0.000749086793     0.001234796295
      11       -0.000634808019     0.000550405229    -0.001111378282
      12       -0.000012277911    -0.000002458221    -0.000001921319
      13        0.000006891971     0.000030717488     0.000033717101
      14       -0.000282987591    -0.000537289691    -0.001265174433
      15        0.000007088568     0.000006144503    -0.000007590663
      16        0.000001554715     0.000007386276     0.000008420330
      17        0.000014932193    -0.000003215844    -0.000001020745
      18       -0.000012178657    -0.000005968758    -0.000003795291

  **** Optimization is complete! (in 4 steps) ****
    Final optimized geometry and variables:
    Molecular point group: c1

    Geometry (in Angstrom), charge = 0, multiplicity = 1:

    H           -3.048770107037    -1.213384065726     0.199471615811
    O           -2.223294752579    -0.871208669843    -0.089296684051
    C           -1.936701976291     0.329646480495     0.579745655729
    C           -0.580883161347     0.837049768017     0.128812659558
    H           -2.696195304251     1.075066867792     0.357662531095
    H           -1.933791106329     0.172974609118     1.656729395313
    C            0.581211415955    -0.077705152167     0.512376752920
    H           -0.605078616408     0.966927267224    -0.949271007924
    H           -0.428682218808     1.822589560632     0.561038145395
    C            1.944093559362     0.425147208959    -0.005908661175
    H            0.380138890040    -1.065329785082     0.116903157179
    H            0.605914987965    -0.176381293570     1.593340431919
    C            2.548046114810    -0.471344954754    -1.083973506811
    H            1.831972169735     1.424829212199    -0.414277638822
    H            2.646685947639     0.510795747479     0.815715312669
    H            1.879923375163    -0.562453238255    -1.934076798789
    H            3.491201488770    -0.074997763342    -1.443749413633
    H            2.730914270280    -1.470285085003    -0.702706984750

  Mulliken Charges: (a.u.)
   Center  Symbol    Alpha    Beta     Spin     Total
       1     H     0.39574  0.39574  0.00000  0.20851
       2     O     4.19824  4.19824  0.00000 -0.39648
       3     C     2.97389  2.97389  0.00000  0.05223
       4     C     3.09154  3.09154  0.00000 -0.18308
       5     H     0.46539  0.46539  0.00000  0.06921
       6     H     0.47375  0.47375  0.00000  0.05249
       7     C     3.09563  3.09563  0.00000 -0.19126
       8     H     0.45193  0.45193  0.00000  0.09613
       9     H     0.45310  0.45310  0.00000  0.09380
      10     C     3.08915  3.08915  0.00000 -0.17831
      11     H     0.44505  0.44505  0.00000  0.10990
      12     H     0.45343  0.45343  0.00000  0.09313
      13     C     3.14689  3.14689  0.00000 -0.29378
      14     H     0.45626  0.45626  0.00000  0.08747
      15     H     0.45016  0.45016  0.00000  0.09968
      16     H     0.45359  0.45359  0.00000  0.09282
      17     H     0.45121  0.45121  0.00000  0.09759
      18     H     0.45504  0.45504  0.00000  0.08993

   Total alpha = 25.00000, Total beta = 25.00000, Total charge = -0.00000
