  ==> Input File <==

--------------------------------------------------------------------------
set {
	reference rhf
	basis 6-31G*
}

set_num_threads( 4 )
memory 2 gb

molecule MOL {
0 1

H	 -0.216825	 0.021369	 -3.357402
C	 0.374198	 0.036393	 -2.447010
C	 -0.521757	 -0.028637	 -1.217342
H	 0.969602	 0.942322	 -2.434777
H	 1.053364	 -0.811668	 -2.481329
N	 0.263400	 0.031178	 0.000000
H	 -1.199035	 0.820290	 -1.219355
H	 -1.147901	 -0.924895	 -1.265384
C	 -0.521757	 -0.028637	 1.217342
H	 0.935769	 -0.712709	 0.000000
C	 -0.720237	 1.361633	 1.806242
H	 -1.488607	 -0.456809	 0.969837
H	 -0.074774	 -0.686270	 1.969251
H	 -1.202715	 2.012975	 1.086291
H	 -1.333039	 1.318687	 2.701215
H	 0.231470	 1.809897	 2.080039

	symmetry c1
}
set optking {
	frozen_dihedral = ("
		12 9 6 3
	")
}

ee = optimize('scf')
oeprop('DIPOLE', 'QUADRUPOLE', 'MULLIKEN_CHARGES')
f=open( 'psi4out.xyz', 'w' )
f.write( "16  " )
f.write( str(ee) + "\n" )
f.write( MOL.save_string_xyz() )
f.close()
--------------------------------------------------------------------------

    Molecular point group: c1
  Charge       = 0
  Multiplicity = 1
  Basis Set: 6-31G*
  Basis Set:
  @DF-RHF Final Energy:  -212.30934987661084
    Total Energy =                       -212.3093498766108951
    Molecular point group: c1
  Basis Set: 6-31G*
  Basis Set:
  Basis Set: 6-31G*
  Basis Set:
  @DF-RHF Final Energy:  -212.31020689880015
    Total Energy =                       -212.3102068988002884
  Basis Set: 6-31G*
  Basis Set:
  Basis Set: 6-31G*
  Basis Set:
  @DF-RHF Final Energy:  -212.31041703946391
    Total Energy =                       -212.3104170394640278
  Basis Set: 6-31G*
  Basis Set:
  Basis Set: 6-31G*
  Basis Set:
  @DF-RHF Final Energy:  -212.31042026617055
    Total Energy =                       -212.3104202661704676
  Basis Set: 6-31G*
  Basis Set:
  Charge       = 0
  Multiplicity = 1
  Basis Set: 6-31G*
  Basis Set:

    Orbital Energies (a.u.)
    -----------------------

    Doubly Occupied:

       1A    -15.533298     2A    -11.241327     3A    -11.241049
       4A    -11.208168     5A    -11.201024     6A     -1.202429
       7A     -1.024377     8A     -0.963880     9A     -0.840127
      10A     -0.807258    11A     -0.664502    12A     -0.625875
      13A     -0.611365    14A     -0.573597    15A     -0.543825
      16A     -0.527075    17A     -0.504915    18A     -0.493923
      19A     -0.480882    20A     -0.467697    21A     -0.358010

  @DF-RHF Final Energy:  -212.31042077926250

   => Energetics <=

    Nuclear Repulsion Energy =            190.1919495426701872
    One-Electron Energy =                -662.7755335303677384
    Two-Electron Energy =                 260.2731632084348803
    DFT Exchange-Correlation Energy =       0.0000000000000000
    Empirical Dispersion Energy =           0.0000000000000000
    PCM Polarization Energy =               0.0000000000000000
    EFP Energy =                            0.0000000000000000
    Total Energy =                       -212.3104207792626994
    Molecular point group: c1
  Basis Set: 6-31G*
  Basis Set:

  -Total Gradient:
     Atom            X                  Y                   Z
    ------   -----------------  -----------------  -----------------
       1       -0.000002340611    -0.000001135860    -0.000004891135
       2        0.000001496603    -0.000003844889     0.000002489287
       3        0.000185731329    -0.002156171611     0.000075551729
       4       -0.000002403320    -0.000002044271     0.000002789399
       5       -0.000001888585     0.000002102774     0.000001776106
       6       -0.000536792901     0.003738260010    -0.000224304496
       7       -0.000002927210     0.000002051336    -0.000002305965
       8       -0.000003204846    -0.000003096666    -0.000004888599
       9        0.001366320969    -0.004140681562     0.000689358836
      10        0.000014449402     0.000011098996    -0.000009945441
      11       -0.000010924721    -0.000030360094     0.000017140950
      12       -0.000991066256     0.002591793550    -0.000557824147
      13       -0.000011425290     0.000001169972     0.000026664129
      14       -0.000002008679    -0.000004532495    -0.000007054133
      15       -0.000002475058     0.000004684045    -0.000001489236
      16       -0.000000540824    -0.000009293235    -0.000003067286

  **** Optimization is complete! (in 5 steps) ****
    Final optimized geometry and variables:
    Molecular point group: c1

    Geometry (in Angstrom), charge = 0, multiplicity = 1:

    H            0.038034138310    -0.255421742863    -3.235776986110
    C            0.615642126182    -0.224893284690    -2.317099223535
    C           -0.294465599035    -0.320163848280    -1.100210104666
    H            1.183891106453     0.697994838505    -2.294438908413
    H            1.320396233731    -1.052237065630    -2.343373222698
    N            0.475368870853    -0.253247965663     0.128097597760
    H           -0.991938806809     0.511957411977    -1.108400334927
    H           -0.897870588662    -1.230447778741    -1.160914461495
    C           -0.318491203799    -0.291780660124     1.351446888720
    H            1.143333691573    -0.997990298265     0.132193381572
    C           -0.481185703482     1.100198379282     1.955117557804
    H           -1.308144178073    -0.709534463151     1.164143692182
    H            0.168593101959    -0.940178888755     2.072590807808
    H           -0.963678163463     1.772126372867     1.252080052330
    H           -1.087014994641     1.066103910413     2.856876482937
    H            0.486878912684     1.520554261531     2.203806938731

  Mulliken Charges: (a.u.)
   Center  Symbol    Alpha    Beta     Spin     Total
       1     H     0.42048  0.42048  0.00000  0.15904
       2     C     3.24155  3.24155  0.00000 -0.48310
       3     C     3.05613  3.05613  0.00000 -0.11226
       4     H     0.41188  0.41188  0.00000  0.17623
       5     H     0.42500  0.42500  0.00000  0.15000
       6     N     3.85002  3.85002  0.00000 -0.70003
       7     H     0.42032  0.42032  0.00000  0.15936
       8     H     0.43430  0.43430  0.00000  0.13140
       9     C     3.06252  3.06252  0.00000 -0.12504
      10     H     0.33256  0.33256  0.00000  0.33488
      11     C     3.22796  3.22796  0.00000 -0.45593
      12     H     0.42871  0.42871  0.00000  0.14257
      13     H     0.42267  0.42267  0.00000  0.15466
      14     H     0.42167  0.42167  0.00000  0.15666
      15     H     0.42705  0.42705  0.00000  0.14589
      16     H     0.41717  0.41717  0.00000  0.16567

   Total alpha = 21.00000, Total beta = 21.00000, Total charge = -0.00000
