  ==> Input File <==

--------------------------------------------------------------------------
set {
	reference rhf
	basis 6-31G*
}

set_num_threads( 4 )
memory 2 gb

molecule MOL {
0 1

H	 -4.030297	 -0.466388	 0.158999
C	 -2.966138	 -0.310429	 0.164288
C	 -2.455118	 0.963083	 0.364717
C	 -2.110182	 -1.383185	 -0.029277
H	 -3.120054	 1.794183	 0.514713
C	 -1.086710	 1.162827	 0.371386
H	 -2.508142	 -2.369665	 -0.184492
C	 -0.740037	 -1.185610	 -0.023000
H	 -0.673547	 2.141283	 0.524985
C	 -0.224732	 0.089529	 0.177616
H	 -0.073971	 -2.012871	 -0.172385
C	 1.240992	 0.357948	 0.193756
O	 1.970282	 -0.730723	 0.000018
O	 1.718343	 1.436138	 0.362575
C	 3.377318	 -0.566646	 -0.000065
H	 3.695437	 -0.028981	 -0.881264
H	 3.789299	 -1.563704	 0.000236
H	 3.695516	 -0.028316	 0.880770

	symmetry c1
}
set optking {
	frozen_dihedral = ("
		12 13 15 16
	")
}

ee = optimize('scf')
oeprop('DIPOLE', 'QUADRUPOLE', 'MULLIKEN_CHARGES')
f=open( 'psi4out.xyz', 'w' )
f.write( "18  " )
f.write( str(ee) + "\n" )
f.write( MOL.save_string_xyz() )
f.close()
--------------------------------------------------------------------------

    Molecular point group: c1
  Charge       = 0
  Multiplicity = 1
  Basis Set: 6-31G*
  Basis Set:
  @DF-RHF Final Energy:  -457.35050261564794
    Total Energy =                       -457.3505026156478834
    Molecular point group: c1
  Basis Set: 6-31G*
  Basis Set:
  Basis Set: 6-31G*
  Basis Set:
  @DF-RHF Final Energy:  -457.35051220370923
    Total Energy =                       -457.3505122037090587
  Basis Set: 6-31G*
  Basis Set:
  Basis Set: 6-31G*
  Basis Set:
  @DF-RHF Final Energy:  -457.35044012943831
    Total Energy =                       -457.3504401294388799
  Basis Set: 6-31G*
  Basis Set:
  Basis Set: 6-31G*
  Basis Set:
  @DF-RHF Final Energy:  -457.35052129039281
    Total Energy =                       -457.3505212903934307
  Basis Set: 6-31G*
  Basis Set:
  Charge       = 0
  Multiplicity = 1
  Basis Set: 6-31G*
  Basis Set:

    Orbital Energies (a.u.)
    -----------------------

    Doubly Occupied:

       1A    -20.607626     2A    -20.544380     3A    -11.377980
       4A    -11.282897     5A    -11.245545     6A    -11.245248
       7A    -11.244110     8A    -11.241673     9A    -11.237443
      10A    -11.236681    11A     -1.472638    12A     -1.363943
      13A     -1.165255    14A     -1.048087    15A     -1.024780
      16A     -0.978262    17A     -0.860169    18A     -0.834288
      19A     -0.777680    20A     -0.739895    21A     -0.683350
      22A     -0.677402    23A     -0.671875    24A     -0.631062
      25A     -0.623908    26A     -0.597750    27A     -0.584537
      28A     -0.562056    29A     -0.528849    30A     -0.516587
      31A     -0.503469    32A     -0.498888    33A     -0.459120
      34A     -0.444345    35A     -0.344839    36A     -0.340954

  @DF-RHF Final Energy:  -457.35052213687209

   => Energetics <=

    Nuclear Repulsion Energy =            492.9767242519784531
    One-Electron Energy =               -1600.2593541288074448
    Two-Electron Energy =                 649.9321077399567912
    DFT Exchange-Correlation Energy =       0.0000000000000000
    Empirical Dispersion Energy =           0.0000000000000000
    PCM Polarization Energy =               0.0000000000000000
    EFP Energy =                            0.0000000000000000
    Total Energy =                       -457.3505221368723141
    Molecular point group: c1
  Basis Set: 6-31G*
  Basis Set:

  -Total Gradient:
     Atom            X                  Y                   Z
    ------   -----------------  -----------------  -----------------
       1        0.000000059837    -0.000000035284     0.000000558269
       2       -0.000000678379     0.000005148200     0.000000474192
       3       -0.000002584916    -0.000002002691    -0.000003562854
       4        0.000006502706    -0.000002421378     0.000001436022
       5        0.000000459463     0.000000343403     0.000001429383
       6        0.000006465698    -0.000002112109     0.000004824592
       7        0.000000355763     0.000000425629    -0.000001498417
       8       -0.000002784315    -0.000002460477    -0.000002416643
       9       -0.000000215340     0.000001535918    -0.000001792545
      10        0.000007453269     0.000001281521    -0.000004076914
      11        0.000002403495    -0.000000815466     0.000000847494
      12        0.000011918887    -0.000118390041     0.000767139304
      13        0.000005522308    -0.000033444649    -0.001195626577
      14       -0.000008740917     0.000000364639    -0.000002090525
      15       -0.000111775177     0.000924945372     0.000883126456
      16        0.000093982389    -0.000772305783    -0.000448631851
      17       -0.000002422641     0.000000832756    -0.000000350598
      18       -0.000005922139    -0.000000889564     0.000000211211

  **** Optimization is complete! (in 5 steps) ****
    Final optimized geometry and variables:
    Molecular point group: c1

    Geometry (in Angstrom), charge = 0, multiplicity = 1:

    H           -4.031141533725    -0.457510054481     0.009157485188
    C           -2.967195481735    -0.300311481057     0.012309494859
    C           -2.457261003846     0.974098692850     0.210031689844
    C           -2.110426260742    -1.372363787655    -0.181363568607
    H           -3.122854675988     1.804712652707     0.360055186604
    C           -1.089142222722     1.175441987730     0.213868499952
    H           -2.507588621563    -2.359465469099    -0.334541238603
    C           -0.740499821199    -1.173160527562    -0.177816034505
    H           -0.676924329714     2.154611100316     0.365263518682
    C           -0.226256182588     0.102839517270     0.020130242646
    H           -0.073974741671    -1.999977822033    -0.327430533117
    C            1.239308915807     0.373186894252     0.033516913615
    O            1.968934907276    -0.714539840953    -0.163965458105
    O            1.715141239657     1.452094168732     0.202325750431
    C            3.376557644350    -0.556357262834    -0.149950272835
    H            3.701506569734    -0.010897043269    -1.024767736036
    H            3.783869710691    -1.555354292214    -0.166969174578
    H            3.693599330002    -0.034489143308     0.739907541609

  Mulliken Charges: (a.u.)
   Center  Symbol    Alpha    Beta     Spin     Total
       1     H     0.39540  0.39540  0.00000  0.20920
       2     C     3.08999  3.08999  0.00000 -0.17998
       3     C     3.10712  3.10712  0.00000 -0.21424
       4     C     3.10717  3.10717  0.00000 -0.21434
       5     H     0.39537  0.39537  0.00000  0.20925
       6     C     3.08641  3.08641  0.00000 -0.17281
       7     H     0.39627  0.39627  0.00000  0.20747
       8     C     3.08715  3.08715  0.00000 -0.17429
       9     H     0.37596  0.37596  0.00000  0.24809
      10     C     3.07715  3.07715  0.00000 -0.15429
      11     H     0.38044  0.38044  0.00000  0.23912
      12     C     2.57965  2.57965  0.00000  0.84070
      13     O     4.31490  4.31490  0.00000 -0.62979
      14     O     4.29181  4.29181  0.00000 -0.58361
      15     C     3.09277  3.09277  0.00000 -0.18554
      16     H     0.40937  0.40937  0.00000  0.18127
      17     H     0.40820  0.40820  0.00000  0.18359
      18     H     0.40489  0.40489  0.00000  0.19021

   Total alpha = 36.00000, Total beta = 36.00000, Total charge =  0.00000
