                              Psi4 1.0.54 Driver

  ==> Input File <==

--------------------------------------------------------------------------
set {
	reference rhf
	basis cc-pvtz
}

set_num_threads( 4 )
memory 2 gb

molecule MOL {
0 1

O	 -2.071633	 -1.227563	 -0.223463
C	 -1.652164	 -0.152425	 0.058082
C	 -0.327811	 0.006324	 0.778296
C	 -2.402515	 1.108629	 -0.298924
C	 0.843231	 -0.001575	 -0.211665
H	 -0.319484	 0.928173	 1.350354
H	 -0.227804	 -0.823091	 1.466705
C	 2.197693	 0.138030	 0.476937
H	 0.722944	 0.805202	 -0.930230
H	 0.813976	 -0.926978	 -0.776588
C	 2.136232	 0.990747	 1.739576
H	 2.579112	 -0.848535	 0.725401
H	 2.908055	 0.574105	 -0.219314
H	 1.459323	 0.560893	 2.470366
H	 1.788110	 1.993623	 1.517273
H	 3.112471	 1.074294	 2.202585
H	 -3.240910	 0.874416	 -0.936711
H	 -1.747554	 1.818823	 -0.790984
H	 -2.760419	 1.579708	 0.610998

	symmetry c1
}
set optking {
	frozen_dihedral = ("
		11 8 5 9
	")
}

ee,wfn = optimize('scf', return_wfn=True)
oeprop( wfn, 'DIPOLE', 'QUADRUPOLE', 'MULLIKEN_CHARGES')
f=open( 'psi4out.xyz', 'w' )
f.write( "19  " )
f.write( str(ee) + "\n" )
f.write( MOL.save_string_xyz() )
f.close()
--------------------------------------------------------------------------

    Molecular point group: c1
  Charge       = 0
  Multiplicity = 1
  Basis Set: CC-PVTZ
  Basis Set:
  @DF-RHF Final Energy:  -309.16944674740336
    Total Energy =                       -309.1694467474036401
    Molecular point group: c1
  Basis Set: CC-PVTZ
  Basis Set:
  Basis Set: CC-PVTZ
  Basis Set:
  @DF-RHF Final Energy:  -308.98672860022299
    Total Energy =                       -308.9867286002232163
  Basis Set: CC-PVTZ
  Basis Set:
  Basis Set: CC-PVTZ
  Basis Set:
  @DF-RHF Final Energy:  -309.10444226677771
    Total Energy =                       -309.1044422667778235
  Basis Set: CC-PVTZ
  Basis Set:
  Basis Set: CC-PVTZ
  Basis Set:
  @DF-RHF Final Energy:  -309.16591004963828
    Total Energy =                       -309.1659100496381711
  Basis Set: CC-PVTZ
  Basis Set:
  @DF-RHF Final Energy:  -309.17124906361585
    Total Energy =                       -309.1712490636163011
  @DF-RHF Final Energy:  -309.17205497648149
    Total Energy =                       -309.1720549764816042
  @DF-RHF Final Energy:  -309.17177278486150
    Total Energy =                       -309.1717727848613890
  @DF-RHF Final Energy:  -309.17212697556425
    Total Energy =                       -309.1721269755643107
  @DF-RHF Final Energy:  -309.17209897525157
    Total Energy =                       -309.1720989752514015
  Basis Set: CC-PVTZ
  Basis Set:
  @DF-RHF Final Energy:  -309.17213419109294
    Total Energy =                       -309.1721341910931642
  Basis Set: CC-PVTZ
  Basis Set:
  Basis Set: CC-PVTZ
  Basis Set:
  @DF-RHF Final Energy:  -309.17213904059679
    Total Energy =                       -309.1721390405964485
  Basis Set: CC-PVTZ
  Basis Set:
  Basis Set: CC-PVTZ
  Basis Set:
  @DF-RHF Final Energy:  -309.17214058527543
    Total Energy =                       -309.1721405852750308
  Basis Set: CC-PVTZ
  Basis Set:
  Charge       = 0
  Multiplicity = 1
  Basis Set: CC-PVTZ
  Basis Set:

    Orbital Energies (a.u.)
    -----------------------

    Doubly Occupied:

       1A    -20.536882     2A    -11.319479     3A    -11.228968
       4A    -11.227918     5A    -11.226883     6A    -11.223493
       7A    -11.214632     8A     -1.397088     9A     -1.091373
      10A     -1.028446    11A     -0.982389    12A     -0.904163
      13A     -0.796482    14A     -0.735826    15A     -0.660787
      16A     -0.655010    17A     -0.622459    18A     -0.606070
      19A     -0.593918    20A     -0.570224    21A     -0.553934
      22A     -0.544364    23A     -0.523197    24A     -0.502274
      25A     -0.481418    26A     -0.470288    27A     -0.462897
      28A     -0.399969

  @DF-RHF Final Energy:  -309.17214070811906

   => Energetics <=

    Nuclear Repulsion Energy =            305.5188784094548282
    One-Electron Energy =               -1024.2603749906504618
    Two-Electron Energy =                 409.5693558730763471
    DFT Exchange-Correlation Energy =       0.0000000000000000
    Empirical Dispersion Energy =           0.0000000000000000
    PCM Polarization Energy =               0.0000000000000000
    EFP Energy =                            0.0000000000000000
    Total Energy =                       -309.1721407081192865
    Molecular point group: c1
  Basis Set: CC-PVTZ
  Basis Set:

  -Total Gradient:
     Atom            X                  Y                   Z
    ------   -----------------  -----------------  -----------------
       1        0.000001794642    -0.000015672089    -0.000004568370
       2       -0.000007963335     0.000036942024     0.000007779431
       3       -0.000004441740    -0.000013878600     0.000010913088
       4        0.000007261652    -0.000025378430    -0.000013781064
       5       -0.000089582810     0.000773062878     0.007432024786
       6        0.000001697306    -0.000000799869    -0.000007334835
       7       -0.000006380469     0.000005440124     0.000001264301
       8        0.001169793326     0.005279787478    -0.003467614485
       9       -0.000232260556    -0.002035701866    -0.005488077663
      10       -0.000001907336    -0.000002034454     0.000009605060
      11       -0.000841130559    -0.004013157165     0.001517129461
      12        0.000002402103     0.000007072212    -0.000001519049
      13       -0.000001825820     0.000002649605     0.000001662392
      14        0.000004435355    -0.000000566653    -0.000004928197
      15       -0.000004176669    -0.000005211043    -0.000001588624
      16       -0.000004156736     0.000000390008     0.000000603286
      17        0.000006049118    -0.000001371824     0.000003971943
      18       -0.000000223728     0.000005778327     0.000004679507
      19        0.000000616250     0.000002649336    -0.000000220967

  **** Optimization is complete! (in 13 steps) ****
    Final optimized geometry and variables:
    Molecular point group: c1

    Geometry (in Angstrom), charge = 0, multiplicity = 1:

    O           -2.225169303209    -0.903273066958    -0.143172601672
    C           -1.534270680180    -0.020303419852     0.249299172396
    C           -0.046751808718    -0.223516515123     0.460353922318
    C           -2.094086065166     1.350596081291     0.546287729521
    C            0.716955463937     0.008223035761    -0.848186683324
    H            0.310518260182     0.443819307455     1.234988706444
    H            0.098055245345    -1.243753333135     0.792945252002
    C            2.224751873178    -0.292993001745    -0.802157458314
    H            0.558768827797     1.018374136839    -1.216060667080
    H            0.273899063356    -0.630852465039    -1.604180517875
    C            2.940214617964     0.051563579781     0.501809485956
    H            2.367629098515    -1.353297143072    -0.987877550745
    H            2.702432034054     0.222977816549    -1.627436554323
    H            2.569605696277    -0.538922362942     1.330227974574
    H            2.824804357347     1.099385974249     0.761795210406
    H            4.001756973969    -0.146069935688     0.410254066495
    H           -3.116652383959     1.415550846366     0.207678884194
    H           -1.495608907596     2.121409214237     0.074240167183
    H           -2.056305760534     1.525531528998     1.616811266517

  Mulliken Charges: (a.u.)
   Center  Symbol    Alpha    Beta     Spin     Total
       1     O     4.17726  4.17726  0.00000 -0.35451
       2     C     2.85754  2.85754  0.00000  0.28492
       3     C     3.10148  3.10148  0.00000 -0.20296
       4     C     3.15638  3.15638  0.00000 -0.31275
       5     C     3.10613  3.10613  0.00000 -0.21225
       6     H     0.44594  0.44594  0.00000  0.10813
       7     H     0.43857  0.43857  0.00000  0.12286
       8     C     3.08854  3.08854  0.00000 -0.17709
       9     H     0.45005  0.45005  0.00000  0.09991
      10     H     0.43909  0.43909  0.00000  0.12182
      11     C     3.15849  3.15849  0.00000 -0.31698
      12     H     0.44995  0.44995  0.00000  0.10009
      13     H     0.44751  0.44751  0.00000  0.10497
      14     H     0.45109  0.45109  0.00000  0.09781
      15     H     0.45444  0.45444  0.00000  0.09112
      16     H     0.44278  0.44278  0.00000  0.11443
      17     H     0.43579  0.43579  0.00000  0.12841
      18     H     0.45054  0.45054  0.00000  0.09891
      19     H     0.44842  0.44842  0.00000  0.10316

   Total alpha = 28.00000, Total beta = 28.00000, Total charge = -0.00000

*** Psi4 exiting successfully. Buy a developer a beer!
