  ==> Input File <==

--------------------------------------------------------------------------
set {
	reference rhf
	basis cc-pvtz
}

set_num_threads( 4 )
memory 2 gb

molecule MOL {
0 1

H	 0.375745	 -2.275424	 -0.783090
C	 -0.431523	 -1.565555	 -0.972441
N	 -0.537714	 -0.645117	 0.000000
O	 -1.114741	 -1.637879	 -1.944398
C	 -1.522613	 0.412524	 0.000000
H	 0.100385	 -0.704670	 0.754498
H	 -2.150256	 0.356137	 -0.880771
H	 -1.005621	 1.357208	 0.000000
H	 -2.150256	 0.356137	 0.880771

	symmetry c1
}
set optking {
	frozen_dihedral = ("
		6 3 5 7
	")
}

ee = optimize('scf')
oeprop('DIPOLE', 'QUADRUPOLE', 'MULLIKEN_CHARGES')
f=open( 'psi4out.xyz', 'w' )
f.write( "9  " )
f.write( str(ee) + "\n" )
f.write( MOL.save_string_xyz() )
f.close()
--------------------------------------------------------------------------

    Molecular point group: c1
  Charge       = 0
  Multiplicity = 1
  Basis Set: CC-PVTZ
  Basis Set:
  @DF-RHF Final Energy:  -208.04306709579478
    Total Energy =                       -208.0430670957947257
    Molecular point group: c1
  Basis Set: CC-PVTZ
  Basis Set:
  Basis Set: CC-PVTZ
  Basis Set:
  @DF-RHF Final Energy:  -208.04348926895807
    Total Energy =                       -208.0434892689580693
  Basis Set: CC-PVTZ
  Basis Set:
  Basis Set: CC-PVTZ
  Basis Set:
  @DF-RHF Final Energy:  -208.04353926103715
    Total Energy =                       -208.0435392610370968
  Basis Set: CC-PVTZ
  Basis Set:
  Basis Set: CC-PVTZ
  Basis Set:
  @DF-RHF Final Energy:  -208.04353066372255
    Total Energy =                       -208.0435306637225210
  Basis Set: CC-PVTZ
  Basis Set:
  Charge       = 0
  Multiplicity = 1
  Basis Set: CC-PVTZ
  Basis Set:

    Orbital Energies (a.u.)
    -----------------------

    Doubly Occupied:

       1A    -20.515830     2A    -15.585177     3A    -11.337666
       4A    -11.259133     5A     -1.393437     6A     -1.239942
       7A     -0.970568     8A     -0.808256     9A     -0.748847
      10A     -0.646342    11A     -0.629226    12A     -0.596981
      13A     -0.554670    14A     -0.542898    15A     -0.428018
      16A     -0.395763

  @DF-RHF Final Energy:  -208.04356694195292

   => Energetics <=

    Nuclear Repulsion Energy =            122.6859799539799951
    One-Electron Energy =                -526.1535898159198723
    Two-Electron Energy =                 195.4240429199869595
    DFT Exchange-Correlation Energy =       0.0000000000000000
    Empirical Dispersion Energy =           0.0000000000000000
    PCM Polarization Energy =               0.0000000000000000
    EFP Energy =                            0.0000000000000000
    Total Energy =                       -208.0435669419529177
    Molecular point group: c1
  Basis Set: CC-PVTZ
  Basis Set:

  -Total Gradient:
     Atom            X                  Y                   Z
    ------   -----------------  -----------------  -----------------
       1        0.000010917004    -0.000006272434    -0.000021424407
       2       -0.000001341777     0.000008185129     0.000079382536
       3        0.000044920214    -0.000053872691    -0.000026488269
       4       -0.000003843953     0.000001583637    -0.000022007858
       5        0.000033593917     0.000032688007     0.000011282667
       6       -0.000013492786     0.000005164389     0.000007553369
       7       -0.000053534488     0.000029457602    -0.000016557813
       8       -0.000017001672    -0.000008430730    -0.000002923726
       9       -0.000000216461    -0.000008502907    -0.000008816502

  **** Optimization is complete! (in 5 steps) ****
    Final optimized geometry and variables:
    Molecular point group: c1

    Geometry (in Angstrom), charge = 0, multiplicity = 1:

    H            1.276561077077    -1.436717717146    -0.063326621902
    C            0.472877222072    -0.721636815874    -0.249271404533
    N            0.376388131595     0.199561671978     0.723652321451
    O           -0.215035293550    -0.788681291641    -1.218209688037
    C           -0.602208908530     1.263051865536     0.728130963718
    H            1.016526641535     0.135144405506     1.476143313007
    H           -1.205007142107     1.173707475598    -0.159985125434
    H           -0.119581191855     2.232583057900     0.728034717072
    H           -1.245471531941     1.192911194707     1.596627937901

  Mulliken Charges: (a.u.)
   Center  Symbol    Alpha    Beta     Spin     Total
       1     H     0.46272  0.46272  0.00000  0.07456
       2     C     2.88099  2.88099  0.00000  0.23803
       3     N     3.60832  3.60832  0.00000 -0.21665
       4     O     4.21532  4.21532  0.00000 -0.43065
       5     C     3.08128  3.08128  0.00000 -0.16256
       6     H     0.40931  0.40931  0.00000  0.18138
       7     H     0.43265  0.43265  0.00000  0.13469
       8     H     0.45469  0.45469  0.00000  0.09062
       9     H     0.45471  0.45471  0.00000  0.09057

   Total alpha = 16.00000, Total beta = 16.00000, Total charge =  0.00000
