                              Psi4 1.0.54 Driver

  ==> Input File <==

--------------------------------------------------------------------------
set {
	reference rhf
	basis cc-pvtz
}

set_num_threads( 4 )
memory 2 gb

molecule MOL {
0 1

H	 0.666075	 -4.667332	 -3.070464
O	 1.586163	 -4.517394	 -3.183545
C	 1.836311	 -3.148695	 -3.366197
C	 1.673083	 -2.327528	 -2.095872
H	 2.858394	 -3.078969	 -3.713277
H	 1.200692	 -2.748578	 -4.153817
C	 0.244370	 -2.280207	 -1.558853
H	 2.336188	 -2.730750	 -1.336358
H	 2.011967	 -1.315924	 -2.306140
C	 0.113298	 -1.420414	 -0.302504
H	 -0.091142	 -3.289061	 -1.342874
H	 -0.417302	 -1.888551	 -2.329620
C	 -1.311023	 -1.277304	 0.237018
H	 0.752972	 -1.827421	 0.476848
H	 0.498552	 -0.428426	 -0.521609
C	 -2.041121	 -0.006551	 -0.194127
H	 -1.888548	 -2.136293	 -0.093331
H	 -1.289731	 -1.328757	 1.323321
C	 -3.489218	 0.042606	 0.286507
H	 -2.022185	 0.066287	 -1.279394
H	 -1.518764	 0.869305	 0.178730
C	 -4.219984	 1.311773	 -0.139038
H	 -4.022855	 -0.824300	 -0.093339
H	 -3.510372	 -0.038577	 1.370031
H	 -4.244251	 1.405725	 -1.219696
H	 -5.244345	 1.313233	 0.215630
H	 -3.732090	 2.196311	 0.257073

	symmetry c1
}
set optking {
	frozen_dihedral = ("
		14 10 13 16
	")
}

ee,wfn = optimize('scf', return_wfn=True)
oeprop( wfn, 'DIPOLE', 'QUADRUPOLE', 'MULLIKEN_CHARGES')
f=open( 'psi4out.xyz', 'w' )
f.write( "27  " )
f.write( str(ee) + "\n" )
f.write( MOL.save_string_xyz() )
f.close()
--------------------------------------------------------------------------

    Molecular point group: c1
  Charge       = 0
  Multiplicity = 1
  Basis Set: CC-PVTZ
  Basis Set:
  @DF-RHF Final Energy:  -388.42519421094539
    Total Energy =                       -388.4251942109458469
    Molecular point group: c1
  Basis Set: CC-PVTZ
  Basis Set:
  Basis Set: CC-PVTZ
  Basis Set:
  @DF-RHF Final Energy:  -388.42558520580457
    Total Energy =                       -388.4255852058048504
  Basis Set: CC-PVTZ
  Basis Set:
  Basis Set: CC-PVTZ
  Basis Set:
  @DF-RHF Final Energy:  -388.42562543014816
    Total Energy =                       -388.4256254301481022
  Basis Set: CC-PVTZ
  Basis Set:
  Basis Set: CC-PVTZ
  Basis Set:
  @DF-RHF Final Energy:  -388.42563289508416
    Total Energy =                       -388.4256328950837087
  Basis Set: CC-PVTZ
  Basis Set:
  Basis Set: CC-PVTZ
  Basis Set:
  @DF-RHF Final Energy:  -388.42563548530467
    Total Energy =                       -388.4256354853055200
  Basis Set: CC-PVTZ
  Basis Set:
  Charge       = 0
  Multiplicity = 1
  Basis Set: CC-PVTZ
  Basis Set:

    Orbital Energies (a.u.)
    -----------------------

    Doubly Occupied:

       1A    -20.545297     2A    -11.265095     3A    -11.217793
       4A    -11.214172     5A    -11.213930     6A    -11.213315
       7A    -11.212986     8A    -11.212376     9A    -11.207522
      10A     -1.363258    11A     -1.095603    12A     -1.063238
      13A     -1.012220    14A     -0.950630    15A     -0.885457
      16A     -0.821357    17A     -0.796517    18A     -0.786968
      19A     -0.696591    20A     -0.649553    21A     -0.640109
      22A     -0.616152    23A     -0.605008    24A     -0.582199
      25A     -0.580602    26A     -0.554926    27A     -0.541711
      28A     -0.521361    29A     -0.507694    30A     -0.503869
      31A     -0.480267    32A     -0.475120    33A     -0.470556
      34A     -0.463579    35A     -0.452042    36A     -0.442220
      37A     -0.424970

  @DF-RHF Final Energy:  -388.42563562483434

   => Energetics <=

    Nuclear Repulsion Energy =            456.3843568239953470
    One-Electron Energy =               -1431.0474460644818464
    Two-Electron Energy =                 586.2374536156523845
    DFT Exchange-Correlation Energy =       0.0000000000000000
    Empirical Dispersion Energy =           0.0000000000000000
    PCM Polarization Energy =               0.0000000000000000
    EFP Energy =                            0.0000000000000000
    Total Energy =                       -388.4256356248340580
    Molecular point group: c1
  Basis Set: CC-PVTZ
  Basis Set:

  -Total Gradient:
     Atom            X                  Y                   Z
    ------   -----------------  -----------------  -----------------
       1        0.000000962025    -0.000003617236    -0.000002223513
       2       -0.000016093366    -0.000000117614     0.000011686862
       3        0.000019976478     0.000011323007    -0.000003805585
       4       -0.000001006433    -0.000004087071    -0.000004965045
       5        0.000000312288     0.000003639716    -0.000003606639
       6        0.000000116507    -0.000003415435     0.000004179662
       7       -0.000004763965     0.000001729122     0.000004487030
       8       -0.000001117249     0.000000708621    -0.000003002983
       9        0.000000228892    -0.000002346112    -0.000001964495
      10       -0.000420297637    -0.003225004434    -0.000547086480
      11        0.000000722941     0.000001295374    -0.000002929322
      12        0.000002239011    -0.000000041174    -0.000000723647
      13       -0.000917367832    -0.000807818633    -0.002410968531
      14        0.000584091970     0.002948611215     0.001057431667
      15        0.000001833182    -0.000003029160    -0.000003552230
      16        0.000762822428     0.001091511144     0.001900424083
      17       -0.000004283519     0.000004314676    -0.000000560171
      18       -0.000000011638    -0.000000838769     0.000003351583
      19       -0.000011216136    -0.000002257761    -0.000001742327
      20        0.000002693307    -0.000001139680     0.000003803063
      21        0.000002177215    -0.000005992657    -0.000002022500
      22        0.000002383829    -0.000005112721     0.000005387847
      23       -0.000002704951     0.000004007328     0.000001446311
      24       -0.000003638232     0.000000297862    -0.000005047352
      25       -0.000000230258    -0.000001615978     0.000004209359
      26        0.000003407536     0.000001566288     0.000000253279
      27       -0.000001236390    -0.000002569921    -0.000002459925

  **** Optimization is complete! (in 6 steps) ****
    Final optimized geometry and variables:
    Molecular point group: c1

    Geometry (in Angstrom), charge = 0, multiplicity = 1:

    H            1.298089267960    -3.068453936622    -1.900456709227
    O            2.216513915264    -2.912248925454    -2.017629879807
    C            2.459235048685    -1.539730631665    -2.179267165523
    C            2.289123173885    -0.738642816382    -0.897097594745
    H            3.481409305324    -1.459184946204    -2.523594400891
    H            1.822602648703    -1.131452654267    -2.961852787338
    C            0.860408984362    -0.708694352822    -0.360890134780
    H            2.954200906832    -1.148352205299    -0.142851449953
    H            2.620894630601     0.278375051402    -1.091840581253
    C            0.712804258548     0.121817337072     0.911649194476
    H            0.525838886630    -1.721385231600    -0.152515646198
    H            0.196413448393    -0.314289272421    -1.127720504571
    C           -0.731866535386     0.222458601898     1.427817397538
    H            1.355805633986    -0.282017011597     1.687081093299
    H            1.091086731520     1.123463711450     0.723287806532
    C           -1.454668355424     1.493727270460     0.986379747085
    H           -1.296845808825    -0.648769736384     1.107717628978
    H           -0.730149480108     0.193496784466     2.513162735173
    C           -2.905380929064     1.561283193584     1.454092701199
    H           -1.425816816519     1.574142361538    -0.098238707779
    H           -0.914341475128     2.356313402029     1.368099290801
    C           -3.613747129435     2.843732087908     1.030476510871
    H           -3.448465690723     0.704626543241     1.064296078615
    H           -2.937060798246     1.473584887112     2.536791954917
    H           -3.629396146413     2.943829595847    -0.049806394183
    H           -4.640275488878     2.859258623463     1.378300899567
    H           -3.114705210642     3.718270778739     1.434572672660

  Mulliken Charges: (a.u.)
   Center  Symbol    Alpha    Beta     Spin     Total
       1     H     0.39231  0.39231  0.00000  0.21538
       2     O     4.20566  4.20566  0.00000 -0.41132
       3     C     2.97985  2.97985  0.00000  0.04029
       4     C     3.09014  3.09014  0.00000 -0.18028
       5     H     0.44844  0.44844  0.00000  0.10311
       6     H     0.46997  0.46997  0.00000  0.06006
       7     C     3.09947  3.09947  0.00000 -0.19893
       8     H     0.45079  0.45079  0.00000  0.09843
       9     H     0.45529  0.45529  0.00000  0.08942
      10     C     3.10059  3.10059  0.00000 -0.20118
      11     H     0.45661  0.45661  0.00000  0.08678
      12     H     0.45337  0.45337  0.00000  0.09327
      13     C     3.09965  3.09965  0.00000 -0.19931
      14     H     0.44460  0.44460  0.00000  0.11079
      15     H     0.45464  0.45464  0.00000  0.09072
      16     C     3.08370  3.08370  0.00000 -0.16740
      17     H     0.45531  0.45531  0.00000  0.08938
      18     H     0.44682  0.44682  0.00000  0.10636
      19     C     3.08541  3.08541  0.00000 -0.17082
      20     H     0.45583  0.45583  0.00000  0.08833
      21     H     0.45416  0.45416  0.00000  0.09169
      22     C     3.14977  3.14977  0.00000 -0.29955
      23     H     0.45435  0.45435  0.00000  0.09130
      24     H     0.45435  0.45435  0.00000  0.09130
      25     H     0.45549  0.45549  0.00000  0.08903
      26     H     0.44830  0.44830  0.00000  0.10340
      27     H     0.45513  0.45513  0.00000  0.08974

   Total alpha = 37.00000, Total beta = 37.00000, Total charge =  0.00000

*** Psi4 exiting successfully. Buy a developer a beer!
