  ==> Input File <==

--------------------------------------------------------------------------
set {
	reference rhf
	basis cc-pvtz
}

set_num_threads( 4 )
memory 2 gb

molecule MOL {
0 1

H	 2.679323	 1.239901	 2.223047
O	 1.754258	 1.117067	 2.335266
C	 1.154735	 0.816003	 1.166763
C	 1.860174	 0.712756	 -0.022513
C	 -0.209243	 0.607611	 1.179336
H	 2.922675	 0.875412	 -0.030492
C	 1.201244	 0.401854	 -1.194736
H	 -0.756891	 0.686627	 2.096223
C	 -0.861704	 0.296439	 0.000000
H	 1.757400	 0.324651	 -2.108822
C	 -0.163057	 0.191887	 -1.190707
C	 -2.330689	 0.069587	 0.000000
H	 -0.678175	 -0.050014	 -2.100666
O	 -2.848621	 -0.993976	 0.000000
H	 -2.934306	 0.982410	 0.000000

	symmetry c1
}
set optking {
	frozen_dihedral = ("
		11 9 12 14
	")
}

ee = optimize('scf')
oeprop('DIPOLE', 'QUADRUPOLE', 'MULLIKEN_CHARGES')
f=open( 'psi4out.xyz', 'w' )
f.write( "15  " )
f.write( str(ee) + "\n" )
f.write( MOL.save_string_xyz() )
f.close()
--------------------------------------------------------------------------

    Molecular point group: c1
  Charge       = 0
  Multiplicity = 1
  Basis Set: CC-PVTZ
  Basis Set:
  @DF-RHF Final Energy:  -418.42729244994320
    Total Energy =                       -418.4272924499430246
    Molecular point group: c1
  Basis Set: CC-PVTZ
  Basis Set:
  Basis Set: CC-PVTZ
  Basis Set:
  @DF-RHF Final Energy:  -418.42765447969509
    Total Energy =                       -418.4276544796949793
  Basis Set: CC-PVTZ
  Basis Set:
  Basis Set: CC-PVTZ
  Basis Set:
  @DF-RHF Final Energy:  -418.42680982503038
    Total Energy =                       -418.4268098250303183
  Basis Set: CC-PVTZ
  Basis Set:
  Basis Set: CC-PVTZ
  Basis Set:
  @DF-RHF Final Energy:  -418.42773840211123
    Total Energy =                       -418.4277384021105490
  Basis Set: CC-PVTZ
  Basis Set:
  Basis Set: CC-PVTZ
  Basis Set:
  @DF-RHF Final Energy:  -418.42774234379425
    Total Energy =                       -418.4277423437943071
  Basis Set: CC-PVTZ
  Basis Set:
  Charge       = 0
  Multiplicity = 1
  Basis Set: CC-PVTZ
  Basis Set:

    Orbital Energies (a.u.)
    -----------------------

    Doubly Occupied:

       1A    -20.597024     2A    -20.563871     3A    -11.333085
       4A    -11.312724     5A    -11.256401     6A    -11.249404
       7A    -11.239130     8A    -11.237780     9A    -11.235911
      10A     -1.428904    11A     -1.418328    12A     -1.172253
      13A     -1.051483    14A     -1.026903    15A     -0.901992
      16A     -0.845713    17A     -0.821122    18A     -0.742973
      19A     -0.703273    20A     -0.677646    21A     -0.672262
      22A     -0.642671    23A     -0.616342    24A     -0.607959
      25A     -0.587401    26A     -0.545949    27A     -0.535658
      28A     -0.515735    29A     -0.498247    30A     -0.426764
      31A     -0.357691    32A     -0.328677

  @DF-RHF Final Energy:  -418.42774283012608

   => Energetics <=

    Nuclear Repulsion Energy =            402.7289835021305748
    One-Electron Energy =               -1368.0108976375991006
    Two-Electron Energy =                 546.8541713053425610
    DFT Exchange-Correlation Energy =       0.0000000000000000
    Empirical Dispersion Energy =           0.0000000000000000
    PCM Polarization Energy =               0.0000000000000000
    EFP Energy =                            0.0000000000000000
    Total Energy =                       -418.4277428301259079
    Molecular point group: c1
  Basis Set: CC-PVTZ
  Basis Set:

  -Total Gradient:
     Atom            X                  Y                   Z
    ------   -----------------  -----------------  -----------------
       1       -0.000002957245     0.000009290591    -0.000001311866
       2        0.000002297070     0.000036685446    -0.000017660963
       3       -0.000060473671    -0.000129464326     0.000078075577
       4        0.000010660235     0.000005665402    -0.000109403041
       5        0.000012491680     0.000034390931     0.000013879585
       6       -0.000004135676     0.000006365620     0.000005984383
       7        0.000099685520     0.000039596914     0.000066804912
       8        0.000013667777     0.000006178719     0.000001566775
       9        0.000482329076    -0.003254525914     0.001641228438
      10       -0.000006823007    -0.000003511954    -0.000009363323
      11       -0.000401990270     0.002206392223    -0.000290734799
      12       -0.000250407166     0.001066847931    -0.004163316935
      13        0.000008488170     0.000005777617    -0.000001015195
      14        0.000061454115    -0.000029142076     0.002790019702
      15        0.000035713391    -0.000000547120    -0.000004753247

  **** Optimization is complete! (in 6 steps) ****
    Final optimized geometry and variables:
    Molecular point group: c1

    Geometry (in Angstrom), charge = 0, multiplicity = 1:

    H            2.726345446196     0.881798478999     1.934246553678
    O            1.798916369365     0.766722606335     2.037218434847
    C            1.214115847704     0.462208691051     0.863583950937
    C            1.925302241594     0.365297761841    -0.318686337468
    C           -0.153573333273     0.249698425256     0.869872075160
    H            2.986282505476     0.535939354993    -0.324778023665
    C            1.264254521978     0.050147512461    -1.489994310304
    H           -0.687759245263     0.336270608131     1.796397117759
    C           -0.797857714336    -0.082653301268    -0.304242600703
    H            1.820540675376    -0.021621580368    -2.404868101611
    C           -0.097056124902    -0.174454938137    -1.495292930302
    C           -2.285050536567    -0.278147867192    -0.291875474637
    H           -0.603755156044    -0.428857289963    -2.405482431670
    O           -2.813641886555    -1.333419173495    -0.307822468611
    H           -2.879136848676     0.640367172602    -0.244524855943

  Mulliken Charges: (a.u.)
   Center  Symbol    Alpha    Beta     Spin     Total
       1     H     0.38618  0.38618  0.00000  0.22764
       2     O     4.17156  4.17156  0.00000 -0.34313
       3     C     2.83569  2.83569  0.00000  0.32862
       4     C     3.14142  3.14142  0.00000 -0.28284
       5     C     3.13635  3.13635  0.00000 -0.27270
       6     H     0.43259  0.43259  0.00000  0.13482
       7     C     3.05248  3.05248  0.00000 -0.10497
       8     H     0.41922  0.41922  0.00000  0.16156
       9     C     2.91873  2.91873  0.00000  0.16255
      10     H     0.41968  0.41968  0.00000  0.16064
      11     C     3.12143  3.12143  0.00000 -0.24287
      12     C     2.92975  2.92975  0.00000  0.14049
      13     H     0.42132  0.42132  0.00000  0.15736
      14     O     4.15565  4.15565  0.00000 -0.31130
      15     H     0.45793  0.45793  0.00000  0.08413

   Total alpha = 32.00000, Total beta = 32.00000, Total charge = -0.00000
