  ==> Input File <==

--------------------------------------------------------------------------
set {
	reference rhf
	basis cc-pvtz
}

set_num_threads( 4 )
memory 2 gb

molecule MOL {
0 1

H	 -2.543140	 -1.673600	 -0.920141
N	 -1.629434	 -1.603834	 -0.526003
C	 -1.437985	 -0.319210	 0.121476
H	 -0.971358	 -1.713745	 -1.268197
C	 -0.047225	 -0.222052	 0.705423
H	 -1.590842	 0.528912	 -0.544759
H	 -2.152829	 -0.229005	 0.931977
O	 0.881195	 -0.248324	 -0.336237
H	 0.052041	 0.702967	 1.271690
H	 0.124092	 -1.056096	 1.382143
C	 2.208068	 -0.234417	 0.074171
H	 2.725499	 -1.027054	 -0.446768
H	 2.688377	 0.712084	 -0.164856
H	 2.295137	 -0.403407	 1.144883

	symmetry c1
}
set optking {
	frozen_dihedral = ("
		5 8 11 13
	")
}

ee = optimize('scf')
oeprop('DIPOLE', 'QUADRUPOLE', 'MULLIKEN_CHARGES')
f=open( 'psi4out.xyz', 'w' )
f.write( "14  " )
f.write( str(ee) + "\n" )
f.write( MOL.save_string_xyz() )
f.close()
--------------------------------------------------------------------------

    Molecular point group: c1
  Charge       = 0
  Multiplicity = 1
  Basis Set: CC-PVTZ
  Basis Set:
  @DF-RHF Final Energy:  -248.22253629077164
    Total Energy =                       -248.2225362907714725
    Molecular point group: c1
  Basis Set: CC-PVTZ
  Basis Set:
  Basis Set: CC-PVTZ
  Basis Set:
  @DF-RHF Final Energy:  -248.22279653007902
    Total Energy =                       -248.2227965300791652
  Basis Set: CC-PVTZ
  Basis Set:
  Basis Set: CC-PVTZ
  Basis Set:
  @DF-RHF Final Energy:  -248.22285803597697
    Total Energy =                       -248.2228580359773105
  Basis Set: CC-PVTZ
  Basis Set:
  Charge       = 0
  Multiplicity = 1
  Basis Set: CC-PVTZ
  Basis Set:

    Orbital Energies (a.u.)
    -----------------------

    Doubly Occupied:

       1A    -20.547517     2A    -15.523081     3A    -11.264433
       4A    -11.263228     5A    -11.239388     6A     -1.380044
       7A     -1.175523     8A     -1.000475     9A     -0.907886
      10A     -0.815325    11A     -0.683772    12A     -0.673650
      13A     -0.645465    14A     -0.611187    15A     -0.607864
      16A     -0.540438    17A     -0.535491    18A     -0.497579
      19A     -0.473544    20A     -0.414925    21A     -0.383474

  @DF-RHF Final Energy:  -248.22285862847843

   => Energetics <=

    Nuclear Repulsion Energy =            194.4312516921082192
    One-Electron Energy =                -722.9396485003326234
    Two-Electron Energy =                 280.2855381797462542
    DFT Exchange-Correlation Energy =       0.0000000000000000
    Empirical Dispersion Energy =           0.0000000000000000
    PCM Polarization Energy =               0.0000000000000000
    EFP Energy =                            0.0000000000000000
    Total Energy =                       -248.2228586284782068
    Molecular point group: c1
  Basis Set: CC-PVTZ
  Basis Set:

  -Total Gradient:
     Atom            X                  Y                   Z
    ------   -----------------  -----------------  -----------------
       1        0.000008252877     0.000004837025    -0.000000321391
       2        0.000007375385     0.000015816371    -0.000012717636
       3       -0.000046625025    -0.000038938849     0.000083255919
       4       -0.000002154241     0.000001651049    -0.000007904746
       5       -0.000071411848    -0.001139341895    -0.000001999430
       6        0.000037516473    -0.000029118375     0.000018852081
       7       -0.000054832532    -0.000000421561     0.000004040126
       8        0.000250676410     0.001592606040    -0.000414863171
       9        0.000003427644    -0.000014790272     0.000008888491
      10        0.000000784195     0.000008413197    -0.000036695680
      11       -0.000536884899     0.000164566751     0.001712764056
      12        0.000006841776    -0.000004525823     0.000004206935
      13        0.000395528932    -0.000559117724    -0.001362138707
      14        0.000001504858    -0.000001635932     0.000004633154

  **** Optimization is complete! (in 4 steps) ****
    Final optimized geometry and variables:
    Molecular point group: c1

    Geometry (in Angstrom), charge = 0, multiplicity = 1:

    H           -2.541699559635    -1.139770486790    -0.932142847986
    N           -1.632635611605    -1.069248808415    -0.527596869534
    C           -1.450416669820     0.214722017796     0.123688006954
    H           -0.966156145006    -1.176432189949    -1.262600193168
    C           -0.066160450943     0.313581671480     0.722674965631
    H           -1.597355934244     1.063353985784    -0.543149646432
    H           -2.173997939898     0.303076732219     0.926790003109
    O            0.871155073055     0.281360742650    -0.312517766708
    H            0.023453721663     1.240227372037     1.287370347571
    H            0.096028214625    -0.518813818651     1.402301807121
    C            2.211812620650     0.290764927398     0.070794161823
    H            2.737337434737    -0.496242037852    -0.456370335111
    H            2.672099514556     1.238685565130    -0.188162225214
    H            2.330788558383     0.124523482926     1.136029666679

  Mulliken Charges: (a.u.)
   Center  Symbol    Alpha    Beta     Spin     Total
       1     H     0.43035  0.43035  0.00000  0.13930
       2     N     3.69427  3.69427  0.00000 -0.38854
       3     C     3.02403  3.02403  0.00000 -0.04806
       4     H     0.42218  0.42218  0.00000  0.15564
       5     C     2.96798  2.96798  0.00000  0.06404
       6     H     0.46482  0.46482  0.00000  0.07035
       7     H     0.45873  0.45873  0.00000  0.08255
       8     O     4.18439  4.18439  0.00000 -0.36878
       9     H     0.47018  0.47018  0.00000  0.05963
      10     H     0.46832  0.46832  0.00000  0.06335
      11     C     3.02745  3.02745  0.00000 -0.05489
      12     H     0.45505  0.45505  0.00000  0.08990
      13     H     0.46069  0.46069  0.00000  0.07863
      14     H     0.47156  0.47156  0.00000  0.05687

   Total alpha = 21.00000, Total beta = 21.00000, Total charge =  0.00000
