  ==> Input File <==

--------------------------------------------------------------------------
set {
	reference rhf
	basis cc-pvtz
}

set_num_threads( 4 )
memory 2 gb

molecule MOL {
0 1

H	 1.426901	 2.420259	 -2.432508
O	 0.722592	 2.200056	 -1.851548
C	 1.186441	 1.359925	 -0.826345
C	 0.027642	 1.012027	 0.090274
H	 1.958618	 1.860415	 -0.247537
H	 1.627138	 0.459160	 -1.244519
C	 -1.138737	 0.285728	 -0.581921
H	 -0.338305	 1.933280	 0.531730
H	 0.416541	 0.405836	 0.904831
C	 -1.933983	 -0.631436	 0.343653
H	 -0.763151	 -0.285569	 -1.422081
H	 -1.808359	 1.035291	 -0.992333
H	 -2.789188	 -1.049673	 -0.174718
H	 -1.335629	 -1.461368	 0.700418
H	 -2.305435	 -0.092167	 1.209725

	symmetry c1
}
set optking {
	frozen_dihedral = ("
		8 4 7 11
	")
}

ee = optimize('scf')
oeprop('DIPOLE', 'QUADRUPOLE', 'MULLIKEN_CHARGES')
f=open( 'psi4out.xyz', 'w' )
f.write( "15  " )
f.write( str(ee) + "\n" )
f.write( MOL.save_string_xyz() )
f.close()
--------------------------------------------------------------------------

    Molecular point group: c1
  Charge       = 0
  Multiplicity = 1
  Basis Set: CC-PVTZ
  Basis Set:
  @DF-RHF Final Energy:  -232.23613918394483
    Total Energy =                       -232.2361391839447151
    Molecular point group: c1
  Basis Set: CC-PVTZ
  Basis Set:
  Basis Set: CC-PVTZ
  Basis Set:
  @DF-RHF Final Energy:  -232.23663235474567
    Total Energy =                       -232.2366323547455522
  Basis Set: CC-PVTZ
  Basis Set:
  Basis Set: CC-PVTZ
  Basis Set:
  @DF-RHF Final Energy:  -232.23666119004920
    Total Energy =                       -232.2366611900490625
  Basis Set: CC-PVTZ
  Basis Set:
  Charge       = 0
  Multiplicity = 1
  Basis Set: CC-PVTZ
  Basis Set:

    Orbital Energies (a.u.)
    -----------------------

    Doubly Occupied:

       1A    -20.546214     2A    -11.265769     3A    -11.210520
       4A    -11.207605     5A    -11.203906     6A     -1.364209
       7A     -1.065199     8A     -0.975405     9A     -0.857526
      10A     -0.787392    11A     -0.706835    12A     -0.645992
      13A     -0.604925    14A     -0.590794    15A     -0.550121
      16A     -0.537521    17A     -0.508597    18A     -0.476889
      19A     -0.468052    20A     -0.454527    21A     -0.433141

  @DF-RHF Final Energy:  -232.23666206237041

   => Energetics <=

    Nuclear Repulsion Energy =            188.8654083838331701
    One-Electron Energy =                -689.2818590307983868
    Two-Electron Energy =                 268.1797885845946894
    DFT Exchange-Correlation Energy =       0.0000000000000000
    Empirical Dispersion Energy =           0.0000000000000000
    PCM Polarization Energy =               0.0000000000000000
    EFP Energy =                            0.0000000000000000
    Total Energy =                       -232.2366620623705558
    Molecular point group: c1
  Basis Set: CC-PVTZ
  Basis Set:

  -Total Gradient:
     Atom            X                  Y                   Z
    ------   -----------------  -----------------  -----------------
       1       -0.000003384716    -0.000009298367     0.000017025613
       2       -0.000078774291     0.000002217734    -0.000047939416
       3        0.000058675550     0.000102264493     0.000022950646
       4       -0.001175995925    -0.001723391086     0.003568195599
       5        0.000020580044    -0.000022355578     0.000022977659
       6       -0.000010987771    -0.000036357783     0.000033092822
       7        0.000867586767    -0.003344213140     0.002206849694
       8        0.000857357860     0.001925711086    -0.003378287004
       9       -0.000001382831     0.000001048393    -0.000017983439
      10       -0.000052132800    -0.000027099256    -0.000012885538
      11       -0.000495722683     0.003106484732    -0.002386266827
      12       -0.000014914777     0.000005994987    -0.000016781368
      13       -0.000004600431     0.000003815548     0.000007500316
      14        0.000016390180     0.000008935580    -0.000005995572
      15        0.000017305820     0.000006242657    -0.000012453190

  **** Optimization is complete! (in 4 steps) ****
    Final optimized geometry and variables:
    Molecular point group: c1

    Geometry (in Angstrom), charge = 0, multiplicity = 1:

    H            1.584159718741     1.562473822103    -1.824968636155
    O            0.898310843812     1.350740329829    -1.219425688717
    C            1.377838496383     0.476962415451    -0.230592683960
    C            0.235419584531     0.117812154049     0.700173622313
    H            2.177542389014     0.948130875967     0.335744204934
    H            1.782258269980    -0.425525807744    -0.684869340641
    C           -0.920757355770    -0.602838670399    -0.002332406785
    H           -0.122145438970     1.043043672201     1.140443242450
    H            0.636072954324    -0.497483194094     1.500401845708
    C           -1.732376304888    -1.492476554823     0.931617973788
    H           -0.537100884275    -1.178919343912    -0.839245716634
    H           -1.572689390378     0.137719699230    -0.450785805475
    H           -2.566536796911    -1.950223312343     0.412305598720
    H           -1.122118686169    -2.288474947050     1.345870487268
    H           -2.134666734406    -0.921290186254     1.762210884544

  Mulliken Charges: (a.u.)
   Center  Symbol    Alpha    Beta     Spin     Total
       1     H     0.39600  0.39600  0.00000  0.20799
       2     O     4.19956  4.19956  0.00000 -0.39911
       3     C     2.97227  2.97227  0.00000  0.05546
       4     C     3.08942  3.08942  0.00000 -0.17884
       5     H     0.46637  0.46637  0.00000  0.06725
       6     H     0.47463  0.47463  0.00000  0.05074
       7     C     3.08049  3.08049  0.00000 -0.16099
       8     H     0.45142  0.45142  0.00000  0.09716
       9     H     0.45542  0.45542  0.00000  0.08916
      10     C     3.14907  3.14907  0.00000 -0.29813
      11     H     0.45654  0.45654  0.00000  0.08691
      12     H     0.44713  0.44713  0.00000  0.10575
      13     H     0.44918  0.44918  0.00000  0.10163
      14     H     0.45760  0.45760  0.00000  0.08480
      15     H     0.45489  0.45489  0.00000  0.09022

   Total alpha = 21.00000, Total beta = 21.00000, Total charge = -0.00000
