  ==> Input File <==

--------------------------------------------------------------------------
set {
	reference rhf
	basis cc-pvtz
}

set_num_threads( 4 )
memory 2 gb

molecule MOL {
0 1

H	 1.168373	 -1.086309	 1.731399
C	 0.246417	 -1.196416	 1.179508
O	 -0.000000	 0.000000	 0.518769
H	 0.353497	 -2.023143	 0.480286
H	 -0.552620	 -1.438246	 1.877300
C	 -1.165153	 0.000000	 -0.236961
H	 -1.229451	 0.882440	 -0.870223
H	 -2.002557	 0.000000	 0.445289
H	 -1.229451	 -0.882440	 -0.870223

	symmetry c1
}
set optking {
	frozen_dihedral = ("
		2 3 6 7
	")
}

ee = optimize('scf')
oeprop('DIPOLE', 'QUADRUPOLE', 'MULLIKEN_CHARGES')
f=open( 'psi4out.xyz', 'w' )
f.write( "9  " )
f.write( str(ee) + "\n" )
f.write( MOL.save_string_xyz() )
f.close()
--------------------------------------------------------------------------

    Molecular point group: c1
  Charge       = 0
  Multiplicity = 1
  Basis Set: CC-PVTZ
  Basis Set:
  @DF-RHF Final Energy:  -154.12591793777710
    Total Energy =                       -154.1259179377770465
    Molecular point group: c1
  Basis Set: CC-PVTZ
  Basis Set:
  Basis Set: CC-PVTZ
  Basis Set:
  @DF-RHF Final Energy:  -154.12674467670621
    Total Energy =                       -154.1267446767061813
  Basis Set: CC-PVTZ
  Basis Set:
  Basis Set: CC-PVTZ
  Basis Set:
  @DF-RHF Final Energy:  -154.12695314450124
    Total Energy =                       -154.1269531445012149
  Basis Set: CC-PVTZ
  Basis Set:
  Charge       = 0
  Multiplicity = 1
  Basis Set: CC-PVTZ
  Basis Set:

    Orbital Energies (a.u.)
    -----------------------

    Doubly Occupied:

       1A    -20.550212     2A    -11.263264     3A    -11.263179
       4A     -1.382638     5A     -0.975878     6A     -0.872743
       7A     -0.664023     8A     -0.655727     9A     -0.646967
      10A     -0.552345    11A     -0.529364    12A     -0.476881
      13A     -0.420217

  @DF-RHF Final Energy:  -154.12695400082890

   => Energetics <=

    Nuclear Repulsion Energy =             84.8497146559367508
    One-Electron Energy =                -377.4464590642962776
    Two-Electron Energy =                 138.4697904075305814
    DFT Exchange-Correlation Energy =       0.0000000000000000
    Empirical Dispersion Energy =           0.0000000000000000
    PCM Polarization Energy =               0.0000000000000000
    EFP Energy =                            0.0000000000000000
    Total Energy =                       -154.1269540008289596
    Molecular point group: c1
  Basis Set: CC-PVTZ
  Basis Set:

  -Total Gradient:
     Atom            X                  Y                   Z
    ------   -----------------  -----------------  -----------------
       1       -0.000019052179     0.000083806910    -0.000041297335
       2        0.000417972515    -0.000462830610    -0.000994903935
       3       -0.000607032356     0.000480231114     0.001048702342
       4        0.000020191073    -0.000024905186     0.000003625865
       5        0.000009785443     0.000015432733     0.000012273953
       6       -0.000597080125     0.000602919240     0.000911613977
       7        0.000709057241    -0.000692590849    -0.000984503871
       8        0.000037255978     0.000007092087     0.000031028248
       9        0.000028902411    -0.000009155439     0.000013460756

  **** Optimization is complete! (in 4 steps) ****
    Final optimized geometry and variables:
    Molecular point group: c1

    Geometry (in Angstrom), charge = 0, multiplicity = 1:

    H            1.498280404123    -0.665202113824     1.233684515198
    C            0.569766260812    -0.780614166577     0.693643865237
    O            0.317439334819     0.408873823846     0.022788168229
    H            0.667658414593    -1.614225727965     0.001467181949
    H           -0.220455758645    -1.015333774228     1.404258707519
    C           -0.860335734933     0.407628841249    -0.713643188485
    H           -0.869497324943     1.296945717358    -1.327120534210
    H           -1.735511518420     0.409423412464    -0.067572346278
    H           -0.918705871258    -0.459659440443    -1.368253775239

  Mulliken Charges: (a.u.)
   Center  Symbol    Alpha    Beta     Spin     Total
       1     H     0.44843  0.44843  0.00000  0.10314
       2     C     3.02196  3.02196  0.00000 -0.04391
       3     O     4.16751  4.16751  0.00000 -0.33501
       4     H     0.47241  0.47241  0.00000  0.05517
       5     H     0.47364  0.47364  0.00000  0.05272
       6     C     3.02154  3.02154  0.00000 -0.04308
       7     H     0.44875  0.44875  0.00000  0.10250
       8     H     0.47079  0.47079  0.00000  0.05842
       9     H     0.47497  0.47497  0.00000  0.05006

   Total alpha = 13.00000, Total beta = 13.00000, Total charge =  0.00000
