  ==> Input File <==

--------------------------------------------------------------------------
set {
	reference rhf
	basis 6-31G*
}

set_num_threads( 4 )
memory 2 gb

molecule MOL {
0 1

H	 -1.748661	 -2.220942	 -0.005015
C	 -1.343207	 -1.225221	 -0.013879
N	 -0.055091	 -1.100174	 -0.261126
C	 -2.150779	 -0.125890	 0.222726
C	 0.449969	 0.122615	 -0.277109
H	 -3.200618	 -0.238980	 0.422496
N	 -1.660212	 1.097703	 0.209594
C	 -0.371804	 1.219904	 -0.038265
C	 1.928147	 0.267347	 -0.541394
H	 0.029131	 2.217482	 -0.051283
C	 2.384938	 -0.533772	 -1.765144
H	 2.144821	 1.318852	 -0.697125
H	 2.485311	 -0.048664	 0.334893
H	 3.445417	 -0.386100	 -1.942841
H	 1.844477	 -0.218243	 -2.649916
H	 2.212585	 -1.596140	 -1.623795

	symmetry c1
}
set optking {
	frozen_dihedral = ("
		12 9 5 3
	")
}

ee = optimize('scf')
oeprop('DIPOLE', 'QUADRUPOLE', 'MULLIKEN_CHARGES')
f=open( 'psi4out.xyz', 'w' )
f.write( "16  " )
f.write( str(ee) + "\n" )
f.write( MOL.save_string_xyz() )
f.close()
--------------------------------------------------------------------------

    Molecular point group: c1
  Charge       = 0
  Multiplicity = 1
  Basis Set: 6-31G*
  Basis Set:
  @DF-RHF Final Energy:  -340.75782727596192
    Total Energy =                       -340.7578272759618585
    Molecular point group: c1
  Basis Set: 6-31G*
  Basis Set:
  Basis Set: 6-31G*
  Basis Set:
  @DF-RHF Final Energy:  -340.75792537134032
    Total Energy =                       -340.7579253713400931
  Basis Set: 6-31G*
  Basis Set:
  Basis Set: 6-31G*
  Basis Set:
  @DF-RHF Final Energy:  -340.75797477425385
    Total Energy =                       -340.7579747742535687
  Basis Set: 6-31G*
  Basis Set:
  Basis Set: 6-31G*
  Basis Set:
  @DF-RHF Final Energy:  -340.75797859841254
    Total Energy =                       -340.7579785984123646
  Basis Set: 6-31G*
  Basis Set:
  Basis Set: 6-31G*
  Basis Set:
  @DF-RHF Final Energy:  -340.75797920252035
    Total Energy =                       -340.7579792025205734
  Basis Set: 6-31G*
  Basis Set:
  Charge       = 0
  Multiplicity = 1
  Basis Set: 6-31G*
  Basis Set:

    Orbital Energies (a.u.)
    -----------------------

    Doubly Occupied:

       1A    -15.586882     2A    -15.582269     3A    -11.281793
       4A    -11.276598     5A    -11.272139     6A    -11.272027
       7A    -11.233635     8A    -11.214378     9A     -1.313583
      10A     -1.222169    11A     -1.083761    12A     -1.013382
      13A     -0.907457    14A     -0.890776    15A     -0.826044
      16A     -0.717242    17A     -0.708168    18A     -0.658745
      19A     -0.619498    20A     -0.602310    21A     -0.573585
      22A     -0.560015    23A     -0.521244    24A     -0.504053
      25A     -0.500227    26A     -0.485910    27A     -0.429127
      28A     -0.394714    29A     -0.345216

  @DF-RHF Final Energy:  -340.75798068148526

   => Energetics <=

    Nuclear Repulsion Energy =            349.7528156255062868
    One-Electron Energy =               -1153.8276994734571872
    Two-Electron Energy =                 463.3169031664657496
    DFT Exchange-Correlation Energy =       0.0000000000000000
    Empirical Dispersion Energy =           0.0000000000000000
    PCM Polarization Energy =               0.0000000000000000
    EFP Energy =                            0.0000000000000000
    Total Energy =                       -340.7579806814851509
    Molecular point group: c1
  Basis Set: 6-31G*
  Basis Set:

  -Total Gradient:
     Atom            X                  Y                   Z
    ------   -----------------  -----------------  -----------------
       1       -0.000018770896     0.000002960628    -0.000015574033
       2        0.000136347503    -0.000065489811    -0.000000629626
       3       -0.000264792746    -0.000015859593    -0.000886529849
       4       -0.000013220267     0.000149368751     0.000036727450
       5        0.000206842956     0.000065789872     0.001046606935
       6       -0.000004935380    -0.000012101153    -0.000018125050
       7       -0.000129040851    -0.000097519475     0.000036685076
       8        0.000148265519    -0.000033323617    -0.000082338990
       9        0.000133997648     0.000136441596     0.000857058858
      10       -0.000006189974    -0.000003938758     0.000003740892
      11       -0.000003725154     0.000026231155    -0.000007880342
      12       -0.000196136955    -0.000117615025    -0.000979271611
      13        0.000010353313     0.000003082372    -0.000005626586
      14        0.000003295973    -0.000001939312     0.000000196970
      15        0.000000019682    -0.000001265747     0.000015178232
      16       -0.000002310372    -0.000034821883    -0.000000218328

  **** Optimization is complete! (in 6 steps) ****
    Final optimized geometry and variables:
    Molecular point group: c1

    Geometry (in Angstrom), charge = 0, multiplicity = 1:

    H           -1.702005872149    -2.177788486745     0.330608369486
    C           -1.294524426457    -1.182824050642     0.321353521410
    N           -0.007351366470    -1.060413083947     0.065394454687
    C           -2.097160932047    -0.083052684049     0.567718016972
    C            0.502510330258     0.159393241446     0.052140554896
    H           -3.145829636564    -0.193597379804     0.775031364406
    N           -1.602885944656     1.139518983002     0.553441346123
    C           -0.316612184920     1.258568440202     0.296871727062
    C            1.979614378563     0.314452370234    -0.225500595902
    H            0.086182477372     2.255404581009     0.281766731741
    C            2.457638653581    -0.490193028409    -1.436264598294
    H            2.201808031574     1.366110728242    -0.376503645167
    H            2.531055634993     0.000453530640     0.657030082718
    H            3.523859795265    -0.350955085391    -1.582832364727
    H            1.949513338323    -0.170862398217    -2.340689327579
    H            2.265764910702    -1.546226058629    -1.298031050930

  Mulliken Charges: (a.u.)
   Center  Symbol    Alpha    Beta     Spin     Total
       1     H     0.39387  0.39387  0.00000  0.21225
       2     C     2.98945  2.98945  0.00000  0.02109
       3     N     3.75546  3.75546  0.00000 -0.51092
       4     C     2.99822  2.99822  0.00000  0.00357
       5     C     2.87125  2.87125  0.00000  0.25751
       6     H     0.39421  0.39421  0.00000  0.21158
       7     N     3.72868  3.72868  0.00000 -0.45736
       8     C     3.00123  3.00123  0.00000 -0.00247
       9     C     3.16983  3.16983  0.00000 -0.33966
      10     H     0.39503  0.39503  0.00000  0.20993
      11     C     3.24133  3.24133  0.00000 -0.48266
      12     H     0.41441  0.41441  0.00000  0.17117
      13     H     0.40593  0.40593  0.00000  0.18814
      14     H     0.41851  0.41851  0.00000  0.16297
      15     H     0.41863  0.41863  0.00000  0.16275
      16     H     0.40396  0.40396  0.00000  0.19209

   Total alpha = 29.00000, Total beta = 29.00000, Total charge = -0.00000
