  ==> Input File <==

--------------------------------------------------------------------------
set {
	reference rhf
	basis cc-pvtz
}

set_num_threads( 4 )
memory 2 gb

molecule MOL {
0 1

O	 1.847685	 1.294399	 -0.000190
C	 1.704209	 0.119472	 -0.000093
C	 0.380337	 -0.600947	 -0.000234
O	 2.715427	 -0.733672	 0.000025
C	 -0.824290	 0.329213	 -0.000115
H	 0.371455	 -1.255476	 -0.865660
H	 0.371410	 -1.255787	 0.864952
C	 -2.146151	 -0.432825	 -0.000068
H	 -0.773936	 0.979158	 -0.866319
H	 -0.773838	 0.979034	 0.866186
C	 -3.366283	 0.483552	 0.000557
H	 -2.189286	 -1.084450	 -0.869996
H	 -2.188867	 -1.085083	 0.869399
C	 -4.541055	 -0.083640	 0.790250
H	 -3.676012	 0.667762	 -1.024280
H	 -3.088017	 1.449695	 0.412013
H	 -4.865308	 -1.034818	 0.381161
H	 -5.389379	 0.590659	 0.770201
H	 -4.272792	 -0.246335	 1.828903
C	 4.020999	 -0.192556	 0.000019
H	 4.182809	 0.412891	 -0.879449
H	 4.692590	 -1.035653	 0.000152
H	 4.182726	 0.413087	 0.879368

	symmetry c1
}
set optking {
	frozen_dihedral = ("
		15 11 8 12
	")
}

ee = optimize('scf')
oeprop('DIPOLE', 'QUADRUPOLE', 'MULLIKEN_CHARGES')
f=open( 'psi4out.xyz', 'w' )
f.write( "23  " )
f.write( str(ee) + "\n" )
f.write( MOL.save_string_xyz() )
f.close()
--------------------------------------------------------------------------

    Molecular point group: c1
  Charge       = 0
  Multiplicity = 1
  Basis Set: CC-PVTZ
  Basis Set:
  @DF-RHF Final Energy:  -423.12756987677710
    Total Energy =                       -423.1275698767763060
    Molecular point group: c1
  Basis Set: CC-PVTZ
  Basis Set:
  Basis Set: CC-PVTZ
  Basis Set:
  @DF-RHF Final Energy:  -423.12786100947341
    Total Energy =                       -423.1278610094736905
  Basis Set: CC-PVTZ
  Basis Set:
  Basis Set: CC-PVTZ
  Basis Set:
  @DF-RHF Final Energy:  -423.12790815442850
    Total Energy =                       -423.1279081544284963
  Basis Set: CC-PVTZ
  Basis Set:
  Basis Set: CC-PVTZ
  Basis Set:
  @DF-RHF Final Energy:  -423.12765987220075
    Total Energy =                       -423.1276598722004110
  Basis Set: CC-PVTZ
  Basis Set:
  Basis Set: CC-PVTZ
  Basis Set:
  @DF-RHF Final Energy:  -423.12792567192241
    Total Energy =                       -423.1279256719219575
  Basis Set: CC-PVTZ
  Basis Set:
  Charge       = 0
  Multiplicity = 1
  Basis Set: CC-PVTZ
  Basis Set:

    Orbital Energies (a.u.)
    -----------------------

    Doubly Occupied:

       1A    -20.596248     2A    -20.534048     3A    -11.364507
       4A    -11.278437     5A    -11.233560     6A    -11.217200
       7A    -11.215781     8A    -11.214469     9A    -11.207647
      10A     -1.472135    11A     -1.365707    12A     -1.093644
      13A     -1.043877    14A     -0.987921    15A     -0.932348
      16A     -0.843968    17A     -0.795242    18A     -0.769306
      19A     -0.699026    20A     -0.686733    21A     -0.675515
      22A     -0.650454    23A     -0.611739    24A     -0.600531
      25A     -0.574773    26A     -0.566143    27A     -0.550305
      28A     -0.525677    29A     -0.523338    30A     -0.505354
      31A     -0.488810    32A     -0.469079    33A     -0.465059
      34A     -0.461826    35A     -0.458369    36A     -0.437991

  @DF-RHF Final Energy:  -423.12792585233291

   => Energetics <=

    Nuclear Repulsion Energy =            453.0548320815399279
    One-Electron Energy =               -1474.1319874813871138
    Two-Electron Energy =                 597.9492295475138235
    DFT Exchange-Correlation Energy =       0.0000000000000000
    Empirical Dispersion Energy =           0.0000000000000000
    PCM Polarization Energy =               0.0000000000000000
    EFP Energy =                            0.0000000000000000
    Total Energy =                       -423.1279258523334192
    Molecular point group: c1
  Basis Set: CC-PVTZ
  Basis Set:

  -Total Gradient:
     Atom            X                  Y                   Z
    ------   -----------------  -----------------  -----------------
       1       -0.000009895636     0.000016371912    -0.000008549818
       2        0.000012032211    -0.000014428990     0.000011805709
       3        0.000006302367    -0.000008266861    -0.000017970317
       4       -0.000012419067    -0.000006629815    -0.000006249801
       5       -0.000020237767     0.000015937089     0.000057269101
       6        0.000002765487    -0.000004771943    -0.000002331233
       7        0.000002076053     0.000003954193     0.000000054069
       8       -0.003390119143    -0.004317584004     0.002791633251
       9       -0.000004839411     0.000012499862     0.000001168129
      10        0.000022979533    -0.000001384172     0.000001069738
      11        0.003730850452     0.004872620722    -0.000723587370
      12        0.002243756287     0.002857612396    -0.002260257465
      13       -0.000017090454     0.000025871124     0.000004623630
      14        0.000026103257    -0.000005718017     0.000017198229
      15       -0.002587742872    -0.003420822867     0.000119259457
      16        0.000013070825    -0.000020540346     0.000001548800
      17       -0.000001276503    -0.000001791315     0.000002311243
      18       -0.000000670509     0.000002427160    -0.000002290373
      19       -0.000014251207    -0.000007399871     0.000012254904
      20        0.000002537308     0.000004018897     0.000002450150
      21       -0.000000913702    -0.000000226798    -0.000000082694
      22       -0.000002699395    -0.000001366219    -0.000000428220
      23       -0.000000318104    -0.000000382134    -0.000000899120

  **** Optimization is complete! (in 6 steps) ****
    Final optimized geometry and variables:
    Molecular point group: c1

    Geometry (in Angstrom), charge = 0, multiplicity = 1:

    O            1.836928999391     1.270306268542    -0.082854618773
    C            1.692900440716     0.095471246831    -0.092938389004
    C            0.368842020066    -0.624444123155    -0.080563244896
    O            2.703687968016    -0.757920792606    -0.117270175527
    C           -0.835220676250     0.305702659979    -0.052766276094
    H            0.347114759336    -1.270490297189    -0.952114366360
    H            0.372477777026    -1.287950698257     0.778190076593
    C           -2.159516206893    -0.456163363843    -0.031261344531
    H           -0.802018268100     0.960294005535    -0.916784245371
    H           -0.768734862451     0.951477775835     0.815344542637
    C           -3.380878222296     0.472313099643    -0.076488958159
    H           -2.180867014363    -1.117741473881    -0.892891273251
    H           -2.199894973584    -1.082012268073     0.855477993549
    C           -4.595372215250    -0.106029717309     0.646343060918
    H           -3.660076577831     0.645632801881    -1.110774008007
    H           -3.132000910641     1.435577008628     0.355643195555
    H           -4.873044697909    -1.070422803005     0.233113988912
    H           -5.454149294508     0.549797575088     0.559139886987
    H           -4.391572018465    -0.247441709536     1.702534049023
    C            4.009257300026    -0.217201208427    -0.131371340795
    H            4.158022059546     0.397553849672    -1.006693705226
    H            4.680469131829    -1.060407650124    -0.150446554925
    H            4.184701000576     0.379007888090     0.751803719624

  Mulliken Charges: (a.u.)
   Center  Symbol    Alpha    Beta     Spin     Total
       1     O     4.19697  4.19697  0.00000 -0.39394
       2     C     2.80640  2.80640  0.00000  0.38719
       3     C     3.10252  3.10252  0.00000 -0.20504
       4     O     4.14649  4.14649  0.00000 -0.29298
       5     C     3.08392  3.08392  0.00000 -0.16784
       6     H     0.44010  0.44010  0.00000  0.11980
       7     H     0.43992  0.43992  0.00000  0.12016
       8     C     3.09150  3.09150  0.00000 -0.18301
       9     H     0.44557  0.44557  0.00000  0.10887
      10     H     0.44673  0.44673  0.00000  0.10653
      11     C     3.08569  3.08569  0.00000 -0.17138
      12     H     0.45453  0.45453  0.00000  0.09094
      13     H     0.45505  0.45505  0.00000  0.08990
      14     C     3.14887  3.14887  0.00000 -0.29774
      15     H     0.45252  0.45252  0.00000  0.09495
      16     H     0.45192  0.45192  0.00000  0.09616
      17     H     0.45491  0.45491  0.00000  0.09018
      18     H     0.44878  0.44878  0.00000  0.10245
      19     H     0.45581  0.45581  0.00000  0.08839
      20     C     3.03772  3.03772  0.00000 -0.07544
      21     H     0.45437  0.45437  0.00000  0.09126
      22     H     0.44535  0.44535  0.00000  0.10929
      23     H     0.45435  0.45435  0.00000  0.09129

   Total alpha = 36.00000, Total beta = 36.00000, Total charge = -0.00000
