  ==> Input File <==

--------------------------------------------------------------------------
set {
	reference rhf
	basis cc-pvtz
}

set_num_threads( 4 )
memory 2 gb

molecule MOL {
0 1

H	 -2.816458	 -0.841657	 -0.064679
N	 -1.878861	 -0.711874	 0.250184
C	 -1.341419	 0.551458	 -0.220231
H	 -1.333674	 -1.468530	 -0.105118
C	 0.082190	 0.731516	 0.254705
H	 -1.357065	 0.652078	 -1.304747
H	 -1.939897	 1.357530	 0.189797
O	 0.072632	 1.481605	 1.431558
H	 0.537499	 -0.241313	 0.434899
H	 0.661179	 1.242272	 -0.511343
C	 1.332312	 1.777204	 1.936581
H	 1.201014	 2.352842	 2.841450
H	 1.887212	 0.872467	 2.175811
H	 1.916751	 2.362403	 1.230510

	symmetry c1
}
set optking {
	frozen_dihedral = ("
		8 5 3 6
	")
}

ee = optimize('scf')
oeprop('DIPOLE', 'QUADRUPOLE', 'MULLIKEN_CHARGES')
f=open( 'psi4out.xyz', 'w' )
f.write( "14  " )
f.write( str(ee) + "\n" )
f.write( MOL.save_string_xyz() )
f.close()
--------------------------------------------------------------------------

    Molecular point group: c1
  Charge       = 0
  Multiplicity = 1
  Basis Set: CC-PVTZ
  Basis Set:
  @DF-RHF Final Energy:  -248.21870916491795
    Total Energy =                       -248.2187091649178114
    Molecular point group: c1
  Basis Set: CC-PVTZ
  Basis Set:
  Basis Set: CC-PVTZ
  Basis Set:
  @DF-RHF Final Energy:  -248.21939971889498
    Total Energy =                       -248.2193997188946923
  Basis Set: CC-PVTZ
  Basis Set:
  Basis Set: CC-PVTZ
  Basis Set:
  @DF-RHF Final Energy:  -248.21959664708984
    Total Energy =                       -248.2195966470899293
  Basis Set: CC-PVTZ
  Basis Set:
  Basis Set: CC-PVTZ
  Basis Set:
  @DF-RHF Final Energy:  -248.21964305058600
    Total Energy =                       -248.2196430505861144
  Basis Set: CC-PVTZ
  Basis Set:
  Basis Set: CC-PVTZ
  Basis Set:
  @DF-RHF Final Energy:  -248.21964917721408
    Total Energy =                       -248.2196491772139098
  Basis Set: CC-PVTZ
  Basis Set:
  Basis Set: CC-PVTZ
  Basis Set:
  @DF-RHF Final Energy:  -248.21965242228492
    Total Energy =                       -248.2196524222852076
  Basis Set: CC-PVTZ
  Basis Set:
  Charge       = 0
  Multiplicity = 1
  Basis Set: CC-PVTZ
  Basis Set:

    Orbital Energies (a.u.)
    -----------------------

    Doubly Occupied:

       1A    -20.545124     2A    -15.528919     3A    -11.263347
       4A    -11.259314     5A    -11.240466     6A     -1.379905
       7A     -1.178984     8A     -0.998602     9A     -0.901359
      10A     -0.821845    11A     -0.680914    12A     -0.670980
      13A     -0.645661    14A     -0.619882    15A     -0.606480
      16A     -0.536410    17A     -0.526203    18A     -0.502373
      19A     -0.467717    20A     -0.414778    21A     -0.386618

  @DF-RHF Final Energy:  -248.21965338897078

   => Energetics <=

    Nuclear Repulsion Energy =            192.3424703509228664
    One-Electron Energy =                -718.7724822274805092
    Two-Electron Energy =                 278.2103584875869728
    DFT Exchange-Correlation Energy =       0.0000000000000000
    Empirical Dispersion Energy =           0.0000000000000000
    PCM Polarization Energy =               0.0000000000000000
    EFP Energy =                            0.0000000000000000
    Total Energy =                       -248.2196533889706416
    Molecular point group: c1
  Basis Set: CC-PVTZ
  Basis Set:

  -Total Gradient:
     Atom            X                  Y                   Z
    ------   -----------------  -----------------  -----------------
       1        0.000003674235    -0.000000208015     0.000003739695
       2       -0.000005226057     0.000005980721    -0.000008417653
       3        0.000918397945    -0.003502861386    -0.000810940979
       4        0.000003115503     0.000007021379     0.000005476307
       5       -0.000244446995    -0.002196227664     0.001998928386
       6       -0.000725273609     0.003405705534     0.000298065022
       7       -0.000003736946    -0.000002202032     0.000000344331
       8        0.000039423827     0.002282687236    -0.001501500944
       9       -0.000002573596     0.000002997305     0.000009212828
      10        0.000002886071    -0.000001269202     0.000003429539
      11        0.000003549997    -0.000005414726    -0.000001966942
      12        0.000002451664    -0.000000418651    -0.000000649384
      13        0.000003764158     0.000003516756     0.000001938373
      14        0.000003993804     0.000000692748     0.000002341422

  **** Optimization is complete! (in 7 steps) ****
    Final optimized geometry and variables:
    Molecular point group: c1

    Geometry (in Angstrom), charge = 0, multiplicity = 1:

    H           -2.493501434971    -1.574108323568    -0.591254630123
    N           -1.507251172788    -1.506537850450    -0.459112853004
    C           -0.995905854614    -0.245307833446    -0.966220361849
    H           -1.091048970234    -2.281635404733    -0.930806880063
    C            0.428046283197     0.020771512835    -0.498270515281
    H           -1.037049780048    -0.157891481165    -2.051405445199
    H           -1.612978673327     0.552453020039    -0.574276160343
    O            0.403242213316     0.777520318141     0.670841833103
    H            0.946237273136    -0.921921638179    -0.331046041153
    H            0.976125740975     0.564477741020    -1.267190305441
    C            1.651253479876     0.998482942742     1.236258820879
    H            1.512060969920     1.603691090966     2.120348072981
    H            2.130346289872     0.065102052346     1.523578995872
    H            2.312552105791     1.527136008393     0.551900470455

  Mulliken Charges: (a.u.)
   Center  Symbol    Alpha    Beta     Spin     Total
       1     H     0.42776  0.42776  0.00000  0.14449
       2     N     3.68981  3.68981  0.00000 -0.37962
       3     C     3.02810  3.02810  0.00000 -0.05619
       4     H     0.43181  0.43181  0.00000  0.13638
       5     C     2.95323  2.95323  0.00000  0.09354
       6     H     0.46673  0.46673  0.00000  0.06655
       7     H     0.45195  0.45195  0.00000  0.09610
       8     O     4.17133  4.17133  0.00000 -0.34266
       9     H     0.47969  0.47969  0.00000  0.04062
      10     H     0.47668  0.47668  0.00000  0.04664
      11     C     3.03072  3.03072  0.00000 -0.06143
      12     H     0.44711  0.44711  0.00000  0.10577
      13     H     0.47101  0.47101  0.00000  0.05799
      14     H     0.47408  0.47408  0.00000  0.05184

   Total alpha = 21.00000, Total beta = 21.00000, Total charge = -0.00000
