                              Psi4 1.0.54 Driver

  ==> Input File <==

--------------------------------------------------------------------------
set {
	reference rhf
	basis cc-pvtz
}

set_num_threads( 4 )
memory 2 gb

molecule MOL {
0 1

H	 -0.000105	 1.988529	 0.748933
O	 -0.000098	 1.879786	 -0.188206
C	 -0.000014	 0.545691	 -0.532416
C	 1.155693	 0.247110	 -1.488955
C	 -1.377241	 0.135368	 -1.056492
H	 0.178508	 -0.028564	 0.364814
F	 2.289580	 0.549176	 -0.905932
F	 1.204060	 -1.015206	 -1.832366
F	 1.066987	 0.967381	 -2.586551
F	 -2.275498	 0.347766	 -0.126504
F	 -1.428395	 -1.131336	 -1.382926
F	 -1.719021	 0.844485	 -2.110871

	symmetry c1
}
set optking {
	frozen_dihedral = ("
		6 3 2 1
	")
}

ee,wfn = optimize('scf', return_wfn=True)
oeprop( wfn, 'DIPOLE', 'QUADRUPOLE', 'MULLIKEN_CHARGES')
f=open( 'psi4out.xyz', 'w' )
f.write( "12  " )
f.write( str(ee) + "\n" )
f.write( MOL.save_string_xyz() )
f.close()
--------------------------------------------------------------------------

    Molecular point group: c1
  Charge       = 0
  Multiplicity = 1
  Basis Set: CC-PVTZ
  Basis Set:
  @DF-RHF Final Energy:  -786.58568384975661
    Total Energy =                       -786.5856838497571744
    Molecular point group: c1
  Basis Set: CC-PVTZ
  Basis Set:
  Basis Set: CC-PVTZ
  Basis Set:
  @DF-RHF Final Energy:  -786.58710286758037
    Total Energy =                       -786.5871028675801426
  Basis Set: CC-PVTZ
  Basis Set:
  Basis Set: CC-PVTZ
  Basis Set:
  @DF-RHF Final Energy:  -786.58737402035672
    Total Energy =                       -786.5873740203567195
  Basis Set: CC-PVTZ
  Basis Set:
  Basis Set: CC-PVTZ
  Basis Set:
  @DF-RHF Final Energy:  -786.58739874516652
    Total Energy =                       -786.5873987451670928
  Basis Set: CC-PVTZ
  Basis Set:
  Basis Set: CC-PVTZ
  Basis Set:
  @DF-RHF Final Energy:  -786.58740377295305
    Total Energy =                       -786.5874037729524844
  Basis Set: CC-PVTZ
  Basis Set:
  Charge       = 0
  Multiplicity = 1
  Basis Set: CC-PVTZ
  Basis Set:

    Orbital Energies (a.u.)
    -----------------------

    Doubly Occupied:

       1A    -26.351785     2A    -26.351360     3A    -26.350988
       4A    -26.349470     5A    -26.349311     6A    -26.348360
       7A    -20.609499     8A    -11.514863     9A    -11.514561
      10A    -11.351847    11A     -1.765926    12A     -1.760557
      13A     -1.660540    14A     -1.658299    15A     -1.656048
      16A     -1.655796    17A     -1.439189    18A     -1.103312
      19A     -0.996664    20A     -0.938989    21A     -0.866230
      22A     -0.862044    23A     -0.857084    24A     -0.845742
      25A     -0.835042    26A     -0.785854    27A     -0.771427
      28A     -0.732130    29A     -0.725746    30A     -0.723958
      31A     -0.719552    32A     -0.685163    33A     -0.680458
      34A     -0.673805    35A     -0.672359    36A     -0.662605
      37A     -0.657553    38A     -0.624813    39A     -0.622262
      40A     -0.560555    41A     -0.508682

  @DF-RHF Final Energy:  -786.58740451669951

   => Energetics <=

    Nuclear Repulsion Energy =            670.1079199807079476
    One-Electron Energy =               -2427.7897845077336569
    Two-Electron Energy =                 971.0944600103262019
    DFT Exchange-Correlation Energy =       0.0000000000000000
    Empirical Dispersion Energy =           0.0000000000000000
    PCM Polarization Energy =               0.0000000000000000
    EFP Energy =                            0.0000000000000000
    Total Energy =                       -786.5874045166995074
    Molecular point group: c1
  Basis Set: CC-PVTZ
  Basis Set:

  -Total Gradient:
     Atom            X                  Y                   Z
    ------   -----------------  -----------------  -----------------
       1        0.000523690057     0.000027722952     0.000032357959
       2       -0.000823481963    -0.000022426564     0.000042352488
       3        0.000707592336     0.000174674224    -0.000129328198
       4       -0.000023790371     0.000162601816    -0.000121587364
       5       -0.000067714356     0.000005319657    -0.000197264035
       6       -0.000469462777    -0.000024362666     0.000072319549
       7        0.000042599665    -0.000037878970     0.000038962783
       8       -0.000001312227    -0.000146087171    -0.000034734799
       9       -0.000005390126    -0.000051988195     0.000084132168
      10       -0.000021899457     0.000114027933     0.000077272111
      11        0.000066452787    -0.000158498801    -0.000056856258
      12        0.000072716424    -0.000043104213     0.000192373601

  **** Optimization is complete! (in 6 steps) ****
    Final optimized geometry and variables:
    Molecular point group: c1

    Geometry (in Angstrom), charge = 0, multiplicity = 1:

    H            0.158957695786     1.683294451255     1.954644430154
    O            0.147052117669     1.544351908118     1.025918057228
    C            0.122795083053     0.199111855933     0.716653077380
    C            1.263503414054    -0.080952994096    -0.260549921123
    C           -1.266673522838    -0.164170151278     0.191974026955
    H            0.295026580290    -0.435375230254     1.576858544683
    F            2.404687742339     0.190295955625     0.330457704635
    F            1.289704224989    -1.344654612737    -0.614915455916
    F            1.184911862508     0.645907186152    -1.342983159828
    F           -2.152400540016     0.119925301191     1.122041028123
    F           -1.362555010014    -1.446943671435    -0.067996721667
    F           -1.587794557134     0.498129783254    -0.887017447114

  Mulliken Charges: (a.u.)
   Center  Symbol    Alpha    Beta     Spin     Total
       1     H     0.38060  0.38060  0.00000  0.23880
       2     O     4.18706  4.18706  0.00000 -0.37412
       3     C     3.00191  3.00191  0.00000 -0.00381
       4     C     2.67817  2.67817  0.00000  0.64366
       5     C     2.67954  2.67954  0.00000  0.64092
       6     H     0.44471  0.44471  0.00000  0.11057
       7     F     4.60678  4.60678  0.00000 -0.21356
       8     F     4.60536  4.60536  0.00000 -0.21073
       9     F     4.60071  4.60071  0.00000 -0.20143
      10     F     4.60905  4.60905  0.00000 -0.21810
      11     F     4.60544  4.60544  0.00000 -0.21089
      12     F     4.60066  4.60066  0.00000 -0.20133

   Total alpha = 41.00000, Total beta = 41.00000, Total charge = -0.00000

*** Psi4 exiting successfully. Buy a developer a beer!
