                              Psi4 1.0.54 Driver

  ==> Input File <==

--------------------------------------------------------------------------
set {
	reference rhf
	basis cc-pvtz
}

set_num_threads( 4 )
memory 2 gb

molecule MOL {
0 1

H	 2.020090	 -0.801977	 1.111036
C	 1.957354	 -0.220879	 0.181497
C	 0.698171	 0.583939	 0.015591
O	 2.841333	 -0.262106	 -0.602413
C	 -0.554654	 -0.292621	 0.086567
H	 0.753359	 1.117305	 -0.924256
H	 0.671959	 1.316687	 0.819500
C	 -1.846385	 0.513195	 -0.016346
H	 -0.522459	 -1.026640	 -0.713506
H	 -0.554096	 -0.852336	 1.018442
C	 -3.089953	 -0.365049	 -0.098564
H	 -1.798267	 1.154820	 -0.891143
H	 -1.925398	 1.173265	 0.842889
H	 -3.055079	 -1.012299	 -0.968245
H	 -3.988403	 0.236438	 -0.170014
H	 -3.183055	 -0.995885	 0.779079

	symmetry c1
}
set optking {
	frozen_dihedral = ("
		9 5 8 12
	")
}

ee,wfn = optimize('scf', return_wfn=True)
oeprop( wfn, 'DIPOLE', 'QUADRUPOLE', 'MULLIKEN_CHARGES')
f=open( 'psi4out.xyz', 'w' )
f.write( "16  " )
f.write( str(ee) + "\n" )
f.write( MOL.save_string_xyz() )
f.close()
--------------------------------------------------------------------------

    Molecular point group: c1
  Charge       = 0
  Multiplicity = 1
  Basis Set: CC-PVTZ
  Basis Set:
  @DF-RHF Final Energy:  -270.11911483324491
    Total Energy =                       -270.1191148332446801
    Molecular point group: c1
  Basis Set: CC-PVTZ
  Basis Set:
  Basis Set: CC-PVTZ
  Basis Set:
  @DF-RHF Final Energy:  -270.11912160259726
    Total Energy =                       -270.1191216025973176
  Basis Set: CC-PVTZ
  Basis Set:
  Basis Set: CC-PVTZ
  Basis Set:
  @DF-RHF Final Energy:  -270.11911614281621
    Total Energy =                       -270.1191161428163241
  Basis Set: CC-PVTZ
  Basis Set:
  Basis Set: CC-PVTZ
  Basis Set:
  @DF-RHF Final Energy:  -270.11913011885969
    Total Energy =                       -270.1191301188599141
  Basis Set: CC-PVTZ
  Basis Set:
  Basis Set: CC-PVTZ
  Basis Set:
  @DF-RHF Final Energy:  -270.11913570109255
    Total Energy =                       -270.1191357010925458
  Basis Set: CC-PVTZ
  Basis Set:
  Charge       = 0
  Multiplicity = 1
  Basis Set: CC-PVTZ
  Basis Set:

    Orbital Energies (a.u.)
    -----------------------

    Doubly Occupied:

       1A    -20.552126     2A    -11.321355     3A    -11.234683
       4A    -11.234042     5A    -11.227501     6A    -11.216764
       7A     -1.406900     8A     -1.097941     9A     -1.020253
      10A     -0.906938    11A     -0.812780    12A     -0.794167
      13A     -0.680477    14A     -0.649823    15A     -0.633791
      16A     -0.604051    17A     -0.583332    18A     -0.553051
      19A     -0.529183    20A     -0.511040    21A     -0.488750
      22A     -0.482862    23A     -0.479876    24A     -0.411640

  @DF-RHF Final Energy:  -270.11913724992286

   => Energetics <=

    Nuclear Repulsion Energy =            229.3670270317804238
    One-Electron Energy =                -820.1056800365494155
    Two-Electron Energy =                 320.6195157548462475
    DFT Exchange-Correlation Energy =       0.0000000000000000
    Empirical Dispersion Energy =           0.0000000000000000
    PCM Polarization Energy =               0.0000000000000000
    EFP Energy =                            0.0000000000000000
    Total Energy =                       -270.1191372499228009
    Molecular point group: c1
  Basis Set: CC-PVTZ
  Basis Set:

  -Total Gradient:
     Atom            X                  Y                   Z
    ------   -----------------  -----------------  -----------------
       1        0.000000179964    -0.000001960496    -0.000004033233
       2       -0.000009393363     0.000008313469     0.000010379046
       3        0.000006447897    -0.000003169780     0.000009033365
       4        0.000010818013    -0.000002675889    -0.000007261087
       5        0.000740621406     0.001113177593    -0.000663216026
       6       -0.000000213408    -0.000004393391    -0.000000728052
       7        0.000001880479     0.000005462453    -0.000001237193
       8       -0.000679029274    -0.001183235624    -0.000637033131
       9       -0.000522696876    -0.000743293091     0.000656059416
      10        0.000009094151     0.000001891650     0.000003640139
      11       -0.000000189844     0.000004339588     0.000013602733
      12        0.000461599287     0.000813680011     0.000617695744
      13       -0.000005948563    -0.000009044326     0.000003812777
      14        0.000006490202     0.000002153236    -0.000010767330
      15       -0.000019888360     0.000008443234     0.000000477121
      16        0.000000228292    -0.000009688636     0.000009575712

  **** Optimization is complete! (in 6 steps) ****
    Final optimized geometry and variables:
    Molecular point group: c1

    Geometry (in Angstrom), charge = 0, multiplicity = 1:

    H            2.012405165267    -0.782141855213     1.200778070066
    C            1.958701797468    -0.204511538950     0.268541437828
    C            0.700731384724     0.598793059241     0.086840429676
    O            2.850500129479    -0.247902370402    -0.506345991509
    C           -0.551693747488    -0.278443920243     0.145723276813
    H            0.765791918634     1.130274304671    -0.853367071508
    H            0.664621035258     1.333116661014     0.889027040543
    C           -1.845020404123     0.526453160178     0.051192791001
    H           -0.519858781409    -1.010115584143    -0.656525529284
    H           -0.553451642126    -0.846499321335     1.072787649902
    C           -3.090004096220    -0.350310813639    -0.015542695946
    H           -1.803371054754     1.172352249055    -0.820866144829
    H           -1.913919400458     1.187562911479     0.910771439660
    H           -3.070791976883    -0.991105092534    -0.890401351138
    H           -3.989325537903     0.252002148709    -0.066210116088
    H           -3.167606420917    -0.987611108196     0.859031663869

  Mulliken Charges: (a.u.)
   Center  Symbol    Alpha    Beta     Spin     Total
       1     H     0.46530  0.46530  0.00000  0.06939
       2     C     2.90906  2.90906  0.00000  0.18187
       3     C     3.07668  3.07668  0.00000 -0.15336
       4     O     4.16413  4.16413  0.00000 -0.32825
       5     C     3.10234  3.10234  0.00000 -0.20468
       6     H     0.44236  0.44236  0.00000  0.11528
       7     H     0.45016  0.45016  0.00000  0.09968
       8     C     3.08469  3.08469  0.00000 -0.16938
       9     H     0.44606  0.44606  0.00000  0.10788
      10     H     0.45183  0.45183  0.00000  0.09633
      11     C     3.14890  3.14890  0.00000 -0.29780
      12     H     0.45114  0.45114  0.00000  0.09773
      13     H     0.45312  0.45312  0.00000  0.09377
      14     H     0.45309  0.45309  0.00000  0.09382
      15     H     0.44667  0.44667  0.00000  0.10667
      16     H     0.45448  0.45448  0.00000  0.09105

   Total alpha = 24.00000, Total beta = 24.00000, Total charge = -0.00000

*** Psi4 exiting successfully. Buy a developer a beer!
