  ==> Input File <==

--------------------------------------------------------------------------
set {
	reference rhf
	basis cc-pvtz
}

set_num_threads( 4 )
memory 2 gb

molecule MOL {
0 1

H	 -0.975824	 -2.377658	 -0.642290
N	 -0.258607	 -1.691175	 -0.741860
C	 -0.561396	 -0.500007	 0.035200
H	 -0.190876	 -1.474665	 -1.714420
C	 0.575129	 0.507849	 -0.048832
H	 -0.693965	 -0.802428	 1.068731
H	 -1.490690	 -0.017230	 -0.270993
C	 1.951750	 -0.141983	 0.035101
H	 0.478254	 1.061643	 -0.975981
H	 0.467676	 1.231891	 0.755499
H	 2.101550	 -0.848142	 -0.774949
H	 2.738260	 0.600794	 -0.026526
H	 2.078939	 -0.679792	 0.968824

	symmetry c1
}
set optking {
	frozen_dihedral = ("
		6 3 5 9
	")
}

ee = optimize('scf')
oeprop('DIPOLE', 'QUADRUPOLE', 'MULLIKEN_CHARGES')
f=open( 'psi4out.xyz', 'w' )
f.write( "13  " )
f.write( str(ee) + "\n" )
f.write( MOL.save_string_xyz() )
f.close()
--------------------------------------------------------------------------

    Molecular point group: c1
  Charge       = 0
  Multiplicity = 1
  Basis Set: CC-PVTZ
  Basis Set:
  @DF-RHF Final Energy:  -173.34891339562503
    Total Energy =                       -173.3489133956249191
    Molecular point group: c1
  Basis Set: CC-PVTZ
  Basis Set:
  Basis Set: CC-PVTZ
  Basis Set:
  @DF-RHF Final Energy:  -173.34979148243096
    Total Energy =                       -173.3497914824310158
  Basis Set: CC-PVTZ
  Basis Set:
  Basis Set: CC-PVTZ
  Basis Set:
  @DF-RHF Final Energy:  -173.35019440927769
    Total Energy =                       -173.3501944092777478
  Basis Set: CC-PVTZ
  Basis Set:
  Basis Set: CC-PVTZ
  Basis Set:
  @DF-RHF Final Energy:  -173.35021502928558
    Total Energy =                       -173.3502150292856072
  Basis Set: CC-PVTZ
  Basis Set:
  Charge       = 0
  Multiplicity = 1
  Basis Set: CC-PVTZ
  Basis Set:

    Orbital Energies (a.u.)
    -----------------------

    Doubly Occupied:

       1A    -15.527543     2A    -11.239068     3A    -11.211131
       4A    -11.197935     5A     -1.179205     6A     -1.029564
       7A     -0.905172     8A     -0.789507     9A     -0.666973
      10A     -0.624382    11A     -0.605228    12A     -0.560271
      13A     -0.532031    14A     -0.493095    15A     -0.471430
      16A     -0.464128    17A     -0.383311

  @DF-RHF Final Energy:  -173.35021602991625

   => Energetics <=

    Nuclear Repulsion Energy =            133.9254265255483176
    One-Electron Energy =                -498.7913380525294542
    Two-Electron Energy =                 191.5156954970648826
    DFT Exchange-Correlation Energy =       0.0000000000000000
    Empirical Dispersion Energy =           0.0000000000000000
    PCM Polarization Energy =               0.0000000000000000
    EFP Energy =                            0.0000000000000000
    Total Energy =                       -173.3502160299162256
    Molecular point group: c1
  Basis Set: CC-PVTZ
  Basis Set:

  -Total Gradient:
     Atom            X                  Y                   Z
    ------   -----------------  -----------------  -----------------
       1       -0.000008137198     0.000003910840    -0.000008962272
       2        0.000030646052     0.000016126557    -0.000004325229
       3        0.003190715095    -0.003600868492    -0.000263466078
       4        0.000004476654    -0.000010433016    -0.000023764902
       5        0.002540782947    -0.003246443197    -0.002655929810
       6       -0.003084749751     0.003587305988     0.000700551874
       7       -0.000002673988    -0.000013858931    -0.000014419763
       8       -0.000017449679     0.000010158325     0.000043264569
       9       -0.002671356712     0.003265637851     0.002240855570
      10        0.000011288860     0.000008943450     0.000009821273
      11       -0.000003746354    -0.000003647378    -0.000014016220
      12       -0.000003403410    -0.000009175000    -0.000006232552
      13        0.000013607485    -0.000007656996    -0.000003376458

  **** Optimization is complete! (in 5 steps) ****
    Final optimized geometry and variables:
    Molecular point group: c1

    Geometry (in Angstrom), charge = 0, multiplicity = 1:

    H           -1.481199982377    -1.881128423870    -0.436250485146
    N           -0.745063965862    -1.221148496371    -0.569813482141
    C           -0.959677451533    -0.033837688738     0.239984586332
    H           -0.729642781821    -0.991050665758    -1.541944933348
    C            0.183699660245     0.973656940964     0.131795021558
    H           -1.076358365426    -0.332026219440     1.276602246565
    H           -1.884646761302     0.484732353552    -0.016509568837
    C            1.581519437535     0.382325926480     0.266187348594
    H            0.086350946985     1.534241256028    -0.795020649358
    H            0.032526139838     1.711692232864     0.915302470657
    H            1.800156859098    -0.312330241915    -0.532764919010
    H            2.329325644124     1.167373900339     0.249777739974
    H            1.684221635451    -0.156995391386     1.201832950283

  Mulliken Charges: (a.u.)
   Center  Symbol    Alpha    Beta     Spin     Total
       1     H     0.42902  0.42902  0.00000  0.14197
       2     N     3.68850  3.68850  0.00000 -0.37699
       3     C     3.03409  3.03409  0.00000 -0.06817
       4     H     0.43059  0.43059  0.00000  0.13882
       5     C     3.09159  3.09159  0.00000 -0.18317
       6     H     0.45621  0.45621  0.00000  0.08758
       7     H     0.46268  0.46268  0.00000  0.07465
       8     C     3.13795  3.13795  0.00000 -0.27590
       9     H     0.45496  0.45496  0.00000  0.09008
      10     H     0.45342  0.45342  0.00000  0.09315
      11     H     0.45131  0.45131  0.00000  0.09738
      12     H     0.45287  0.45287  0.00000  0.09426
      13     H     0.45683  0.45683  0.00000  0.08635

   Total alpha = 17.00000, Total beta = 17.00000, Total charge = -0.00000
