                              Psi4 1.0.54 Driver

  ==> Input File <==

--------------------------------------------------------------------------
set {
	reference rhf
	basis cc-pvtz
}

set_num_threads( 4 )
memory 2 gb

molecule MOL {
0 1

H	 0.417797	 -5.281204	 2.832076
C	 0.644048	 -4.474985	 2.144378
C	 -0.544431	 -3.531674	 1.994931
H	 1.514197	 -3.951098	 2.525721
H	 0.917504	 -4.919742	 1.193363
C	 -0.269998	 -2.382983	 1.035680
H	 -0.817430	 -3.119990	 2.960205
H	 -1.407010	 -4.092635	 1.642996
N	 -1.407051	 -1.493913	 0.933704
H	 0.575852	 -1.807057	 1.399018
H	 0.027026	 -2.786361	 0.062979
C	 -1.215959	 -0.382435	 0.027143
H	 -2.217218	 -2.012392	 0.665135
C	 -2.451944	 0.502410	 -0.038737
H	 -0.374716	 0.203240	 0.385572
H	 -0.953156	 -0.713423	 -0.982044
C	 -3.752217	 -0.292550	 0.005776
H	 -2.407325	 1.093801	 -0.946480
H	 -2.431979	 1.206234	 0.790023
H	 -3.817783	 -0.982946	 -0.828547
H	 -4.612613	 0.364348	 -0.042306
H	 -3.830160	 -0.871666	 0.919868

	symmetry c1
}
set optking {
	frozen_dihedral = ("
		15 12 14 18
	")
}

ee,wfn = optimize('scf', return_wfn=True)
oeprop( wfn, 'DIPOLE', 'QUADRUPOLE', 'MULLIKEN_CHARGES')
f=open( 'psi4out.xyz', 'w' )
f.write( "22  " )
f.write( str(ee) + "\n" )
f.write( MOL.save_string_xyz() )
f.close()
--------------------------------------------------------------------------

    Molecular point group: c1
  Charge       = 0
  Multiplicity = 1
  Basis Set: CC-PVTZ
  Basis Set:
  @DF-RHF Final Energy:  -290.48433950687786
    Total Energy =                       -290.4843395068783138
    Molecular point group: c1
  Basis Set: CC-PVTZ
  Basis Set:
  Basis Set: CC-PVTZ
  Basis Set:
  @DF-RHF Final Energy:  -290.47267490471631
    Total Energy =                       -290.4726749047160297
  Basis Set: CC-PVTZ
  Basis Set:
  Basis Set: CC-PVTZ
  Basis Set:
  @DF-RHF Final Energy:  -290.48581325183596
    Total Energy =                       -290.4858132518359639
  Basis Set: CC-PVTZ
  Basis Set:
  Basis Set: CC-PVTZ
  Basis Set:
  @DF-RHF Final Energy:  -290.48630282255152
    Total Energy =                       -290.4863028225511812
  Basis Set: CC-PVTZ
  Basis Set:
  Basis Set: CC-PVTZ
  Basis Set:
  @DF-RHF Final Energy:  -290.48632805404151
    Total Energy =                       -290.4863280540416213
  Basis Set: CC-PVTZ
  Basis Set:
  Basis Set: CC-PVTZ
  Basis Set:
  @DF-RHF Final Energy:  -290.48635184900883
    Total Energy =                       -290.4863518490084289
  Basis Set: CC-PVTZ
  Basis Set:
  Charge       = 0
  Multiplicity = 1
  Basis Set: CC-PVTZ
  Basis Set:

    Orbital Energies (a.u.)
    -----------------------

    Doubly Occupied:

       1A    -15.527587     2A    -11.236828     3A    -11.236110
       4A    -11.212075     5A    -11.211916     6A    -11.207630
       7A    -11.206116     8A     -1.207124     9A     -1.058917
      10A     -1.023393    11A     -0.928597    12A     -0.881515
      13A     -0.805279    14A     -0.786501    15A     -0.670879
      16A     -0.633141    17A     -0.625525    18A     -0.590640
      19A     -0.575496    20A     -0.570719    21A     -0.540462
      22A     -0.529657    23A     -0.504918    24A     -0.486690
      25A     -0.481720    26A     -0.472738    27A     -0.466591
      28A     -0.451558    29A     -0.360670

  @DF-RHF Final Energy:  -290.48635282322374

   => Energetics <=

    Nuclear Repulsion Energy =            318.5767149091994384
    One-Electron Energy =               -1023.1441588658128694
    Two-Electron Energy =                 414.0810911333894637
    DFT Exchange-Correlation Energy =       0.0000000000000000
    Empirical Dispersion Energy =           0.0000000000000000
    PCM Polarization Energy =               0.0000000000000000
    EFP Energy =                            0.0000000000000000
    Total Energy =                       -290.4863528232240242
    Molecular point group: c1
  Basis Set: CC-PVTZ
  Basis Set:

  -Total Gradient:
     Atom            X                  Y                   Z
    ------   -----------------  -----------------  -----------------
       1        0.000004084525    -0.000002314824    -0.000001181746
       2       -0.000002017633    -0.000005522605     0.000004782386
       3        0.000007845682     0.000006853665    -0.000000613529
       4        0.000000791052    -0.000002254906    -0.000000679601
       5        0.000004466404    -0.000003292779     0.000000214874
       6       -0.000024008102     0.000024667008     0.000004784112
       7       -0.000004628080     0.000002438668     0.000000762052
       8       -0.000001942270     0.000004723253    -0.000000309257
       9       -0.000020868701    -0.000009074982    -0.000054773289
      10        0.000009957001    -0.000004038426     0.000001372961
      11        0.000003600125     0.000001133268    -0.000003751390
      12        0.002293151523     0.000661357068    -0.006710311994
      13       -0.000020254040    -0.000011394768     0.000022735444
      14        0.002935123820     0.003976789551     0.005129043348
      15       -0.002343835204    -0.001126954992     0.004923243988
      16        0.000002101695    -0.000004758304    -0.000016438850
      17       -0.000000266437     0.000010725808     0.000006343847
      18       -0.002847425681    -0.003512503891    -0.003268043021
      19        0.000011249511     0.000016000659     0.000005145554
      20       -0.000037086762     0.000012951450     0.000002510417
      21        0.000013010483    -0.000047981505     0.000010062077
      22        0.000016951089     0.000012451587    -0.000054898384

  **** Optimization is complete! (in 7 steps) ****
    Final optimized geometry and variables:
    Molecular point group: c1

    Geometry (in Angstrom), charge = 0, multiplicity = 1:

    H            0.943942842927    -3.650807745246     2.329539724792
    C            1.377257371149    -2.883509260578     1.698958327698
    C            0.325420614166    -1.865682094262     1.271968831002
    H            2.176359280442    -2.409259010174     2.258904035352
    H            1.822752557245    -3.374934159779     0.840441000176
    C            0.892164381821    -0.767986349668     0.383715355408
    H           -0.125568878324    -1.407283234168     2.145100036786
    H           -0.475227359275    -2.376629738560     0.742365652949
    N           -0.123986094105     0.195824547695     0.018393059453
    H            1.678227803384    -0.244398100733     0.919387552986
    H            1.365610612133    -1.220637283633    -0.492867084797
    C            0.353757705842     1.249337603810    -0.856632542666
    H           -0.892504167210    -0.280177163398    -0.402748815920
    C           -0.693186508020     2.339189906189    -1.100428333177
    H            1.200125326797     1.696629059460    -0.347332424698
    H            0.710363539656     0.856931181612    -1.811951527298
    C           -2.102456595483     1.818750230032    -1.383318242144
    H           -0.382806455780     2.906166645258    -1.972756520396
    H           -0.724287687044     3.012850571428    -0.252390828008
    H           -2.108108126647     1.125287040220    -2.219682587642
    H           -2.763420888906     2.638678026623    -1.638511739049
    H           -2.523984611023     1.315289103656    -0.522887899841

  Mulliken Charges: (a.u.)
   Center  Symbol    Alpha    Beta     Spin     Total
       1     H     0.44770  0.44770  0.00000  0.10461
       2     C     3.15356  3.15356  0.00000 -0.30712
       3     C     3.08138  3.08138  0.00000 -0.16277
       4     H     0.45465  0.45465  0.00000  0.09069
       5     H     0.45607  0.45607  0.00000  0.08787
       6     C     3.02105  3.02105  0.00000 -0.04209
       7     H     0.44903  0.44903  0.00000  0.10195
       8     H     0.45991  0.45991  0.00000  0.08018
       9     N     3.64464  3.64464  0.00000 -0.28927
      10     H     0.45919  0.45919  0.00000  0.08162
      11     H     0.47501  0.47501  0.00000  0.04998
      12     C     3.03511  3.03511  0.00000 -0.07022
      13     H     0.43991  0.43991  0.00000  0.12019
      14     C     3.07528  3.07528  0.00000 -0.15057
      15     H     0.45585  0.45585  0.00000  0.08829
      16     H     0.46874  0.46874  0.00000  0.06252
      17     C     3.16284  3.16284  0.00000 -0.32568
      18     H     0.45605  0.45605  0.00000  0.08789
      19     H     0.45283  0.45283  0.00000  0.09434
      20     H     0.45580  0.45580  0.00000  0.08840
      21     H     0.44572  0.44572  0.00000  0.10857
      22     H     0.44969  0.44969  0.00000  0.10062

   Total alpha = 29.00000, Total beta = 29.00000, Total charge =  0.00000

*** Psi4 exiting successfully. Buy a developer a beer!
