  ==> Input File <==

--------------------------------------------------------------------------
set {
	reference rhf
	basis 6-31G*
}

set_num_threads( 4 )
memory 2 gb

molecule MOL {
0 1

O	 1.719511	 -0.551100	 0.083970
C	 0.861134	 0.272526	 -0.014869
C	 -0.623889	 -0.118271	 -0.003699
C	 1.236742	 1.736684	 -0.160349
C	 -0.895332	 -1.256461	 -1.002431
C	 -1.473649	 1.103340	 -0.370799
C	 -0.983900	 -0.581483	 1.422328
H	 -0.615301	 -0.972064	 -2.012700
H	 -1.954261	 -1.493213	 -1.010207
H	 -0.360539	 -2.164946	 -0.747760
H	 -1.227476	 1.468527	 -1.361691
H	 -2.526716	 0.838935	 -0.358521
H	 -1.314819	 1.915855	 0.325860
H	 -2.039679	 -0.828001	 1.472951
H	 -0.427637	 -1.464071	 1.720694
H	 -0.789023	 0.202493	 2.147048
H	 1.120156	 2.236700	 0.796653
H	 2.274456	 1.800417	 -0.457342
H	 0.616778	 2.259199	 -0.878572

	symmetry c1
}
set optking {
	frozen_dihedral = ("
		1 2 3 5
	")
}

ee = optimize('scf')
oeprop('DIPOLE', 'QUADRUPOLE', 'MULLIKEN_CHARGES')
f=open( 'psi4out.xyz', 'w' )
f.write( "19  " )
f.write( str(ee) + "\n" )
f.write( MOL.save_string_xyz() )
f.close()
--------------------------------------------------------------------------

    Molecular point group: c1
  Charge       = 0
  Multiplicity = 1
  Basis Set: 6-31G*
  Basis Set:
  @DF-RHF Final Energy:  -309.05797318770561
    Total Energy =                       -309.0579731877053291
    Molecular point group: c1
  Basis Set: 6-31G*
  Basis Set:
  Basis Set: 6-31G*
  Basis Set:
  @DF-RHF Final Energy:  -309.05889170784570
    Total Energy =                       -309.0588917078457030
  Basis Set: 6-31G*
  Basis Set:
  Basis Set: 6-31G*
  Basis Set:
  @DF-RHF Final Energy:  -309.06104179974568
    Total Energy =                       -309.0610417997455670
  Basis Set: 6-31G*
  Basis Set:
  Basis Set: 6-31G*
  Basis Set:
  @DF-RHF Final Energy:  -309.06116685167308
    Total Energy =                       -309.0611668516730219
  Basis Set: 6-31G*
  Basis Set:
  @DF-RHF Final Energy:  -309.06120695978302
    Total Energy =                       -309.0612069597830214
  @DF-RHF Final Energy:  -309.06183513064838
    Total Energy =                       -309.0618351306486034
  @DF-RHF Final Energy:  -309.06191200636903
    Total Energy =                       -309.0619120063689138
  Basis Set: 6-31G*
  Basis Set:
  @DF-RHF Final Energy:  -309.06194148955967
    Total Energy =                       -309.0619414895597288
  Basis Set: 6-31G*
  Basis Set:
  Basis Set: 6-31G*
  Basis Set:
  @DF-RHF Final Energy:  -309.06194756148852
    Total Energy =                       -309.0619475614886937
  Basis Set: 6-31G*
  Basis Set:
  Basis Set: 6-31G*
  Basis Set:
  @DF-RHF Final Energy:  -309.06194997783842
    Total Energy =                       -309.0619499778381396
  Basis Set: 6-31G*
  Basis Set:
  Charge       = 0
  Multiplicity = 1
  Basis Set: 6-31G*
  Basis Set:

    Orbital Energies (a.u.)
    -----------------------

    Doubly Occupied:

       1A    -20.547403     2A    -11.323560     3A    -11.246265
       4A    -11.227674     5A    -11.222125     6A    -11.218967
       7A    -11.213754     8A     -1.394522     9A     -1.107806
      10A     -1.003590    11A     -0.942211    12A     -0.938260
      13A     -0.833407    14A     -0.703946    15A     -0.664694
      16A     -0.630900    17A     -0.622546    18A     -0.587464
      19A     -0.585484    20A     -0.572384    21A     -0.551879
      22A     -0.545901    23A     -0.523200    24A     -0.513577
      25A     -0.500090    26A     -0.471295    27A     -0.460473
      28A     -0.391806

  @DF-RHF Final Energy:  -309.06195205001183

   => Energetics <=

    Nuclear Repulsion Energy =            326.1606051762597076
    One-Electron Energy =               -1065.3547437055942737
    Two-Electron Energy =                 430.1321864793222858
    DFT Exchange-Correlation Energy =       0.0000000000000000
    Empirical Dispersion Energy =           0.0000000000000000
    PCM Polarization Energy =               0.0000000000000000
    EFP Energy =                            0.0000000000000000
    Total Energy =                       -309.0619520500123372
    Molecular point group: c1
  Basis Set: 6-31G*
  Basis Set:

  -Total Gradient:
     Atom            X                  Y                   Z
    ------   -----------------  -----------------  -----------------
       1        0.000028678802     0.000109685468     0.000876338422
       2        0.000007838187     0.000007371677    -0.001355803672
       3        0.000148455958    -0.000488147877     0.000922975639
       4       -0.000002354612    -0.000012414612     0.000012404632
       5       -0.000135660951     0.000409846893    -0.000437668698
       6       -0.000005973054    -0.000024037048     0.000009579948
       7       -0.000022009224    -0.000013885814     0.000001482366
       8        0.000001802287     0.000009124331     0.000005525497
       9       -0.000003527148    -0.000003757277    -0.000007662660
      10       -0.000008454301     0.000007824354     0.000001564773
      11        0.000001203712    -0.000002831699    -0.000002271254
      12       -0.000007656201    -0.000000229974    -0.000000199459
      13        0.000002396948    -0.000004850411    -0.000001139892
      14       -0.000001303144     0.000002283792     0.000001383869
      15       -0.000005537004    -0.000001196838    -0.000006368292
      16        0.000003701182     0.000005863747    -0.000013964585
      17       -0.000000551751     0.000004431837     0.000003816010
      18       -0.000003476017    -0.000001608989    -0.000003434752
      19        0.000002426328    -0.000003471562    -0.000006557892

  **** Optimization is complete! (in 11 steps) ****
    Final optimized geometry and variables:
    Molecular point group: c1

    Geometry (in Angstrom), charge = 0, multiplicity = 1:

    O            1.696543409067    -0.694199007540     0.063772778940
    C            0.887882972146     0.179454497282    -0.032232733885
    C           -0.612971660978    -0.167729567666     0.005150443642
    C            1.340132635580     1.621337587837    -0.142751949026
    C           -0.864209912328    -1.306530148278    -0.996435540261
    C           -1.523814090508     1.019677708194    -0.338623581410
    C           -0.920758602818    -0.654747500170     1.433350135813
    H           -0.655855297897    -0.987907498211    -2.013907535636
    H           -1.902976662357    -1.619618960789    -0.953051397882
    H           -0.236075430237    -2.159201101547    -0.776587830477
    H           -1.341564723706     1.394506985097    -1.341047738070
    H           -2.561423605735     0.705223303624    -0.294975459133
    H           -1.406927840595     1.844762874750     0.356050953114
    H           -1.962944404682    -0.948700053846     1.511367217972
    H           -0.302247867604    -1.505799037204     1.689433043117
    H           -0.742470664739     0.126861205329     2.167219863394
    H            0.948034043507     2.212769141688     0.678689756534
    H            2.420397024479     1.647982839239    -0.120480218965
    H            0.985736423006     2.073435871444    -1.062978009437

  Mulliken Charges: (a.u.)
   Center  Symbol    Alpha    Beta     Spin     Total
       1     O     4.26759  4.26759  0.00000 -0.53518
       2     C     2.72755  2.72755  0.00000  0.54491
       3     C     3.06088  3.06088  0.00000 -0.12176
       4     C     3.28964  3.28964  0.00000 -0.57927
       5     C     3.23512  3.23512  0.00000 -0.47024
       6     C     3.24035  3.24035  0.00000 -0.48070
       7     C     3.23786  3.23786  0.00000 -0.47572
       8     H     0.42017  0.42017  0.00000  0.15967
       9     H     0.41961  0.41961  0.00000  0.16078
      10     H     0.40072  0.40072  0.00000  0.19856
      11     H     0.41812  0.41812  0.00000  0.16375
      12     H     0.41413  0.41413  0.00000  0.17174
      13     H     0.41833  0.41833  0.00000  0.16333
      14     H     0.41656  0.41656  0.00000  0.16689
      15     H     0.40269  0.40269  0.00000  0.19462
      16     H     0.42040  0.42040  0.00000  0.15920
      17     H     0.40785  0.40785  0.00000  0.18431
      18     H     0.39543  0.39543  0.00000  0.20914
      19     H     0.40701  0.40701  0.00000  0.18599

   Total alpha = 28.00000, Total beta = 28.00000, Total charge = -0.00000
