  ==> Input File <==

--------------------------------------------------------------------------
set {
	reference rhf
	basis cc-pvtz
}

set_num_threads( 4 )
memory 2 gb

molecule MOL {
0 1

O	 -0.694481	 1.313155	 -0.204815
C	 -0.862519	 0.151932	 -0.046791
C	 -2.171428	 -0.477048	 0.339095
O	 0.085519	 -0.757083	 -0.192238
H	 -2.467997	 -1.191667	 -0.417688
H	 -2.923379	 0.287970	 0.444097
H	 -2.053854	 -1.015120	 1.270901
C	 1.392036	 -0.330828	 -0.560749
C	 1.348986	 0.827331	 -1.535794
H	 1.935372	 -1.166515	 -0.973337
H	 1.855289	 -0.034333	 0.368358
H	 2.357925	 1.167080	 -1.740889
H	 0.894420	 0.528955	 -2.470526
H	 0.788376	 1.656245	 -1.120812

	symmetry c1
}
set optking {
	frozen_dihedral = ("
		10 8 4 2
	")
}

ee = optimize('scf')
oeprop('DIPOLE', 'QUADRUPOLE', 'MULLIKEN_CHARGES')
f=open( 'psi4out.xyz', 'w' )
f.write( "14  " )
f.write( str(ee) + "\n" )
f.write( MOL.save_string_xyz() )
f.close()
--------------------------------------------------------------------------

    Molecular point group: c1
  Charge       = 0
  Multiplicity = 1
  Basis Set: CC-PVTZ
  Basis Set:
  @DF-RHF Final Energy:  -305.96602274110245
    Total Energy =                       -305.9660227411024493
    Molecular point group: c1
  Basis Set: CC-PVTZ
  Basis Set:
  Basis Set: CC-PVTZ
  Basis Set:
  @DF-RHF Final Energy:  -305.98140615291555
    Total Energy =                       -305.9814061529153264
  Basis Set: CC-PVTZ
  Basis Set:
  Basis Set: CC-PVTZ
  Basis Set:
  @DF-RHF Final Energy:  -305.98403273554430
    Total Energy =                       -305.9840327355444742
  Basis Set: CC-PVTZ
  Basis Set:
  Basis Set: CC-PVTZ
  Basis Set:
  @DF-RHF Final Energy:  -305.98079040854452
    Total Energy =                       -305.9807904085446921
  Basis Set: CC-PVTZ
  Basis Set:
  @DF-RHF Final Energy:  -305.98469847411286
    Total Energy =                       -305.9846984741124061
  @DF-RHF Final Energy:  -305.98479213271787
    Total Energy =                       -305.9847921327178142
  Basis Set: CC-PVTZ
  Basis Set:
  @DF-RHF Final Energy:  -305.98480083213866
    Total Energy =                       -305.9848008321383190
  Basis Set: CC-PVTZ
  Basis Set:
  Basis Set: CC-PVTZ
  Basis Set:
  @DF-RHF Final Energy:  -305.98480307496118
    Total Energy =                       -305.9848030749612349
  Basis Set: CC-PVTZ
  Basis Set:
  Basis Set: CC-PVTZ
  Basis Set:
  @DF-RHF Final Energy:  -305.98480476392047
    Total Energy =                       -305.9848047639201809
  Basis Set: CC-PVTZ
  Basis Set:
  Charge       = 0
  Multiplicity = 1
  Basis Set: CC-PVTZ
  Basis Set:

    Orbital Energies (a.u.)
    -----------------------

    Doubly Occupied:

       1A    -20.592585     2A    -20.531402     3A    -11.367737
       4A    -11.288044     5A    -11.230274     6A    -11.214248
       7A     -1.467129     8A     -1.365445     9A     -1.055535
      10A     -0.998166    11A     -0.890889    12A     -0.753568
      13A     -0.698486    14A     -0.683989    15A     -0.667664
      16A     -0.616491    17A     -0.587730    18A     -0.570810
      19A     -0.550740    20A     -0.532314    21A     -0.513888
      22A     -0.497224    23A     -0.454022    24A     -0.435607

  @DF-RHF Final Energy:  -305.98480554486878

   => Energetics <=

    Nuclear Repulsion Energy =            249.9432278452499077
    One-Electron Energy =                -912.7280950949136695
    Two-Electron Energy =                 356.8000617047948140
    DFT Exchange-Correlation Energy =       0.0000000000000000
    Empirical Dispersion Energy =           0.0000000000000000
    PCM Polarization Energy =               0.0000000000000000
    EFP Energy =                            0.0000000000000000
    Total Energy =                       -305.9848055448689479
    Molecular point group: c1
  Basis Set: CC-PVTZ
  Basis Set:

  -Total Gradient:
     Atom            X                  Y                   Z
    ------   -----------------  -----------------  -----------------
       1       -0.000012280986    -0.000063441660     0.000097286956
       2       -0.001723627712    -0.000798076042    -0.005893513508
       3       -0.000038535395     0.000019182409    -0.000002102726
       4        0.002047763693     0.001477103531     0.007751673359
       5        0.000008516424    -0.000005663686     0.000033419674
       6       -0.000022299602    -0.000021497434     0.000014292139
       7       -0.000006434431    -0.000001568904     0.000016611379
       8        0.001789149662    -0.001830116463     0.003874126738
       9       -0.000005463227     0.000005537656    -0.000013232306
      10       -0.002249788460     0.001405983537    -0.005852034480
      11        0.000080224982    -0.000068004714     0.000031230809
      12        0.000030040760    -0.000028655708     0.000028917326
      13        0.000004254167    -0.000015731958    -0.000056655857
      14        0.000098480122    -0.000075050563    -0.000030019501

  **** Optimization is complete! (in 10 steps) ****
    Final optimized geometry and variables:
    Molecular point group: c1

    Geometry (in Angstrom), charge = 0, multiplicity = 1:

    O           -0.650419595483     1.209722311780     0.392053875232
    C           -0.748792448587     0.030581647003     0.381102047251
    C           -2.037925478762    -0.714631450241     0.591372818418
    O            0.258784461905    -0.805355907905     0.211613532377
    H           -2.269996003336    -1.292249836297    -0.294360470789
    H           -2.831494786154    -0.014147629725     0.794735236639
    H           -1.928726950301    -1.407386292693     1.415397635723
    C            1.554227977766    -0.380457176670    -0.206253505785
    C            1.592233118609     0.642575143934    -1.329678834209
    H            1.998051822053    -1.288355727319    -0.585356677481
    H            2.103645589640    -0.036374672663     0.659148360607
    H            2.612609615938     0.691116168382    -1.694661948800
    H            0.961083204351     0.329051555025    -2.153585066270
    H            1.286960996574     1.624628251475    -1.012965281699

  Mulliken Charges: (a.u.)
   Center  Symbol    Alpha    Beta     Spin     Total
       1     O     4.19890  4.19890  0.00000 -0.39780
       2     C     2.80116  2.80116  0.00000  0.39768
       3     C     3.13840  3.13840  0.00000 -0.27680
       4     O     4.15619  4.15619  0.00000 -0.31238
       5     H     0.44728  0.44728  0.00000  0.10545
       6     H     0.43861  0.43861  0.00000  0.12278
       7     H     0.44457  0.44457  0.00000  0.11085
       8     C     2.97909  2.97909  0.00000  0.04182
       9     C     3.15680  3.15680  0.00000 -0.31359
      10     H     0.44802  0.44802  0.00000  0.10396
      11     H     0.45441  0.45441  0.00000  0.09118
      12     H     0.45068  0.45068  0.00000  0.09864
      13     H     0.45347  0.45347  0.00000  0.09307
      14     H     0.43242  0.43242  0.00000  0.13516

   Total alpha = 24.00000, Total beta = 24.00000, Total charge = -0.00000
