  ==> Input File <==

--------------------------------------------------------------------------
set {
	reference rhf
	basis 6-31G*
}

set_num_threads( 4 )
memory 2 gb

molecule MOL {
0 1

H	 -2.798360	 -0.862255	 -0.071053
N	 -1.863561	 -0.715187	 0.256814
C	 -1.344686	 0.554728	 -0.219830
H	 -1.300452	 -1.461917	 -0.101532
C	 0.081427	 0.741154	 0.254071
H	 -1.362155	 0.656231	 -1.305829
H	 -1.952773	 1.354456	 0.191809
O	 0.874168	 -0.245412	 -0.342030
H	 0.444037	 1.730782	 -0.023037
H	 0.121165	 0.653424	 1.337565
C	 0.639507	 -1.533618	 0.130230
H	 1.304849	 -2.202944	 -0.397993
H	 0.840061	 -1.608939	 1.197510
H	 -0.388074	 -1.842250	 -0.050419

	symmetry c1
}
set optking {
	frozen_dihedral = ("
		11 8 5 3
	")
}

ee = optimize('scf')
oeprop('DIPOLE', 'QUADRUPOLE', 'MULLIKEN_CHARGES')
f=open( 'psi4out.xyz', 'w' )
f.write( "14  " )
f.write( str(ee) + "\n" )
f.write( MOL.save_string_xyz() )
f.close()
--------------------------------------------------------------------------

    Molecular point group: c1
  Charge       = 0
  Multiplicity = 1
  Basis Set: 6-31G*
  Basis Set:
  @DF-RHF Final Energy:  -248.05793221201282
    Total Energy =                       -248.0579322120128722
    Molecular point group: c1
  Basis Set: 6-31G*
  Basis Set:
  Basis Set: 6-31G*
  Basis Set:
  @DF-RHF Final Energy:  -248.10050411379561
    Total Energy =                       -248.1005041137954095
  Basis Set: 6-31G*
  Basis Set:
  Basis Set: 6-31G*
  Basis Set:
  @DF-RHF Final Energy:  -248.11248118886579
    Total Energy =                       -248.1124811888657860
  Basis Set: 6-31G*
  Basis Set:
  Basis Set: 6-31G*
  Basis Set:
  @DF-RHF Final Energy:  -248.11561537570418
    Total Energy =                       -248.1156153757043512
  Basis Set: 6-31G*
  Basis Set:
  @DF-RHF Final Energy:  -248.11671028407366
    Total Energy =                       -248.1167102840736334
  Basis Set: 6-31G*
  Basis Set:
  @DF-RHF Final Energy:  -248.11716867165441
    Total Energy =                       -248.1171686716544400
  Basis Set: 6-31G*
  Basis Set:
  Basis Set: 6-31G*
  Basis Set:
  @DF-RHF Final Energy:  -248.11742419686621
    Total Energy =                       -248.1174241968662955
  Basis Set: 6-31G*
  Basis Set:
  Basis Set: 6-31G*
  Basis Set:
  @DF-RHF Final Energy:  -248.11746479973891
    Total Energy =                       -248.1174647997390821
  Basis Set: 6-31G*
  Basis Set:
  Charge       = 0
  Multiplicity = 1
  Basis Set: 6-31G*
  Basis Set:

    Orbital Energies (a.u.)
    -----------------------

    Doubly Occupied:

       1A    -20.550837     2A    -15.540113     3A    -11.262950
       4A    -11.262914     5A    -11.245427     6A     -1.372802
       7A     -1.181007     8A     -1.000482     9A     -0.913195
      10A     -0.810984    11A     -0.688591    12A     -0.669671
      13A     -0.639408    14A     -0.620742    15A     -0.597448
      16A     -0.544532    17A     -0.537537    18A     -0.507785
      19A     -0.459017    20A     -0.414617    21A     -0.384762

  @DF-RHF Final Energy:  -248.11746728013500

   => Energetics <=

    Nuclear Repulsion Energy =            196.4082590034823568
    One-Electron Energy =                -726.6418067822631883
    Two-Electron Energy =                 282.1160804986458288
    DFT Exchange-Correlation Energy =       0.0000000000000000
    Empirical Dispersion Energy =           0.0000000000000000
    PCM Polarization Energy =               0.0000000000000000
    EFP Energy =                            0.0000000000000000
    Total Energy =                       -248.1174672801349743
    Molecular point group: c1
  Basis Set: 6-31G*
  Basis Set:

  -Total Gradient:
     Atom            X                  Y                   Z
    ------   -----------------  -----------------  -----------------
       1       -0.000021219475    -0.000014169675    -0.000002899652
       2       -0.000006512041     0.000089015635    -0.000003052485
       3       -0.000214879932    -0.001049393778     0.001048029950
       4        0.000030952184     0.000014438734    -0.000023546773
       5       -0.000037747606     0.001282100786    -0.002059724508
       6       -0.000027494217    -0.000008160026     0.000003338413
       7       -0.000024312487    -0.000027089132     0.000011135685
       8        0.001387698951    -0.000021141624     0.002260065054
       9        0.000010691567     0.000006819638    -0.000009625415
      10       -0.000006866827     0.000007588752    -0.000003197824
      11       -0.001072326478    -0.000298893695    -0.001221603034
      12       -0.000007556886     0.000056616120     0.000008657859
      13        0.000023751960    -0.000007907245     0.000000386113
      14       -0.000034178712    -0.000029824493    -0.000007963383

  **** Optimization is complete! (in 9 steps) ****
    Final optimized geometry and variables:
    Molecular point group: c1

    Geometry (in Angstrom), charge = 0, multiplicity = 1:

    H           -2.776913188852    -0.167129329228     0.245786451936
    N           -1.791212018863    -0.307081643936     0.351886391347
    C           -1.055039009830     0.783287019607    -0.277050291548
    H           -1.581553980915    -1.186469403498    -0.075473556605
    C            0.375769627855     0.923558640772     0.233298647746
    H           -1.033981587592     0.725260769445    -1.365840105282
    H           -1.569169075274     1.704078479987    -0.019252916921
    O            1.310724945055     0.041744136616    -0.321776027876
    H            0.739048650338     1.910871636844    -0.024768228667
    H            0.369604512977     0.833506932525     1.317487451285
    C            1.211098537607    -1.303731242295     0.026911137655
    H            2.166401142401    -1.763217935498    -0.190265984516
    H            0.989146509222    -1.431423847017     1.082939160930
    H            0.450589519831    -1.821101438869    -0.552508957043

  Mulliken Charges: (a.u.)
   Center  Symbol    Alpha    Beta     Spin     Total
       1     H     0.32990  0.32990  0.00000  0.34020
       2     N     3.92659  3.92659  0.00000 -0.85318
       3     C     3.08202  3.08202  0.00000 -0.16405
       4     H     0.32968  0.32968  0.00000  0.34064
       5     C     2.98843  2.98843  0.00000  0.02314
       6     H     0.42324  0.42324  0.00000  0.15352
       7     H     0.41997  0.41997  0.00000  0.16005
       8     O     4.30800  4.30800  0.00000 -0.61601
       9     H     0.41712  0.41712  0.00000  0.16577
      10     H     0.42272  0.42272  0.00000  0.15456
      11     C     3.07826  3.07826  0.00000 -0.15653
      12     H     0.41386  0.41386  0.00000  0.17228
      13     H     0.42331  0.42331  0.00000  0.15337
      14     H     0.43688  0.43688  0.00000  0.12624

   Total alpha = 21.00000, Total beta = 21.00000, Total charge =  0.00000
