  ==> Input File <==

--------------------------------------------------------------------------
set {
	reference rhf
	basis 6-31G*
}

set_num_threads( 1 )
memory 2 gb

molecule MOL {
0 1

O	 3.266088	 0.693293	 0.981982
C	 2.843464	 0.164689	 -0.000222
C	 1.546494	 -0.624492	 -0.000609
C	 3.581111	 0.248380	 -1.320839
C	 0.291004	 0.242674	 0.000989
H	 1.557904	 -1.283758	 -0.867573
H	 1.558622	 -1.285963	 0.864672
C	 -0.994322	 -0.586602	 0.000262
H	 0.309117	 0.896430	 -0.865270
H	 0.309661	 0.894078	 0.869017
C	 -2.259874	 0.272531	 0.000494
H	 -1.004862	 -1.240012	 -0.870939
H	 -1.005220	 -1.241071	 0.870675
C	 -3.549786	 -0.549746	 -0.000374
H	 -2.250389	 0.926680	 -0.869574
H	 -2.250838	 0.925513	 0.871430
C	 -4.809590	 0.315458	 -0.000369
H	 -3.560515	 -1.202009	 -0.871156
H	 -3.561123	 -1.202955	 0.869711
H	 -4.844746	 0.956611	 -0.876632
H	 -5.706986	 -0.295590	 -0.001609
H	 -4.845960	 0.954827	 0.877144
H	 2.951698	 0.706565	 -2.078152
H	 4.482517	 0.832685	 -1.198824
H	 3.838673	 -0.745761	 -1.674364

	symmetry c1
}
set optking {
	frozen_dihedral = ("
		9 5 8 12,
		15 11 8 12,
		15 11 14 18,
		9 5 3 6
	")
}

ee = energy('scf')
oeprop('DIPOLE', 'QUADRUPOLE', 'MULLIKEN_CHARGES')
f=open( 'psi4out.xyz', 'w' )
f.write( "25  " )
f.write( str(ee) + "\n" )
f.write( MOL.save_string_xyz() )
f.close()
--------------------------------------------------------------------------

    Molecular point group: c1

    Geometry (in Angstrom), charge = 0, multiplicity = 1:

       Center              X                  Y                   Z               Mass
    ------------   -----------------  -----------------  -----------------  -----------------
           O          3.282551943974     0.666215658511     1.022034156953    15.994914619560
           C          2.859927943974     0.137611658511     0.039830156953    12.000000000000
           C          1.562957943974    -0.651569341489     0.039443156953    12.000000000000
           C          3.597574943974     0.221302658511    -1.280786843047    12.000000000000
           C          0.307467943974     0.215596658511     0.041041156953    12.000000000000
           H          1.574367943974    -1.310835341489    -0.827520843047     1.007825032070
           H          1.575085943974    -1.313040341489     0.904724156953     1.007825032070
           C         -0.977858056026    -0.613679341489     0.040314156953    12.000000000000
           H          0.325580943974     0.869352658511    -0.825217843047     1.007825032070
           H          0.326124943974     0.867000658511     0.909069156953     1.007825032070
           C         -2.243410056026     0.245453658511     0.040546156953    12.000000000000
           H         -0.988398056026    -1.267089341489    -0.830886843047     1.007825032070
           H         -0.988756056026    -1.268148341489     0.910727156953     1.007825032070
           C         -3.533322056026    -0.576823341489     0.039678156953    12.000000000000
           H         -2.233925056026     0.899602658511    -0.829521843047     1.007825032070
           H         -2.234374056026     0.898435658511     0.911482156953     1.007825032070
           C         -4.793126056026     0.288380658511     0.039683156953    12.000000000000
           H         -3.544051056026    -1.229086341489    -0.831103843047     1.007825032070
           H         -3.544659056026    -1.230032341489     0.909763156953     1.007825032070
           H         -4.828282056026     0.929533658511    -0.836579843047     1.007825032070
           H         -5.690522056026    -0.322667341489     0.038443156953     1.007825032070
           H         -4.829496056026     0.927749658511     0.917196156953     1.007825032070
           H          2.968161943974     0.679487658511    -2.038099843047     1.007825032070
           H          4.498980943974     0.805607658511    -1.158771843047     1.007825032070
           H          3.855136943974    -0.772838341489    -1.634311843047     1.007825032070

  Charge       = 0
  Multiplicity = 1
  Basis Set: 6-31G*
  Basis Set:

    Orbital Energies (a.u.)
    -----------------------

    Doubly Occupied:

       1A    -20.548260     2A    -11.324712     3A    -11.229797
       4A    -11.229200     5A    -11.227302     6A    -11.222663
       7A    -11.218836     8A    -11.218111     9A    -11.211095
      10A     -1.393520    11A     -1.099545    12A     -1.059852
      13A     -1.013463    14A     -0.970507    15A     -0.894399
      16A     -0.819610    17A     -0.795749    18A     -0.732077
      19A     -0.666395    20A     -0.647130    21A     -0.637576
      22A     -0.611114    23A     -0.603951    24A     -0.586933
      25A     -0.568875    26A     -0.557820    27A     -0.542563
      28A     -0.539921    29A     -0.507944    30A     -0.499673
      31A     -0.489366    32A     -0.475390    33A     -0.468523
      34A     -0.466846    35A     -0.454560    36A     -0.395610

  @DF-RHF Final Energy:  -387.13359930702234

   => Energetics <=

    Nuclear Repulsion Energy =            438.2039294423304909
    One-Electron Energy =               -1392.8171288438063584
    Two-Electron Energy =                 567.4796000944547814
    DFT Exchange-Correlation Energy =       0.0000000000000000
    Empirical Dispersion Energy =           0.0000000000000000
    PCM Polarization Energy =               0.0000000000000000
    EFP Energy =                            0.0000000000000000
    Total Energy =                       -387.1335993070210861

  Mulliken Charges: (a.u.)
   Center  Symbol    Alpha    Beta     Spin     Total
       1     O     4.26066  4.26066  0.00000 -0.52133
       2     C     2.73676  2.73676  0.00000  0.52648
       3     C     3.20155  3.20155  0.00000 -0.40310
       4     C     3.29036  3.29036  0.00000 -0.58073
       5     C     3.15820  3.15820  0.00000 -0.31641
       6     H     0.41823  0.41823  0.00000  0.16355
       7     H     0.40216  0.40216  0.00000  0.19569
       8     C     3.15306  3.15306  0.00000 -0.30611
       9     H     0.42021  0.42021  0.00000  0.15958
      10     H     0.40643  0.40643  0.00000  0.18715
      11     C     3.15167  3.15167  0.00000 -0.30333
      12     H     0.42295  0.42295  0.00000  0.15411
      13     H     0.42005  0.42005  0.00000  0.15990
      14     C     3.15194  3.15194  0.00000 -0.30387
      15     H     0.42357  0.42357  0.00000  0.15286
      16     H     0.42145  0.42145  0.00000  0.15709
      17     C     3.23952  3.23952  0.00000 -0.47904
      18     H     0.42315  0.42315  0.00000  0.15369
      19     H     0.42224  0.42224  0.00000  0.15552
      20     H     0.42164  0.42164  0.00000  0.15673
      21     H     0.41874  0.41874  0.00000  0.16252
      22     H     0.42091  0.42091  0.00000  0.15819
      23     H     0.40877  0.40877  0.00000  0.18247
      24     H     0.39751  0.39751  0.00000  0.20497
      25     H     0.40829  0.40829  0.00000  0.18343

   Total alpha = 36.00000, Total beta = 36.00000, Total charge =  0.00000
