  ==> Input File <==

--------------------------------------------------------------------------
set {
	reference rhf
	basis 6-31G*
}

set_num_threads( 4 )
memory 2 gb

molecule MOL {
0 1

H	 -0.367348	 2.047014	 -0.308205
C	 0.352277	 1.337084	 0.083769
N	 -0.000016	 0.000074	 -0.335546
H	 1.328359	 1.600444	 -0.307950
H	 0.381933	 1.450534	 1.172486
C	 1.047494	 -0.613480	 -1.119474
C	 -0.395869	 -0.829089	 0.779777
H	 0.720171	 -1.583891	 -1.475160
H	 1.268129	 0.001967	 -1.984349
H	 1.976557	 -0.754017	 -0.557357
H	 -1.228844	 -0.371217	 1.301198
H	 -0.719983	 -1.799175	 0.420163
H	 0.410768	 -0.987634	 1.503053

	symmetry c1
}
set optking {
	frozen_dihedral = ("
		6 3 2 1
	")
}

ee = optimize('scf')
oeprop('DIPOLE', 'QUADRUPOLE', 'MULLIKEN_CHARGES')
f=open( 'psi4out.xyz', 'w' )
f.write( "13  " )
f.write( str(ee) + "\n" )
f.write( MOL.save_string_xyz() )
f.close()
--------------------------------------------------------------------------

    Molecular point group: c1
  Charge       = 0
  Multiplicity = 1
  Basis Set: 6-31G*
  Basis Set:
  @DF-RHF Final Energy:  -173.26167371011650
    Total Energy =                       -173.2616737101165256
    Molecular point group: c1
  Basis Set: 6-31G*
  Basis Set:
  Basis Set: 6-31G*
  Basis Set:
  @DF-RHF Final Energy:  -173.26234959397914
    Total Energy =                       -173.2623495939791951
  Basis Set: 6-31G*
  Basis Set:
  Basis Set: 6-31G*
  Basis Set:
  @DF-RHF Final Energy:  -173.26252350251622
    Total Energy =                       -173.2625235025161601
  Basis Set: 6-31G*
  Basis Set:
  Basis Set: 6-31G*
  Basis Set:
  @DF-RHF Final Energy:  -173.26253448017368
    Total Energy =                       -173.2625344801736844
  Basis Set: 6-31G*
  Basis Set:
  Charge       = 0
  Multiplicity = 1
  Basis Set: 6-31G*
  Basis Set:

    Orbital Energies (a.u.)
    -----------------------

    Doubly Occupied:

       1A    -15.538706     2A    -11.235429     3A    -11.235323
       4A    -11.235305     5A     -1.218625     6A     -0.951246
       7A     -0.951042     8A     -0.805753     9A     -0.636498
      10A     -0.628268    11A     -0.626888    12A     -0.549773
      13A     -0.546644    14A     -0.514327    15A     -0.501093
      16A     -0.500314    17A     -0.337085

  @DF-RHF Final Energy:  -173.26253618668886

   => Energetics <=

    Nuclear Repulsion Energy =            138.7106195700929447
    One-Electron Energy =                -507.9216742781630387
    Two-Electron Energy =                 195.9485185213812883
    DFT Exchange-Correlation Energy =       0.0000000000000000
    Empirical Dispersion Energy =           0.0000000000000000
    PCM Polarization Energy =               0.0000000000000000
    EFP Energy =                            0.0000000000000000
    Total Energy =                       -173.2625361866888056
    Molecular point group: c1
  Basis Set: 6-31G*
  Basis Set:

  -Total Gradient:
     Atom            X                  Y                   Z
    ------   -----------------  -----------------  -----------------
       1        0.000934916141     0.000171198552    -0.001450177690
       2       -0.001380500856     0.000005616904     0.001430387710
       3        0.001044951006    -0.000624783434     0.001103039312
       4       -0.000019218142    -0.000009757643    -0.000009469587
       5        0.000010023514    -0.000008648122     0.000012157064
       6       -0.000596340495     0.000496949714    -0.001092679053
       7       -0.000005162536     0.000036516259    -0.000010735882
       8        0.000011094449    -0.000008959980    -0.000006420257
       9        0.000019822508    -0.000019009504    -0.000011272771
      10       -0.000004131808    -0.000005085332     0.000002921039
      11       -0.000008774622    -0.000017350625     0.000022874345
      12       -0.000005937546    -0.000016501914     0.000017935897
      13       -0.000000741613    -0.000000184876    -0.000008560125

  **** Optimization is complete! (in 5 steps) ****
    Final optimized geometry and variables:
    Molecular point group: c1

    Geometry (in Angstrom), charge = 0, multiplicity = 1:

    H           -0.678769983318     2.082966145791    -0.156388581200
    C            0.071391315862     1.389849678539     0.213420038847
    N           -0.237381085584     0.023377701632    -0.181257458569
    H            1.028390041813     1.704966441416    -0.189944918389
    H            0.131603425706     1.496885776165     1.293492643977
    C            0.783010750371    -0.599447447737    -0.990302603737
    C           -0.678191456879    -0.807351318102     0.913013086005
    H            0.432158880971    -1.563399652838    -1.341838810250
    H            0.989082427273     0.012793822195    -1.860617055930
    H            1.725827929115    -0.758832020379    -0.456372621715
    H           -1.517431802630    -0.340107150613     1.415918490523
    H           -1.013484600517    -1.766791280115     0.534987201451
    H            0.102770093939    -0.991490177742     1.658335476096

  Mulliken Charges: (a.u.)
   Center  Symbol    Alpha    Beta     Spin     Total
       1     H     0.41628  0.41628  0.00000  0.16745
       2     C     3.14319  3.14319  0.00000 -0.28638
       3     N     3.77236  3.77236  0.00000 -0.54472
       4     H     0.42191  0.42191  0.00000  0.15618
       5     H     0.42433  0.42433  0.00000  0.15134
       6     C     3.14006  3.14006  0.00000 -0.28012
       7     C     3.14044  3.14044  0.00000 -0.28088
       8     H     0.41832  0.41832  0.00000  0.16336
       9     H     0.41663  0.41663  0.00000  0.16674
      10     H     0.43591  0.43591  0.00000  0.12819
      11     H     0.41659  0.41659  0.00000  0.16683
      12     H     0.41820  0.41820  0.00000  0.16359
      13     H     0.43579  0.43579  0.00000  0.12842

   Total alpha = 17.00000, Total beta = 17.00000, Total charge =  0.00000
