  ==> Input File <==

--------------------------------------------------------------------------
set {
	reference rhf
	basis 6-31G*
}

set_num_threads( 4 )
memory 2 gb

molecule MOL {
0 1

H	 -3.135461	 -1.215070	 0.001379
O	 -2.310168	 -0.871793	 -0.309793
C	 -2.026376	 0.340750	 0.341611
C	 -0.673256	 0.843270	 -0.132153
H	 -2.792215	 1.080697	 0.115987
H	 -2.013526	 0.200402	 1.421792
C	 0.486613	 -0.083066	 0.235839
H	 -0.715586	 0.970948	 -1.210718
H	 -0.508072	 1.829858	 0.297090
C	 1.840406	 0.433480	 -0.254303
H	 0.300215	 -1.068318	 -0.178947
H	 0.519509	 -0.203625	 1.318070
C	 3.009601	 -0.443206	 0.192998
H	 1.830314	 0.493118	 -1.340608
H	 1.993579	 1.449220	 0.105215
H	 2.902900	 -1.457609	 -0.180488
H	 3.955843	 -0.054269	 -0.170730
H	 3.068249	 -0.495645	 1.276659

	symmetry c1
}
set optking {
	frozen_dihedral = ("
		14 10 7 11
	")
}

ee = optimize('scf')
oeprop('DIPOLE', 'QUADRUPOLE', 'MULLIKEN_CHARGES')
f=open( 'psi4out.xyz', 'w' )
f.write( "18  " )
f.write( str(ee) + "\n" )
f.write( MOL.save_string_xyz() )
f.close()
--------------------------------------------------------------------------

    Molecular point group: c1
  Charge       = 0
  Multiplicity = 1
  Basis Set: 6-31G*
  Basis Set:
  @DF-RHF Final Energy:  -271.17990076179558
    Total Energy =                       -271.1799007617959774
    Molecular point group: c1
  Basis Set: 6-31G*
  Basis Set:
  Basis Set: 6-31G*
  Basis Set:
  @DF-RHF Final Energy:  -271.17990422547996
    Total Energy =                       -271.1799042254800156
  Basis Set: 6-31G*
  Basis Set:
  Basis Set: 6-31G*
  Basis Set:
  @DF-RHF Final Energy:  -271.17991015829489
    Total Energy =                       -271.1799101582946605
  Basis Set: 6-31G*
  Basis Set:
  Charge       = 0
  Multiplicity = 1
  Basis Set: 6-31G*
  Basis Set:

    Orbital Energies (a.u.)
    -----------------------

    Doubly Occupied:

       1A    -20.553078     2A    -11.268023     3A    -11.211920
       4A    -11.210690     5A    -11.206352     6A    -11.204494
       7A     -1.359783     8A     -1.074694     9A     -1.008658
      10A     -0.913006    11A     -0.817511    12A     -0.783653
      13A     -0.705139    14A     -0.641465    15A     -0.625782
      16A     -0.579581    17A     -0.570845    18A     -0.557689
      19A     -0.522472    20A     -0.500374    21A     -0.488047
      22A     -0.467180    23A     -0.458534    24A     -0.447940
      25A     -0.428566

  @DF-RHF Final Energy:  -271.17991049177715

   => Energetics <=

    Nuclear Repulsion Energy =            249.0454268779328970
    One-Electron Energy =                -861.2397221193040195
    Two-Electron Energy =                 341.0143847495938871
    DFT Exchange-Correlation Energy =       0.0000000000000000
    Empirical Dispersion Energy =           0.0000000000000000
    PCM Polarization Energy =               0.0000000000000000
    EFP Energy =                            0.0000000000000000
    Total Energy =                       -271.1799104917772638
    Molecular point group: c1
  Basis Set: 6-31G*
  Basis Set:

  -Total Gradient:
     Atom            X                  Y                   Z
    ------   -----------------  -----------------  -----------------
       1        0.000001277969     0.000000035739     0.000002484498
       2        0.000027280761    -0.000009534332     0.000009522330
       3       -0.000026804104     0.000021401647    -0.000040734950
       4       -0.000000837924     0.000010816308     0.000046396997
       5       -0.000003321881     0.000005286085     0.000003304697
       6        0.000006767357    -0.000001308147    -0.000005440381
       7        0.000476044407    -0.000541819509     0.000705644107
       8       -0.000004444151    -0.000005539703     0.000012261231
       9       -0.000014391971     0.000013659207     0.000001566939
      10       -0.000395042230     0.000911529937    -0.000127885932
      11       -0.000317479938     0.000283251003    -0.000586172236
      12       -0.000005065688     0.000016337983    -0.000010771093
      13        0.000008876564     0.000011162101     0.000019416544
      14        0.000232631633    -0.000685786671    -0.000043957479
      15        0.000001899175    -0.000018201685     0.000008749049
      16       -0.000001067080     0.000004533455    -0.000003963435
      17        0.000003096491    -0.000003038015     0.000003587911
      18        0.000010580620    -0.000012785402     0.000005991204

  **** Optimization is complete! (in 4 steps) ****
    Final optimized geometry and variables:
    Molecular point group: c1

    Geometry (in Angstrom), charge = 0, multiplicity = 1:

    H           -3.132075505053    -1.228775458633    -0.023621834838
    O           -2.306188249938    -0.882314501897    -0.329693287197
    C           -2.029988252250     0.330248825264     0.324990354864
    C           -0.675633860976     0.837627469815    -0.140051952820
    H           -2.796815391130     1.068095103431     0.095847545893
    H           -2.023073416111     0.188460173590     1.405038552455
    C            0.485221481197    -0.085281685567     0.234651767531
    H           -0.711851105710     0.965502297103    -1.218819771334
    H           -0.516457067409     1.824614850766     0.290409286244
    C            1.837323479131     0.427821633530    -0.263994007886
    H            0.297080295602    -1.071913006445    -0.175963693081
    H            0.518814225823    -0.197360657088     1.317652767872
    C            3.006008519758    -0.454356601022     0.174854730853
    H            1.820700374987     0.482567371728    -1.350357926762
    H            1.997999642365     1.442949776061     0.093624237853
    H            2.888132980964    -1.470127744487    -0.191724649921
    H            3.950521322840    -0.074045564252    -0.202221088451
    H            3.077110294633    -0.501316954116     1.257986128557

  Mulliken Charges: (a.u.)
   Center  Symbol    Alpha    Beta     Spin     Total
       1     H     0.28056  0.28056  0.00000  0.43888
       2     O     4.36968  4.36968  0.00000 -0.73936
       3     C     2.99726  2.99726  0.00000  0.00548
       4     C     3.16031  3.16031  0.00000 -0.32062
       5     H     0.42926  0.42926  0.00000  0.14148
       6     H     0.43265  0.43265  0.00000  0.13470
       7     C     3.15321  3.15321  0.00000 -0.30643
       8     H     0.41515  0.41515  0.00000  0.16970
       9     H     0.42418  0.42418  0.00000  0.15164
      10     C     3.15181  3.15181  0.00000 -0.30361
      11     H     0.40767  0.40767  0.00000  0.18467
      12     H     0.42767  0.42767  0.00000  0.14466
      13     C     3.23894  3.23894  0.00000 -0.47787
      14     H     0.42223  0.42223  0.00000  0.15554
      15     H     0.42531  0.42531  0.00000  0.14938
      16     H     0.42098  0.42098  0.00000  0.15804
      17     H     0.42039  0.42039  0.00000  0.15921
      18     H     0.42275  0.42275  0.00000  0.15450

   Total alpha = 25.00000, Total beta = 25.00000, Total charge =  0.00000
