  ==> Input File <==

--------------------------------------------------------------------------
set {
	reference rhf
	basis 6-31G*
}

set_num_threads( 1 )
memory 2 gb

molecule MOL {
0 1

O	 -2.740643	 0.831941	 0.343331
C	 -1.921153	 0.064240	 -0.045697
C	 -2.201217	 -1.126409	 -0.922205
O	 -0.632575	 0.154573	 0.251549
H	 -1.889353	 -2.033832	 -0.417950
H	 -3.256533	 -1.171602	 -1.146040
H	 -1.629850	 -1.047933	 -1.839886
C	 0.160891	 -1.019931	 0.106212
C	 1.589627	 -0.672828	 0.480843
H	 0.089836	 -1.367806	 -0.916050
H	 -0.238459	 -1.792301	 0.749618
C	 2.246377	 0.346236	 -0.452210
H	 2.163194	 -1.597435	 0.473358
H	 1.604769	 -0.303424	 1.502885
C	 3.691736	 0.652107	 -0.061850
H	 2.219579	 -0.032311	 -1.472055
H	 1.666466	 1.263317	 -0.447249
H	 4.134505	 1.377213	 -0.737283
H	 4.305508	 -0.243868	 -0.089969
H	 3.748266	 1.059562	 0.943567

	symmetry c1
}
set optking {
	frozen_dihedral = ("
		16 12 9 8,
		2 4 8 10,
		12 9 8 10
	")
}

ee = energy('scf')
oeprop('DIPOLE', 'QUADRUPOLE', 'MULLIKEN_CHARGES')
f=open( 'psi4out.xyz', 'w' )
f.write( "20  " )
f.write( str(ee) + "\n" )
f.write( MOL.save_string_xyz() )
f.close()
--------------------------------------------------------------------------

    Molecular point group: c1

    Geometry (in Angstrom), charge = 0, multiplicity = 1:

       Center              X                  Y                   Z               Mass
    ------------   -----------------  -----------------  -----------------  -----------------
           O         -2.756664274504     0.928736007886     0.383366457705    15.994914619560
           C         -1.937174274504     0.161035007886    -0.005661542295    12.000000000000
           C         -2.217238274504    -1.029613992114    -0.882169542295    12.000000000000
           O         -0.648596274504     0.251368007886     0.291584457705    15.994914619560
           H         -1.905374274504    -1.937036992114    -0.377914542295     1.007825032070
           H         -3.272554274504    -1.074806992114    -1.106004542295     1.007825032070
           H         -1.645871274504    -0.951137992114    -1.799850542295     1.007825032070
           C          0.144869725496    -0.923135992114     0.146247457705    12.000000000000
           C          1.573605725496    -0.576032992114     0.520878457705    12.000000000000
           H          0.073814725496    -1.271010992114    -0.876014542295     1.007825032070
           H         -0.254480274504    -1.695505992114     0.789653457705     1.007825032070
           C          2.230355725496     0.443031007886    -0.412174542295    12.000000000000
           H          2.147172725496    -1.500639992114     0.513393457705     1.007825032070
           H          1.588747725496    -0.206628992114     1.542920457705     1.007825032070
           C          3.675714725496     0.748902007886    -0.021814542295    12.000000000000
           H          2.203557725496     0.064484007886    -1.432019542295     1.007825032070
           H          1.650444725496     1.360112007886    -0.407213542295     1.007825032070
           H          4.118483725496     1.474008007886    -0.697247542295     1.007825032070
           H          4.289486725496    -0.147072992114    -0.049933542295     1.007825032070
           H          3.732244725496     1.156357007886     0.983602457705     1.007825032070

  Charge       = 0
  Multiplicity = 1
  Basis Set: 6-31G*
  Basis Set:

    Orbital Energies (a.u.)
    -----------------------

    Doubly Occupied:

       1A    -20.603518     2A    -20.543241     3A    -11.376478
       4A    -11.299036     5A    -11.238519     6A    -11.232960
       7A    -11.224806     8A    -11.216158     9A     -1.466523
      10A     -1.368204    11A     -1.089341    12A     -1.022926
      13A     -1.004921    14A     -0.892463    15A     -0.816332
      16A     -0.783154    17A     -0.701479    18A     -0.696554
      19A     -0.665488    20A     -0.635716    21A     -0.609339
      22A     -0.593159    23A     -0.576155    24A     -0.560686
      25A     -0.550283    26A     -0.538960    27A     -0.515696
      28A     -0.490011    29A     -0.482162    30A     -0.479295
      31A     -0.445168    32A     -0.432014

  @DF-RHF Final Energy:  -383.92132465443012

   => Energetics <=

    Nuclear Repulsion Energy =            387.6313885951855127
    One-Electron Energy =               -1290.8035427368631645
    Two-Electron Energy =                 519.2508294872486658
    DFT Exchange-Correlation Energy =       0.0000000000000000
    Empirical Dispersion Energy =           0.0000000000000000
    PCM Polarization Energy =               0.0000000000000000
    EFP Energy =                            0.0000000000000000
    Total Energy =                       -383.9213246544289859

  Mulliken Charges: (a.u.)
   Center  Symbol    Alpha    Beta     Spin     Total
       1     O     4.27002  4.27002  0.00000 -0.54003
       2     C     2.60628  2.60628  0.00000  0.78743
       3     C     3.31904  3.31904  0.00000 -0.63807
       4     O     4.30060  4.30060  0.00000 -0.60119
       5     H     0.40224  0.40224  0.00000  0.19553
       6     H     0.38925  0.38925  0.00000  0.22150
       7     H     0.39892  0.39892  0.00000  0.20217
       8     C     3.01414  3.01414  0.00000 -0.02827
       9     C     3.15950  3.15950  0.00000 -0.31899
      10     H     0.41551  0.41551  0.00000  0.16898
      11     H     0.41132  0.41132  0.00000  0.17736
      12     C     3.15687  3.15687  0.00000 -0.31375
      13     H     0.41929  0.41929  0.00000  0.16141
      14     H     0.40868  0.40868  0.00000  0.18264
      15     C     3.24098  3.24098  0.00000 -0.48197
      16     H     0.42519  0.42519  0.00000  0.14962
      17     H     0.40522  0.40522  0.00000  0.18956
      18     H     0.41609  0.41609  0.00000  0.16782
      19     H     0.42240  0.42240  0.00000  0.15521
      20     H     0.41848  0.41848  0.00000  0.16304

   Total alpha = 32.00000, Total beta = 32.00000, Total charge = -0.00000
