  ==> Input File <==

--------------------------------------------------------------------------
set {
	reference rhf
	basis 6-31G*
}

set_num_threads( 4 )
memory 2 gb

molecule MOL {
0 1

O	 -0.682937	 1.318834	 -0.186099
C	 -0.860635	 0.152188	 -0.042321
C	 -2.173363	 -0.477127	 0.338347
O	 0.083258	 -0.765189	 -0.202595
H	 -2.477673	 -1.180929	 -0.427595
H	 -2.923125	 0.290956	 0.455536
H	 -2.058825	 -1.029004	 1.264191
C	 1.391937	 -0.334737	 -0.569838
C	 1.723826	 1.016302	 0.036125
H	 1.468840	 -0.311517	 -1.646262
H	 2.047584	 -1.102986	 -0.185885
H	 2.750363	 1.281403	 -0.197701
H	 1.074907	 1.786989	 -0.360502
H	 1.616787	 0.987102	 1.115062

	symmetry c1
}
set optking {
	frozen_dihedral = ("
		10 8 4 2
	")
}

ee = optimize('scf')
oeprop('DIPOLE', 'QUADRUPOLE', 'MULLIKEN_CHARGES')
f=open( 'psi4out.xyz', 'w' )
f.write( "14  " )
f.write( str(ee) + "\n" )
f.write( MOL.save_string_xyz() )
f.close()
--------------------------------------------------------------------------

    Molecular point group: c1
  Charge       = 0
  Multiplicity = 1
  Basis Set: 6-31G*
  Basis Set:
  @DF-RHF Final Energy:  -305.85080268923093
    Total Energy =                       -305.8508026892310454
    Molecular point group: c1
  Basis Set: 6-31G*
  Basis Set:
  Basis Set: 6-31G*
  Basis Set:
  @DF-RHF Final Energy:  -305.86495496529994
    Total Energy =                       -305.8649549652998303
  Basis Set: 6-31G*
  Basis Set:
  Basis Set: 6-31G*
  Basis Set:
  @DF-RHF Final Energy:  -305.86715734523295
    Total Energy =                       -305.8671573452330676
  Basis Set: 6-31G*
  Basis Set:
  Basis Set: 6-31G*
  Basis Set:
  @DF-RHF Final Energy:  -305.86411124292431
    Total Energy =                       -305.8641112429241957
  Basis Set: 6-31G*
  Basis Set:
  @DF-RHF Final Energy:  -305.86814783471959
    Total Energy =                       -305.8681478347195366
  Basis Set: 6-31G*
  Basis Set:
  @DF-RHF Final Energy:  -305.86825002001535
    Total Energy =                       -305.8682500200154095
  Basis Set: 6-31G*
  Basis Set:
  Basis Set: 6-31G*
  Basis Set:
  @DF-RHF Final Energy:  -305.86826436234026
    Total Energy =                       -305.8682643623401418
  Basis Set: 6-31G*
  Basis Set:
  Basis Set: 6-31G*
  Basis Set:
  @DF-RHF Final Energy:  -305.86826647102032
    Total Energy =                       -305.8682664710203767
  Basis Set: 6-31G*
  Basis Set:
  Charge       = 0
  Multiplicity = 1
  Basis Set: 6-31G*
  Basis Set:

    Orbital Energies (a.u.)
    -----------------------

    Doubly Occupied:

       1A    -20.600154     2A    -20.542421     3A    -11.375555
       4A    -11.290187     5A    -11.231584     6A    -11.216900
       7A     -1.463450     8A     -1.362383     9A     -1.054939
      10A     -0.997413    11A     -0.891646    12A     -0.751427
      13A     -0.693868    14A     -0.680707    15A     -0.664401
      16A     -0.612730    17A     -0.587519    18A     -0.569766
      19A     -0.549771    20A     -0.533557    21A     -0.512790
      22A     -0.495852    23A     -0.448676    24A     -0.431460

  @DF-RHF Final Energy:  -305.86826681579748

   => Energetics <=

    Nuclear Repulsion Energy =            249.3356793565677947
    One-Electron Energy =                -911.2895733175622581
    Two-Electron Energy =                 356.0856271451968951
    DFT Exchange-Correlation Energy =       0.0000000000000000
    Empirical Dispersion Energy =           0.0000000000000000
    PCM Polarization Energy =               0.0000000000000000
    EFP Energy =                            0.0000000000000000
    Total Energy =                       -305.8682668157975968
    Molecular point group: c1
  Basis Set: 6-31G*
  Basis Set:

  -Total Gradient:
     Atom            X                  Y                   Z
    ------   -----------------  -----------------  -----------------
       1       -0.000022949085    -0.000004595048    -0.000016928874
       2        0.001148724415     0.000408178543     0.005630207396
       3        0.000015561574     0.000006798388     0.000057443129
       4       -0.001330660221    -0.001965993170    -0.008478770722
       5       -0.000007332845     0.000005803749    -0.000022833493
       6       -0.000002108658     0.000001037037    -0.000006642547
       7       -0.000001460709    -0.000014288766    -0.000015885573
       8       -0.001705716828     0.007461062575     0.002809928100
       9       -0.000012531671     0.000000871617     0.000033320338
      10        0.001866596523    -0.005928471491     0.000041742499
      11        0.000029058216     0.000020665352    -0.000009027600
      12        0.000015934191     0.000003098321     0.000001090286
      13        0.000004843140     0.000007157121    -0.000005112610
      14        0.000002041960    -0.000001324228    -0.000018530329

  **** Optimization is complete! (in 9 steps) ****
    Final optimized geometry and variables:
    Molecular point group: c1

    Geometry (in Angstrom), charge = 0, multiplicity = 1:

    O           -0.804600992663     1.150114719548    -0.249391673239
    C           -0.841825082619    -0.007152200858     0.017202074467
    C           -2.060402197254    -0.721396814442     0.540158924517
    O            0.168286593271    -0.851244276984    -0.129031883585
    H           -2.323434739081    -1.533546873390    -0.127537555186
    H           -2.882017440589    -0.025176339728     0.618689518250
    H           -1.844021815657    -1.152259631094     1.510965365135
    C            1.499381059538    -0.429223227002    -0.433012213868
    C            1.993731734238     0.839352702481     0.241626635962
    H            1.605569297578    -0.403011928042    -1.510441001334
    H            2.094668339788    -1.264775754466    -0.090581218235
    H            3.069350889405     0.892142619643     0.099703253910
    H            1.541600428554     1.730663915219    -0.161386663145
    H            1.801483734620     0.804040093601     1.308838121391

  Mulliken Charges: (a.u.)
   Center  Symbol    Alpha    Beta     Spin     Total
       1     O     4.28332  4.28332  0.00000 -0.56664
       2     C     2.61788  2.61788  0.00000  0.76424
       3     C     3.28105  3.28105  0.00000 -0.56211
       4     O     4.31355  4.31355  0.00000 -0.62711
       5     H     0.40031  0.40031  0.00000  0.19938
       6     H     0.39772  0.39772  0.00000  0.20456
       7     H     0.40194  0.40194  0.00000  0.19612
       8     C     2.99437  2.99437  0.00000  0.01127
       9     C     3.26121  3.26121  0.00000 -0.52243
      10     H     0.41299  0.41299  0.00000  0.17402
      11     H     0.41088  0.41088  0.00000  0.17824
      12     H     0.41895  0.41895  0.00000  0.16211
      13     H     0.39025  0.39025  0.00000  0.21950
      14     H     0.41557  0.41557  0.00000  0.16886

   Total alpha = 24.00000, Total beta = 24.00000, Total charge =  0.00000
