                              Psi4 1.0.54 Driver

  ==> Input File <==

--------------------------------------------------------------------------
set {
	reference rhf
	basis cc-pvtz
}

set_num_threads( 4 )
memory 2 gb

molecule MOL {
0 1

H	 -3.258660	 -0.290394	 1.471450
C	 -3.307964	 -0.275695	 0.374072
C	 -2.653809	 0.914422	 -0.273689
O	 -3.855140	 -1.148880	 -0.205112
C	 -1.216901	 1.136108	 0.207794
H	 -2.700131	 0.790676	 -1.347875
H	 -3.256452	 1.781007	 -0.010713
C	 -0.247837	 0.040196	 -0.230469
H	 -0.872882	 2.093195	 -0.169002
H	 -1.209325	 1.218376	 1.291938
C	 1.181757	 0.280428	 0.247371
H	 -0.259600	 -0.030819	 -1.314870
H	 -0.591284	 -0.923375	 0.136958
C	 2.151032	 -0.811012	 -0.202643
H	 1.515939	 1.247397	 -0.115449
H	 1.191514	 0.341223	 1.333422
C	 3.580021	 -0.656538	 0.320835
H	 2.170545	 -0.847575	 -1.289412
H	 1.766632	 -1.772905	 0.124928
C	 3.829124	 -1.281340	 1.691476
H	 3.811694	 0.402617	 0.374777
H	 4.273760	 -1.080932	 -0.400221
H	 3.144681	 -0.880402	 2.432274
H	 3.706126	 -2.357590	 1.675905
H	 4.838004	 -1.074954	 2.029898

	symmetry c1
}
set optking {
	frozen_dihedral = ("
		20 17 14 18
	")
}

ee,wfn = optimize('scf', return_wfn=True)
oeprop( wfn, 'DIPOLE', 'QUADRUPOLE', 'MULLIKEN_CHARGES')
f=open( 'psi4out.xyz', 'w' )
f.write( "25  " )
f.write( str(ee) + "\n" )
f.write( MOL.save_string_xyz() )
f.close()
--------------------------------------------------------------------------

    Molecular point group: c1
  Charge       = 0
  Multiplicity = 1
  Basis Set: CC-PVTZ
  Basis Set:
  @DF-RHF Final Energy:  -387.25879266446987
    Total Energy =                       -387.2587926644694107
    Molecular point group: c1
  Basis Set: CC-PVTZ
  Basis Set:
  Basis Set: CC-PVTZ
  Basis Set:
  @DF-RHF Final Energy:  -387.25911970028574
    Total Energy =                       -387.2591197002858507
  Basis Set: CC-PVTZ
  Basis Set:
  Basis Set: CC-PVTZ
  Basis Set:
  @DF-RHF Final Energy:  -387.25915137095149
    Total Energy =                       -387.2591513709514857
  Basis Set: CC-PVTZ
  Basis Set:
  Basis Set: CC-PVTZ
  Basis Set:
  @DF-RHF Final Energy:  -387.25892465005188
    Total Energy =                       -387.2589246500529043
  Basis Set: CC-PVTZ
  Basis Set:
  Basis Set: CC-PVTZ
  Basis Set:
  @DF-RHF Final Energy:  -387.25915512632440
    Total Energy =                       -387.2591551263243446
  Basis Set: CC-PVTZ
  Basis Set:
  Charge       = 0
  Multiplicity = 1
  Basis Set: CC-PVTZ
  Basis Set:

    Orbital Energies (a.u.)
    -----------------------

    Doubly Occupied:

       1A    -20.551399     2A    -11.321013     3A    -11.233844
       4A    -11.232922     5A    -11.221745     6A    -11.218329
       7A    -11.215914     8A    -11.214658     9A    -11.208974
      10A     -1.406404    11A     -1.105277    12A     -1.070680
      13A     -1.015145    14A     -0.943716    15A     -0.873111
      16A     -0.819271    17A     -0.789662    18A     -0.786345
      19A     -0.667767    20A     -0.663767    21A     -0.631759
      22A     -0.627403    23A     -0.608663    24A     -0.594216
      25A     -0.567858    26A     -0.561479    27A     -0.530352
      28A     -0.521313    29A     -0.518127    30A     -0.499482
      31A     -0.486003    32A     -0.482545    33A     -0.466751
      34A     -0.458197    35A     -0.442256    36A     -0.411901

  @DF-RHF Final Energy:  -387.25915452678834

   => Energetics <=

    Nuclear Repulsion Energy =            439.3393418364218519
    One-Electron Energy =               -1395.2605001775700657
    Two-Electron Energy =                 568.6620038143599913
    DFT Exchange-Correlation Energy =       0.0000000000000000
    Empirical Dispersion Energy =           0.0000000000000000
    PCM Polarization Energy =               0.0000000000000000
    EFP Energy =                            0.0000000000000000
    Total Energy =                       -387.2591545267881656
    Molecular point group: c1
  Basis Set: CC-PVTZ
  Basis Set:

  -Total Gradient:
     Atom            X                  Y                   Z
    ------   -----------------  -----------------  -----------------
       1       -0.000052313288     0.000035802443     0.000018362804
       2        0.000191649352    -0.000092427041    -0.000026083487
       3       -0.000061543191     0.000006184182     0.000036114517
       4       -0.000066116977    -0.000001628639    -0.000020625756
       5        0.000032071836     0.000024054210    -0.000061074544
       6       -0.000006529914     0.000019324165    -0.000011126463
       7       -0.000011777438     0.000008140527     0.000023791056
       8       -0.000014481952    -0.000032665534     0.000012251604
       9        0.000021075572    -0.000002264062    -0.000010188926
      10        0.000003371575     0.000021786097     0.000006169821
      11        0.000009287445    -0.000003523331    -0.000001775533
      12       -0.000000491203     0.000014539056     0.000004084567
      13       -0.000018705090    -0.000004045804     0.000003012272
      14       -0.000169104342     0.002988814561    -0.000482627663
      15       -0.000009384239    -0.000005626892    -0.000001169845
      16        0.000016592809    -0.000008668927     0.000002236850
      17       -0.000777931910     0.001995142211     0.001414584051
      18        0.000329027356    -0.003011781217     0.000085925494
      19       -0.000005995738    -0.000009240271     0.000017544701
      20        0.000599382883    -0.001940434736    -0.001008921546
      21       -0.000016437745     0.000005728300    -0.000005075925
      22        0.000012294893    -0.000004640354     0.000004904905
      23       -0.000002433864     0.000014019617    -0.000013034318
      24       -0.000006184749    -0.000007698389     0.000015922774
      25        0.000004677915    -0.000008890172    -0.000003201412

  **** Optimization is complete! (in 6 steps) ****
    Final optimized geometry and variables:
    Molecular point group: c1

    Geometry (in Angstrom), charge = 0, multiplicity = 1:

    H           -3.195140120612    -0.087201834324     1.252609380141
    C           -3.248629603540    -0.054483167985     0.155780982557
    C           -2.590539696245     1.142379130003    -0.475418417948
    O           -3.804010169246    -0.914467897615    -0.435248255671
    C           -1.150986527892     1.349147017209     0.004500502679
    H           -2.641144239518     1.035820285386    -1.551280988224
    H           -3.187997446112     2.007706013351    -0.196825594270
    C           -0.191547008679     0.249413117996    -0.445206043043
    H           -0.800334540954     2.306668886155    -0.365009756688
    H           -1.140358788423     1.422170421653     1.089291638204
    C            1.240988835288     0.475500306663     0.029051866491
    H           -0.207649897620     0.186116478703    -1.530043979022
    H           -0.540455680675    -0.714291417660    -0.083231577017
    C            2.209061853967    -0.607637010444    -0.439641248782
    H            1.588609228961     1.441589348206    -0.328582162033
    H            1.253240857239     0.531186479425     1.114510370438
    C            3.642173698496    -0.434546402087     0.079706607526
    H            2.217264932175    -0.644050777557    -1.524839712014
    H            1.836071215336    -1.579337811031    -0.124300991049
    C            3.880230783399    -1.064846478435     1.449741082279
    H            3.894505518777     0.621472311330     0.110415680035
    H            4.331346601469    -0.887289805979    -0.625810019456
    H            3.218075144922    -0.652334212685     2.203550592574
    H            3.712283909650    -2.135722425815     1.414520625923
    H            4.898246560789    -0.900062054239     1.783951526098

  Mulliken Charges: (a.u.)
   Center  Symbol    Alpha    Beta     Spin     Total
       1     H     0.46412  0.46412  0.00000  0.07177
       2     C     2.90481  2.90481  0.00000  0.19037
       3     C     3.08916  3.08916  0.00000 -0.17833
       4     O     4.16627  4.16627  0.00000 -0.33255
       5     C     3.11596  3.11596  0.00000 -0.23192
       6     H     0.44285  0.44285  0.00000  0.11429
       7     H     0.44047  0.44047  0.00000  0.11906
       8     C     3.09086  3.09086  0.00000 -0.18172
       9     H     0.44306  0.44306  0.00000  0.11388
      10     H     0.44996  0.44996  0.00000  0.10008
      11     C     3.09079  3.09079  0.00000 -0.18159
      12     H     0.44967  0.44967  0.00000  0.10066
      13     H     0.44786  0.44786  0.00000  0.10429
      14     C     3.09543  3.09543  0.00000 -0.19085
      15     H     0.45292  0.45292  0.00000  0.09415
      16     H     0.45335  0.45335  0.00000  0.09330
      17     C     3.09129  3.09129  0.00000 -0.18257
      18     H     0.44705  0.44705  0.00000  0.10589
      19     H     0.45473  0.45473  0.00000  0.09054
      20     C     3.14785  3.14785  0.00000 -0.29569
      21     H     0.45546  0.45546  0.00000  0.08908
      22     H     0.44788  0.44788  0.00000  0.10423
      23     H     0.45616  0.45616  0.00000  0.08768
      24     H     0.45425  0.45425  0.00000  0.09151
      25     H     0.44778  0.44778  0.00000  0.10444

   Total alpha = 36.00000, Total beta = 36.00000, Total charge = -0.00000

*** Psi4 exiting successfully. Buy a developer a beer!
