  ==> Input File <==

--------------------------------------------------------------------------
set {
	reference rhf
	basis 6-31G*
}

set_num_threads( 4 )
memory 2 gb

molecule MOL {
0 1

H	 -2.499100	 -0.730091	 -0.745082
O	 -2.347518	 -0.290803	 0.079804
C	 -1.184022	 0.487508	 -0.006784
C	 0.062599	 -0.378592	 0.031606
H	 -1.176523	 1.099369	 -0.904519
H	 -1.187323	 1.153111	 0.844927
O	 -0.184698	 -1.450972	 0.885202
H	 0.913871	 0.205669	 0.386510
H	 0.299694	 -0.722350	 -0.973481
C	 0.867796	 -2.356156	 0.994924
H	 1.763336	 -1.879218	 1.388838
H	 0.557962	 -3.136443	 1.676142
H	 1.109432	 -2.802811	 0.032685

	symmetry c1
}
set optking {
	frozen_dihedral = ("
		8 4 3 5
	")
}

ee = optimize('scf')
oeprop('DIPOLE', 'QUADRUPOLE', 'MULLIKEN_CHARGES')
f=open( 'psi4out.xyz', 'w' )
f.write( "13  " )
f.write( str(ee) + "\n" )
f.write( MOL.save_string_xyz() )
f.close()
--------------------------------------------------------------------------

    Molecular point group: c1
  Charge       = 0
  Multiplicity = 1
  Basis Set: 6-31G*
  Basis Set:
  @DF-RHF Final Energy:  -267.94244915189466
    Total Energy =                       -267.9424491518946070
    Molecular point group: c1
  Basis Set: 6-31G*
  Basis Set:
  Basis Set: 6-31G*
  Basis Set:
  @DF-RHF Final Energy:  -267.94373534575038
    Total Energy =                       -267.9437353457500990
  Basis Set: 6-31G*
  Basis Set:
  Basis Set: 6-31G*
  Basis Set:
  @DF-RHF Final Energy:  -267.94459838271109
    Total Energy =                       -267.9445983827112059
  Basis Set: 6-31G*
  Basis Set:
  Basis Set: 6-31G*
  Basis Set:
  @DF-RHF Final Energy:  -267.94476064216781
    Total Energy =                       -267.9447606421680916
  Basis Set: 6-31G*
  Basis Set:
  @DF-RHF Final Energy:  -267.94489251075640
    Total Energy =                       -267.9448925107561195
  @DF-RHF Final Energy:  -267.94524170453724
    Total Energy =                       -267.9452417045371249
  @DF-RHF Final Energy:  -267.94574809945289
    Total Energy =                       -267.9457480994527145
  @DF-RHF Final Energy:  -267.94662313988044
    Total Energy =                       -267.9466231398804439
  @DF-RHF Final Energy:  -267.94919269889647
    Total Energy =                       -267.9491926988965247
  @DF-RHF Final Energy:  -267.85730088399987
    Total Energy =                       -267.8573008839999829
  @DF-RHF Final Energy:  -267.93811988599612
    Total Energy =                       -267.9381198859962865
  @DF-RHF Final Energy:  -267.95132981930885
    Total Energy =                       -267.9513298193087394
  @DF-RHF Final Energy:  -267.95114810958739
    Total Energy =                       -267.9511481095873364
  @DF-RHF Final Energy:  -267.94827149576645
    Total Energy =                       -267.9482714957667326
  @DF-RHF Final Energy:  -267.95114714084377
    Total Energy =                       -267.9511471408437160
  @DF-RHF Final Energy:  -267.95179167275137
    Total Energy =                       -267.9517916727510851
  @DF-RHF Final Energy:  -267.95121027432219
    Total Energy =                       -267.9512102743221931
  Basis Set: 6-31G*
  Basis Set:
  @DF-RHF Final Energy:  -267.95227210810765
    Total Energy =                       -267.9522721081076497
  Basis Set: 6-31G*
  Basis Set:
  Basis Set: 6-31G*
  Basis Set:
  @DF-RHF Final Energy:  -267.95228384373166
    Total Energy =                       -267.9522838437317205
  Basis Set: 6-31G*
  Basis Set:
  Basis Set: 6-31G*
  Basis Set:
  @DF-RHF Final Energy:  -267.95231057113313
    Total Energy =                       -267.9523105711333528
  Basis Set: 6-31G*
  Basis Set:
  Charge       = 0
  Multiplicity = 1
  Basis Set: 6-31G*
  Basis Set:

    Orbital Energies (a.u.)
    -----------------------

    Doubly Occupied:

       1A    -20.570295     2A    -20.543360     3A    -11.276338
       4A    -11.275837     5A    -11.268068     6A     -1.397248
       7A     -1.349388     8A     -1.019048     9A     -0.923449
      10A     -0.835337    11A     -0.702529    12A     -0.684279
      13A     -0.664920    14A     -0.634124    15A     -0.586524
      16A     -0.575227    17A     -0.546397    18A     -0.493307
      19A     -0.480762    20A     -0.436562    21A     -0.424576

  @DF-RHF Final Energy:  -267.95231119966934

   => Energetics <=

    Nuclear Repulsion Energy =            195.3661672857514020
    One-Electron Energy =                -753.2618091806659777
    Two-Electron Energy =                 289.9433306952453222
    DFT Exchange-Correlation Energy =       0.0000000000000000
    Empirical Dispersion Energy =           0.0000000000000000
    PCM Polarization Energy =               0.0000000000000000
    EFP Energy =                            0.0000000000000000
    Total Energy =                       -267.9523111996692251
    Molecular point group: c1
  Basis Set: 6-31G*
  Basis Set:

  -Total Gradient:
     Atom            X                  Y                   Z
    ------   -----------------  -----------------  -----------------
       1        0.000014533618     0.000013474303    -0.000006615581
       2       -0.000028886450    -0.000014400145    -0.000030851292
       3        0.002759898104     0.004528944264     0.005780416998
       4        0.001558899400     0.001592723347    -0.007505208440
       5       -0.002589631129    -0.004063187539    -0.003602255305
       6        0.000037038980     0.000005513571    -0.000008935343
       7        0.000026835442    -0.000015954210     0.000018085820
       8       -0.001771326014    -0.002077350900     0.005339155990
       9       -0.000008399839     0.000044637413    -0.000007580424
      10       -0.000001308745    -0.000009265942     0.000027982790
      11        0.000005682884    -0.000006656256     0.000000232942
      12        0.000004658353    -0.000003989441    -0.000002375182
      13       -0.000007994603     0.000005511537    -0.000002052973

  **** Optimization is complete! (in 21 steps) ****
    Final optimized geometry and variables:
    Molecular point group: c1

    Geometry (in Angstrom), charge = 0, multiplicity = 1:

    H           -1.699179033038    -0.210417115230    -0.039349690154
    O           -1.720583403056     0.543783138363    -0.614134889404
    C           -0.590173983224     1.320016330672    -0.343118880927
    C            0.662820457663     0.458358138405    -0.262559590884
    H           -0.506266082616     2.006582486997    -1.176140458233
    H           -0.714853611308     1.883393998443     0.577946091094
    O            0.347002593622    -0.653947255550     0.529892764039
    H            1.467760395399     1.010264116367     0.220010743371
    H            0.981459782704     0.136765765982    -1.250895006673
    C            1.381789141728    -1.575947557573     0.676048715852
    H            2.247611899426    -1.125675671138     1.156640719438
    H            1.016242076412    -2.382340064765     1.296498106840
    H            1.689233088588    -1.980451589008    -0.285613283352

  Mulliken Charges: (a.u.)
   Center  Symbol    Alpha    Beta     Spin     Total
       1     H     0.26962  0.26962  0.00000  0.46077
       2     O     4.37577  4.37577  0.00000 -0.75153
       3     C     2.99644  2.99644  0.00000  0.00712
       4     C     3.00401  3.00401  0.00000 -0.00802
       5     H     0.41706  0.41706  0.00000  0.16587
       6     H     0.42536  0.42536  0.00000  0.14928
       7     O     4.31721  4.31721  0.00000 -0.63442
       8     H     0.42820  0.42820  0.00000  0.14361
       9     H     0.42329  0.42329  0.00000  0.15342
      10     C     3.07962  3.07962  0.00000 -0.15924
      11     H     0.42730  0.42730  0.00000  0.14540
      12     H     0.41024  0.41024  0.00000  0.17951
      13     H     0.42588  0.42588  0.00000  0.14824

   Total alpha = 21.00000, Total beta = 21.00000, Total charge =  0.00000
