  ==> Input File <==

--------------------------------------------------------------------------
set {
	reference rhf
	basis cc-pvtz
}

set_num_threads( 4 )
memory 2 gb

molecule MOL {
0 1

H	 3.083659	 -1.378387	 0.000000
O	 2.179005	 -1.633391	 0.000000
C	 1.366950	 -0.558201	 0.000000
C	 0.204022	 -0.508473	 0.753529
C	 1.726141	 0.518322	 -0.784921
H	 -0.074279	 -1.347985	 1.364427
C	 -0.595915	 0.615792	 0.720597
H	 2.623681	 0.482985	 -1.368029
C	 0.918673	 1.641098	 -0.812058
H	 -1.493318	 0.642937	 1.307755
C	 -0.243701	 1.696953	 -0.061998
C	 1.294330	 2.807442	 -1.653427
H	 -0.863742	 2.572552	 -0.089631
O	 2.262177	 2.866038	 -2.331114
H	 0.594217	 3.647385	 -1.609414

	symmetry c1
}
set optking {
	frozen_dihedral = ("
		4 3 2 1
	")
}

ee = optimize('scf')
oeprop('DIPOLE', 'QUADRUPOLE', 'MULLIKEN_CHARGES')
f=open( 'psi4out.xyz', 'w' )
f.write( "15  " )
f.write( str(ee) + "\n" )
f.write( MOL.save_string_xyz() )
f.close()
--------------------------------------------------------------------------

    Molecular point group: c1
  Charge       = 0
  Multiplicity = 1
  Basis Set: CC-PVTZ
  Basis Set:
  @DF-RHF Final Energy:  -418.43647870983182
    Total Energy =                       -418.4364787098320448
    Molecular point group: c1
  Basis Set: CC-PVTZ
  Basis Set:
  Basis Set: CC-PVTZ
  Basis Set:
  @DF-RHF Final Energy:  -418.43802402052887
    Total Energy =                       -418.4380240205288146
  Basis Set: CC-PVTZ
  Basis Set:
  Basis Set: CC-PVTZ
  Basis Set:
  @DF-RHF Final Energy:  -418.43767970109093
    Total Energy =                       -418.4376797010911559
  Basis Set: CC-PVTZ
  Basis Set:
  Basis Set: CC-PVTZ
  Basis Set:
  @DF-RHF Final Energy:  -418.43811343682324
    Total Energy =                       -418.4381134368236417
  Basis Set: CC-PVTZ
  Basis Set:
  Basis Set: CC-PVTZ
  Basis Set:
  @DF-RHF Final Energy:  -418.43816257509383
    Total Energy =                       -418.4381625750941112
  Basis Set: CC-PVTZ
  Basis Set:
  Basis Set: CC-PVTZ
  Basis Set:
  @DF-RHF Final Energy:  -418.43816484202250
    Total Energy =                       -418.4381648420227293
  Basis Set: CC-PVTZ
  Basis Set:
  Charge       = 0
  Multiplicity = 1
  Basis Set: CC-PVTZ
  Basis Set:

    Orbital Energies (a.u.)
    -----------------------

    Doubly Occupied:

       1A    -20.589466     2A    -20.556397     3A    -11.329925
       4A    -11.308130     5A    -11.251788     6A    -11.249149
       7A    -11.246738     8A    -11.244206     9A    -11.242374
      10A     -1.419654    11A     -1.412134    12A     -1.174899
      13A     -1.053098    14A     -1.029830    15A     -0.902641
      16A     -0.855340    17A     -0.800234    18A     -0.756220
      19A     -0.703573    20A     -0.674846    21A     -0.664501
      22A     -0.634829    23A     -0.621161    24A     -0.612274
      25A     -0.566392    26A     -0.555384    27A     -0.537428
      28A     -0.517056    29A     -0.492542    30A     -0.428854
      31A     -0.357735    32A     -0.337631

  @DF-RHF Final Energy:  -418.43816539048532

   => Energetics <=

    Nuclear Repulsion Energy =            403.9654175035444723
    One-Electron Energy =               -1370.5543004456440030
    Two-Electron Energy =                 548.1507175516144343
    DFT Exchange-Correlation Energy =       0.0000000000000000
    Empirical Dispersion Energy =           0.0000000000000000
    PCM Polarization Energy =               0.0000000000000000
    EFP Energy =                            0.0000000000000000
    Total Energy =                       -418.4381653904850964
    Molecular point group: c1
  Basis Set: CC-PVTZ
  Basis Set:

  -Total Gradient:
     Atom            X                  Y                   Z
    ------   -----------------  -----------------  -----------------
       1       -0.000070899821     0.000095963192     0.002957952365
       2        0.000622458171     0.000226577735    -0.002912937040
       3       -0.001675783217    -0.001137233918    -0.001629344565
       4        0.001102704591     0.000810393499     0.001600893413
       5        0.000016363483     0.000017485001    -0.000002033955
       6        0.000008209991     0.000002115206    -0.000001723963
       7        0.000000507788    -0.000002240203    -0.000022087224
       8       -0.000004327268    -0.000000612324    -0.000002728771
       9       -0.000008670731    -0.000002808004    -0.000037546500
      10        0.000000971712    -0.000001453167     0.000005791679
      11        0.000002825361    -0.000010325707     0.000035363069
      12       -0.000005808942     0.000017489711     0.000033080344
      13        0.000003932052     0.000000973576    -0.000003068752
      14        0.000010600048    -0.000005323450    -0.000015118016
      15       -0.000003083218    -0.000011001133    -0.000006492087

  **** Optimization is complete! (in 7 steps) ****
    Final optimized geometry and variables:
    Molecular point group: c1

    Geometry (in Angstrom), charge = 0, multiplicity = 1:

    H            1.980768404588    -2.276525288050     0.539337768379
    O            1.063608980741    -2.484693545259     0.526824792320
    C            0.311428588690    -1.358740816661     0.474885913986
    C           -0.846964532337    -1.317637247268     1.239271936091
    C            0.659223114286    -0.282622173667    -0.308493692385
    H           -1.093931013601    -2.165204972694     1.847870154402
    C           -1.658550654714    -0.206300860236     1.202552650317
    H            1.548252254918    -0.301319012475    -0.908513073530
    C           -0.155254026923     0.841553238997    -0.330087808124
    H           -2.554328800908    -0.183172485036     1.792288600842
    C           -1.314185294914     0.882196936665     0.418384470851
    C            0.214648700864     2.010312613012    -1.167256337408
    H           -1.942460631920     1.752332779560     0.393384340230
    O            1.190423607146     2.078888455169    -1.833701304469
    H           -0.495499578415     2.842162229190    -1.131891865462

  Mulliken Charges: (a.u.)
   Center  Symbol    Alpha    Beta     Spin     Total
       1     H     0.38311  0.38311  0.00000  0.23377
       2     O     4.18080  4.18080  0.00000 -0.36160
       3     C     2.85353  2.85353  0.00000  0.29294
       4     C     3.10102  3.10102  0.00000 -0.20204
       5     C     3.13441  3.13441  0.00000 -0.26882
       6     H     0.41358  0.41358  0.00000  0.17283
       7     C     3.06003  3.06003  0.00000 -0.12005
       8     H     0.41077  0.41077  0.00000  0.17845
       9     C     2.98058  2.98058  0.00000  0.03885
      10     H     0.41907  0.41907  0.00000  0.16187
      11     C     3.10387  3.10387  0.00000 -0.20775
      12     C     2.90905  2.90905  0.00000  0.18190
      13     H     0.42279  0.42279  0.00000  0.15442
      14     O     4.17189  4.17189  0.00000 -0.34379
      15     H     0.45549  0.45549  0.00000  0.08901

   Total alpha = 32.00000, Total beta = 32.00000, Total charge = -0.00000
