  ==> Input File <==

--------------------------------------------------------------------------
set {
	reference rhf
	basis cc-pvtz
}

set_num_threads( 4 )
memory 2 gb

molecule MOL {
0 1

H	 2.342730	 0.877684	 -1.045694
C	 2.360424	 0.000000	 -0.411793
C	 1.173749	 0.000000	 0.526870
H	 3.286567	 0.000000	 0.151574
H	 2.342730	 -0.877684	 -1.045694
O	 -0.000000	 0.000000	 -0.223739
H	 1.203779	 0.876757	 1.172538
H	 1.203779	 -0.876757	 1.172538
C	 -1.173749	 0.000000	 0.526870
C	 -2.171025	 -0.939111	 -0.115624
H	 -1.583856	 1.007804	 0.578200
H	 -0.963495	 -0.314660	 1.548277
H	 -2.394376	 -0.621606	 -1.126454
H	 -3.093943	 -0.955098	 0.452785
H	 -1.773358	 -1.945469	 -0.155351

	symmetry c1
}
set optking {
	frozen_dihedral = ("
		11 9 6 3
	")
}

ee = optimize('scf')
oeprop('DIPOLE', 'QUADRUPOLE', 'MULLIKEN_CHARGES')
f=open( 'psi4out.xyz', 'w' )
f.write( "15  " )
f.write( str(ee) + "\n" )
f.write( MOL.save_string_xyz() )
f.close()
--------------------------------------------------------------------------

    Molecular point group: c1
  Charge       = 0
  Multiplicity = 1
  Basis Set: CC-PVTZ
  Basis Set:
  @DF-RHF Final Energy:  -232.23057735771263
    Total Energy =                       -232.2305773577126047
    Molecular point group: c1
  Basis Set: CC-PVTZ
  Basis Set:
  Basis Set: CC-PVTZ
  Basis Set:
  @DF-RHF Final Energy:  -232.23075866400816
    Total Energy =                       -232.2307586640081354
  Basis Set: CC-PVTZ
  Basis Set:
  Basis Set: CC-PVTZ
  Basis Set:
  @DF-RHF Final Energy:  -232.23081380884284
    Total Energy =                       -232.2308138088427540
  Basis Set: CC-PVTZ
  Basis Set:
  Charge       = 0
  Multiplicity = 1
  Basis Set: CC-PVTZ
  Basis Set:

    Orbital Energies (a.u.)
    -----------------------

    Doubly Occupied:

       1A    -20.543058     2A    -11.266855     3A    -11.265893
       4A    -11.206946     5A    -11.206854     6A     -1.377908
       7A     -1.044339     8A     -0.983591     9A     -0.849744
      10A     -0.824292    11A     -0.674893    12A     -0.666097
      13A     -0.623165    14A     -0.584664    15A     -0.550190
      16A     -0.535043    17A     -0.522556    18A     -0.497886
      19A     -0.486797    20A     -0.465565    21A     -0.408909

  @DF-RHF Final Energy:  -232.23081448058014

   => Energetics <=

    Nuclear Repulsion Energy =            191.3551390497958664
    One-Electron Energy =                -694.0014199234549324
    Two-Electron Energy =                 270.4154663930792140
    DFT Exchange-Correlation Energy =       0.0000000000000000
    Empirical Dispersion Energy =           0.0000000000000000
    PCM Polarization Energy =               0.0000000000000000
    EFP Energy =                            0.0000000000000000
    Total Energy =                       -232.2308144805798520
    Molecular point group: c1
  Basis Set: CC-PVTZ
  Basis Set:

  -Total Gradient:
     Atom            X                  Y                   Z
    ------   -----------------  -----------------  -----------------
       1       -0.000008294356    -0.000009473951     0.000012693379
       2        0.000004978953    -0.000009160509     0.000003034035
       3        0.000058271935    -0.002038862602    -0.000000810967
       4        0.000028447564    -0.000003414659    -0.000000849430
       5        0.000001528984     0.000005555321     0.000000799337
       6       -0.000432300107     0.002873597764    -0.000526498656
       7       -0.000012038195    -0.000011926764    -0.000006546619
       8       -0.000019835033     0.000006430123    -0.000015894739
       9        0.001722209117    -0.000384339533     0.002622714232
      10       -0.000001893237     0.000047580823     0.000009724424
      11       -0.001324388836    -0.000472328587    -0.002121264424
      12       -0.000017285275    -0.000005575006     0.000020809922
      13       -0.000008718961    -0.000010789862    -0.000008814367
      14       -0.000008159387     0.000001911237     0.000002205943
      15        0.000017476833     0.000010796207     0.000008697929

  **** Optimization is complete! (in 4 steps) ****
    Final optimized geometry and variables:
    Molecular point group: c1

    Geometry (in Angstrom), charge = 0, multiplicity = 1:

    H            2.293859850411     1.076947694345    -1.119957220837
    C            2.322988570910     0.199657916688    -0.485890857237
    C            1.150230946902     0.196852143070     0.469911228963
    H            3.257344862153     0.202247737753     0.064132547015
    H            2.297840580599    -0.678309811515    -1.119316203201
    O           -0.033167734041     0.185198020439    -0.267104258838
    H            1.188754203581     1.076295740894     1.111486191860
    H            1.194445713747    -0.677486197219     1.117118154437
    C           -1.218918882052     0.178129615909     0.473351393219
    C           -2.222854905592    -0.746896686708    -0.185439320458
    H           -1.626462865199     1.185524739406     0.509655030205
    H           -1.030427187605    -0.141991935482     1.494202872940
    H           -2.402346842362    -0.439857940447    -1.208354762150
    H           -3.166052868135    -0.725785390246     0.349728244398
    H           -1.854978360676    -1.765776896715    -0.197409464151

  Mulliken Charges: (a.u.)
   Center  Symbol    Alpha    Beta     Spin     Total
       1     H     0.45142  0.45142  0.00000  0.09715
       2     C     3.13696  3.13696  0.00000 -0.27392
       3     C     2.96472  2.96472  0.00000  0.07056
       4     H     0.45921  0.45921  0.00000  0.08157
       5     H     0.45175  0.45175  0.00000  0.09649
       6     O     4.18309  4.18309  0.00000 -0.36617
       7     H     0.47298  0.47298  0.00000  0.05405
       8     H     0.47397  0.47397  0.00000  0.05206
       9     C     2.97146  2.97146  0.00000  0.05709
      10     C     3.13397  3.13397  0.00000 -0.26793
      11     H     0.46319  0.46319  0.00000  0.07362
      12     H     0.47245  0.47245  0.00000  0.05510
      13     H     0.45078  0.45078  0.00000  0.09844
      14     H     0.45924  0.45924  0.00000  0.08153
      15     H     0.45482  0.45482  0.00000  0.09036

   Total alpha = 21.00000, Total beta = 21.00000, Total charge = -0.00000
