  ==> Input File <==

--------------------------------------------------------------------------
set {
	reference rhf
	basis 6-31G*
}

set_num_threads( 1 )
memory 2 gb

molecule MOL {
0 1

O	 1.012009	 -3.105512	 -4.316652
C	 0.806176	 -1.945566	 -4.125359
C	 0.545907	 -1.421918	 -2.723803
C	 0.825619	 -0.939100	 -5.254085
C	 1.860773	 -1.272791	 -1.941480
H	 -0.095990	 -2.136230	 -2.219788
H	 0.026522	 -0.468614	 -2.762236
C	 1.631333	 -0.777471	 -0.511575
H	 2.362267	 -2.233970	 -1.936739
H	 2.518879	 -0.577373	 -2.460168
C	 2.915987	 -0.544314	 0.291766
H	 1.001372	 -1.490266	 0.017386
H	 1.071872	 0.154975	 -0.548935
C	 3.373361	 0.914346	 0.347591
H	 3.708709	 -1.142521	 -0.150311
H	 2.780642	 -0.921148	 1.303579
H	 3.506512	 1.320010	 -0.651625
H	 4.322697	 0.999599	 0.867103
H	 2.660624	 1.545032	 0.868198
H	 -0.170900	 -0.528695	 -5.394735
H	 1.150234	 -1.414971	 -6.168938
H	 1.483452	 -0.107986	 -5.016789

	symmetry c1
}
set optking {
	frozen_dihedral = ("
		6 3 2 1,
		6 3 5 8,
		3 5 8 12
	")
}

ee = energy('scf')
oeprop('DIPOLE', 'QUADRUPOLE', 'MULLIKEN_CHARGES')
f=open( 'psi4out.xyz', 'w' )
f.write( "22  " )
f.write( str(ee) + "\n" )
f.write( MOL.save_string_xyz() )
f.close()
--------------------------------------------------------------------------

    Molecular point group: c1

    Geometry (in Angstrom), charge = 0, multiplicity = 1:

       Center              X                  Y                   Z               Mass
    ------------   -----------------  -----------------  -----------------  -----------------
           O         -0.620089885978    -1.978727721018    -2.033729887022    15.994914619560
           C         -0.825922885978    -0.818781721018    -1.842436887022    12.000000000000
           C         -1.086191885978    -0.295133721018    -0.440880887022    12.000000000000
           C         -0.806479885978     0.187684278982    -2.971162887022    12.000000000000
           C          0.228674114022    -0.146006721018     0.341442112978    12.000000000000
           H         -1.728088885978    -1.009445721018     0.063134112978     1.007825032070
           H         -1.605576885978     0.658170278982    -0.479313887022     1.007825032070
           C         -0.000765885978     0.349313278982     1.771347112978    12.000000000000
           H          0.730168114022    -1.107185721018     0.346183112978     1.007825032070
           H          0.886780114022     0.549411278982    -0.177245887022     1.007825032070
           C          1.283888114022     0.582470278982     2.574688112978    12.000000000000
           H         -0.630726885978    -0.363481721018     2.300308112978     1.007825032070
           H         -0.560226885978     1.281759278982     1.733987112978     1.007825032070
           C          1.741262114022     2.041130278982     2.630513112978    12.000000000000
           H          2.076610114022    -0.015736721018     2.132611112978     1.007825032070
           H          1.148543114022     0.205636278982     3.586501112978     1.007825032070
           H          1.874413114022     2.446794278982     1.631297112978     1.007825032070
           H          2.690598114022     2.126383278982     3.150025112978     1.007825032070
           H          1.028525114022     2.671816278982     3.151120112978     1.007825032070
           H         -1.802998885978     0.598089278982    -3.111812887022     1.007825032070
           H         -0.481864885978    -0.288186721018    -3.886015887022     1.007825032070
           H         -0.148646885978     1.018798278982    -2.733866887022     1.007825032070

  Charge       = 0
  Multiplicity = 1
  Basis Set: 6-31G*
  Basis Set:

    Orbital Energies (a.u.)
    -----------------------

    Doubly Occupied:

       1A    -20.547412     2A    -11.324596     3A    -11.230411
       4A    -11.229119     5A    -11.228305     6A    -11.221368
       7A    -11.219701     8A    -11.213783     9A     -1.393168
      10A     -1.095502    11A     -1.044947    12A     -1.000553
      13A     -0.938766    14A     -0.852427    15A     -0.793475
      16A     -0.732711    17A     -0.661055    18A     -0.646602
      19A     -0.626471    20A     -0.616559    21A     -0.598197
      22A     -0.585085    23A     -0.556468    24A     -0.546470
      25A     -0.540202    26A     -0.512687    27A     -0.500921
      28A     -0.490123    29A     -0.470594    30A     -0.462312
      31A     -0.459866    32A     -0.396318

  @DF-RHF Final Energy:  -348.09519191495951

   => Energetics <=

    Nuclear Repulsion Energy =            370.9353997768180307
    One-Electron Energy =               -1206.5890890784430667
    Two-Electron Energy =                 487.5584973866657492
    DFT Exchange-Correlation Energy =       0.0000000000000000
    Empirical Dispersion Energy =           0.0000000000000000
    PCM Polarization Energy =               0.0000000000000000
    EFP Energy =                            0.0000000000000000
    Total Energy =                       -348.0951919149592868

  Mulliken Charges: (a.u.)
   Center  Symbol    Alpha    Beta     Spin     Total
       1     O     4.26237  4.26237  0.00000 -0.52473
       2     C     2.73727  2.73727  0.00000  0.52547
       3     C     3.20049  3.20049  0.00000 -0.40098
       4     C     3.28953  3.28953  0.00000 -0.57907
       5     C     3.16376  3.16376  0.00000 -0.32752
       6     H     0.40109  0.40109  0.00000  0.19781
       7     H     0.41675  0.41675  0.00000  0.16650
       8     C     3.15413  3.15413  0.00000 -0.30825
       9     H     0.40482  0.40482  0.00000  0.19036
      10     H     0.42076  0.42076  0.00000  0.15847
      11     C     3.15583  3.15583  0.00000 -0.31165
      12     H     0.41768  0.41768  0.00000  0.16465
      13     H     0.42201  0.42201  0.00000  0.15598
      14     C     3.24028  3.24028  0.00000 -0.48056
      15     H     0.41943  0.41943  0.00000  0.16113
      16     H     0.41831  0.41831  0.00000  0.16338
      17     H     0.42299  0.42299  0.00000  0.15403
      18     H     0.41838  0.41838  0.00000  0.16325
      19     H     0.42044  0.42044  0.00000  0.15913
      20     H     0.40688  0.40688  0.00000  0.18623
      21     H     0.39705  0.39705  0.00000  0.20589
      22     H     0.40976  0.40976  0.00000  0.18049

   Total alpha = 32.00000, Total beta = 32.00000, Total charge =  0.00000
