  ==> Input File <==

--------------------------------------------------------------------------
set {
	reference rhf
	basis 6-31G*
}

set_num_threads( 4 )
memory 2 gb

molecule MOL {
0 1

H	 -3.443322	 -0.969594	 -0.226337
O	 -3.517110	 -0.026191	 -0.205115
C	 -2.306886	 0.532354	 0.237577
C	 -1.177863	 -0.397191	 -0.171080
H	 -2.156308	 1.517575	 -0.201710
H	 -2.315015	 0.655684	 1.319734
C	 0.198102	 0.111031	 0.262842
H	 -1.208843	 -0.518759	 -1.250427
H	 -1.368741	 -1.376554	 0.258909
C	 1.331804	 -0.827780	 -0.158768
H	 0.361943	 1.100838	 -0.156218
H	 0.217265	 0.229072	 1.345532
C	 2.723619	 -0.410569	 0.329459
H	 1.342964	 -0.912588	 -1.244120
H	 1.116806	 -1.824343	 0.220779
C	 3.243875	 0.895854	 -0.272975
H	 3.424222	 -1.207124	 0.091250
H	 2.714788	 -0.329854	 1.414619
H	 3.251977	 0.848779	 -1.358681
H	 2.637085	 1.747371	 0.016682
H	 4.259473	 1.094070	 0.055697

	symmetry c1
}
set optking {
	frozen_dihedral = ("
		1 2 3 5
	")
}

ee = optimize('scf')
oeprop('DIPOLE', 'QUADRUPOLE', 'MULLIKEN_CHARGES')
f=open( 'psi4out.xyz', 'w' )
f.write( "21  " )
f.write( str(ee) + "\n" )
f.write( MOL.save_string_xyz() )
f.close()
--------------------------------------------------------------------------

    Molecular point group: c1
  Charge       = 0
  Multiplicity = 1
  Basis Set: 6-31G*
  Basis Set:
  @DF-RHF Final Energy:  -310.20951457158276
    Total Energy =                       -310.2095145715828153
    Molecular point group: c1
  Basis Set: 6-31G*
  Basis Set:
  Basis Set: 6-31G*
  Basis Set:
  @DF-RHF Final Energy:  -310.21094674284546
    Total Energy =                       -310.2109467428457492
  Basis Set: 6-31G*
  Basis Set:
  Basis Set: 6-31G*
  Basis Set:
  @DF-RHF Final Energy:  -310.21135859921549
    Total Energy =                       -310.2113585992157141
  Basis Set: 6-31G*
  Basis Set:
  Basis Set: 6-31G*
  Basis Set:
  @DF-RHF Final Energy:  -310.21136387010523
    Total Energy =                       -310.2113638701052309
  Basis Set: 6-31G*
  Basis Set:
  Basis Set: 6-31G*
  Basis Set:
  @DF-RHF Final Energy:  -310.21136093527366
    Total Energy =                       -310.2113609352738308
  Basis Set: 6-31G*
  Basis Set:
  Basis Set: 6-31G*
  Basis Set:
  @DF-RHF Final Energy:  -310.21136518626849
    Total Energy =                       -310.2113651862688926
  Basis Set: 6-31G*
  Basis Set:
  Charge       = 0
  Multiplicity = 1
  Basis Set: 6-31G*
  Basis Set:

    Orbital Energies (a.u.)
    -----------------------

    Doubly Occupied:

       1A    -20.549911     2A    -11.266207     3A    -11.222719
       4A    -11.222080     5A    -11.219506     6A    -11.218873
       7A    -11.211162     8A     -1.357254     9A     -1.091910
      10A     -1.037136    11A     -0.956617    12A     -0.881059
      13A     -0.824797    14A     -0.783494    15A     -0.677640
      16A     -0.655699    17A     -0.624013    18A     -0.615615
      19A     -0.594313    20A     -0.577267    21A     -0.542429
      22A     -0.534688    23A     -0.507675    24A     -0.492179
      25A     -0.489828    26A     -0.466427    27A     -0.461068
      28A     -0.448096    29A     -0.427350

  @DF-RHF Final Energy:  -310.21136504488038

   => Energetics <=

    Nuclear Repulsion Energy =            312.4246135747160906
    One-Electron Energy =               -1039.3579365022674210
    Two-Electron Energy =                 416.7219578826710062
    DFT Exchange-Correlation Energy =       0.0000000000000000
    Empirical Dispersion Energy =           0.0000000000000000
    PCM Polarization Energy =               0.0000000000000000
    EFP Energy =                            0.0000000000000000
    Total Energy =                       -310.2113650448803241
    Molecular point group: c1
  Basis Set: 6-31G*
  Basis Set:

  -Total Gradient:
     Atom            X                  Y                   Z
    ------   -----------------  -----------------  -----------------
       1        0.000662044929     0.000106295932    -0.002132434251
       2       -0.000712609967    -0.000374390908     0.002244933725
       3       -0.000862093314     0.001061462061     0.001380156958
       4        0.000046054698     0.000029976357    -0.000009732998
       5        0.000865430674    -0.000815943736    -0.001507762712
       6        0.000031880447     0.000009115268     0.000004151324
       7        0.000010594575    -0.000008396390     0.000016534797
       8       -0.000000526526    -0.000005909036    -0.000001472836
       9       -0.000003027096     0.000008106179     0.000014649262
      10        0.000010724105    -0.000011828249    -0.000015930514
      11        0.000001161869     0.000008891613     0.000004137617
      12       -0.000013373556    -0.000008278473     0.000008467242
      13       -0.000015143651     0.000016465110    -0.000005613130
      14       -0.000006366007    -0.000008592912    -0.000004406576
      15        0.000011422355    -0.000001938477     0.000008252877
      16       -0.000000220892    -0.000002665512    -0.000002541055
      17       -0.000012317406    -0.000003348668    -0.000004439498
      18       -0.000004629448     0.000000405149     0.000001810700
      19       -0.000002714533     0.000001078796    -0.000000533373
      20       -0.000008673005     0.000000510445     0.000003396639
      21        0.000002381751    -0.000001014552    -0.000001624194

  **** Optimization is complete! (in 7 steps) ****
    Final optimized geometry and variables:
    Molecular point group: c1

    Geometry (in Angstrom), charge = 0, multiplicity = 1:

    H           -3.566740443910    -0.885401491640    -0.244844976180
    O           -3.568223050946     0.059736003094    -0.195854117750
    C           -2.312870070233     0.515351469865     0.241511656174
    C           -1.172897568136    -0.407994692334    -0.171890314142
    H           -2.166508242989     1.490933208007    -0.206878257035
    H           -2.317366637009     0.642303709798     1.322147128032
    C            0.200330970018     0.105488999845     0.264846580640
    H           -1.198357402742    -0.527595042205    -1.252678210314
    H           -1.341936500227    -1.395890113141     0.257755061598
    C            1.341091955112    -0.826094716965    -0.153451740395
    H            0.356145784533     1.095596930526    -0.155203924320
    H            0.213795489090     0.224806880939     1.347012288059
    C            2.729117481614    -0.394064101931     0.332698575068
    H            1.352905605876    -0.915305540453    -1.238456056259
    H            1.135443829034    -1.822997431772     0.230935780900
    C            3.237085807627     0.914327535386    -0.275815399492
    H            3.436356760586    -1.185530426597     0.097588697040
    H            2.719627044800    -0.308902327522     1.417435177636
    H            3.244642081512     0.862827803175    -1.361287681890
    H            2.623545587464     1.761870198772     0.011101007032
    H            4.251155203645     1.122392415273     0.051094044299

  Mulliken Charges: (a.u.)
   Center  Symbol    Alpha    Beta     Spin     Total
       1     H     0.28166  0.28166  0.00000  0.43668
       2     O     4.37615  4.37615  0.00000 -0.75231
       3     C     2.97371  2.97371  0.00000  0.05258
       4     C     3.18216  3.18216  0.00000 -0.36431
       5     H     0.42033  0.42033  0.00000  0.15934
       6     H     0.43000  0.43000  0.00000  0.14000
       7     C     3.16008  3.16008  0.00000 -0.32016
       8     H     0.41530  0.41530  0.00000  0.16939
       9     H     0.42655  0.42655  0.00000  0.14690
      10     C     3.15222  3.15222  0.00000 -0.30445
      11     H     0.41824  0.41824  0.00000  0.16352
      12     H     0.42160  0.42160  0.00000  0.15680
      13     C     3.15282  3.15282  0.00000 -0.30563
      14     H     0.42275  0.42275  0.00000  0.15449
      15     H     0.42189  0.42189  0.00000  0.15621
      16     C     3.24159  3.24159  0.00000 -0.48319
      17     H     0.42008  0.42008  0.00000  0.15983
      18     H     0.42283  0.42283  0.00000  0.15433
      19     H     0.42169  0.42169  0.00000  0.15661
      20     H     0.41994  0.41994  0.00000  0.16012
      21     H     0.41839  0.41839  0.00000  0.16323

   Total alpha = 29.00000, Total beta = 29.00000, Total charge = -0.00000
