  ==> Input File <==

--------------------------------------------------------------------------
set {
	reference rhf
	basis cc-pvtz
}

set_num_threads( 4 )
memory 2 gb

molecule MOL {
0 1

H	 3.085854	 0.516200	 -0.891978
N	 2.264718	 -0.050549	 -0.881013
C	 1.263552	 0.494993	 0.021953
H	 2.542393	 -0.965925	 -0.594097
C	 -0.016533	 -0.325589	 -0.026925
H	 1.049682	 1.510301	 -0.294913
H	 1.611230	 0.556075	 1.054122
C	 -1.280353	 0.525521	 0.047747
H	 -0.016686	 -0.912532	 -0.939714
H	 -0.014099	 -1.037598	 0.796369
C	 -2.560681	 -0.301323	 -0.007747
H	 -1.279957	 1.241025	 -0.770189
H	 -1.270445	 1.110526	 0.963468
H	 -2.617064	 -0.872870	 -0.928010
H	 -3.439525	 0.331102	 0.043462
H	 -2.609427	 -1.002736	 0.818585

	symmetry c1
}
set optking {
	frozen_dihedral = ("
		6 3 5 9
	")
}

ee = optimize('scf')
oeprop('DIPOLE', 'QUADRUPOLE', 'MULLIKEN_CHARGES')
f=open( 'psi4out.xyz', 'w' )
f.write( "16  " )
f.write( str(ee) + "\n" )
f.write( MOL.save_string_xyz() )
f.close()
--------------------------------------------------------------------------

    Molecular point group: c1
  Charge       = 0
  Multiplicity = 1
  Basis Set: CC-PVTZ
  Basis Set:
  @DF-RHF Final Energy:  -212.39609680106139
    Total Energy =                       -212.3960968010611055
    Molecular point group: c1
  Basis Set: CC-PVTZ
  Basis Set:
  Basis Set: CC-PVTZ
  Basis Set:
  @DF-RHF Final Energy:  -212.39639661679962
    Total Energy =                       -212.3963966167996205
  Basis Set: CC-PVTZ
  Basis Set:
  Basis Set: CC-PVTZ
  Basis Set:
  @DF-RHF Final Energy:  -212.39646164338191
    Total Energy =                       -212.3964616433819401
  Basis Set: CC-PVTZ
  Basis Set:
  Basis Set: CC-PVTZ
  Basis Set:
  @DF-RHF Final Energy:  -212.39646383747009
    Total Energy =                       -212.3964638374702076
  Basis Set: CC-PVTZ
  Basis Set:
  Charge       = 0
  Multiplicity = 1
  Basis Set: CC-PVTZ
  Basis Set:

    Orbital Energies (a.u.)
    -----------------------

    Doubly Occupied:

       1A    -15.527476     2A    -11.238007     3A    -11.213000
       4A    -11.207804     5A    -11.205407     6A     -1.178160
       7A     -1.060094     8A     -0.958587     9A     -0.844883
      10A     -0.793523    11A     -0.655427    12A     -0.648589
      13A     -0.597958    14A     -0.578674    15A     -0.572080
      16A     -0.518196    17A     -0.503736    18A     -0.468604
      19A     -0.465302    20A     -0.462201    21A     -0.382834

  @DF-RHF Final Energy:  -212.39646405190206

   => Energetics <=

    Nuclear Repulsion Energy =            186.4484452730754356
    One-Electron Energy =                -655.5287350532482833
    Two-Electron Energy =                 256.6838257282707332
    DFT Exchange-Correlation Energy =       0.0000000000000000
    Empirical Dispersion Energy =           0.0000000000000000
    PCM Polarization Energy =               0.0000000000000000
    EFP Energy =                            0.0000000000000000
    Total Energy =                       -212.3964640519021145
    Molecular point group: c1
  Basis Set: CC-PVTZ
  Basis Set:

  -Total Gradient:
     Atom            X                  Y                   Z
    ------   -----------------  -----------------  -----------------
       1        0.000037523734     0.000001856589    -0.000011404193
       2       -0.000030215087     0.000034008203     0.000025427457
       3        0.001542876964    -0.002052393516    -0.004733203622
       4        0.000011488472    -0.000018838499     0.000007806599
       5       -0.002644302157     0.004332308375    -0.001530224703
       6       -0.000909197156     0.001054941939     0.004149188692
       7        0.000016431425    -0.000005425218     0.000017514183
       8        0.000024361942    -0.000033694898     0.000028577117
       9        0.001967020852    -0.003308710804     0.002047333547
      10       -0.000007050003    -0.000007158949     0.000007508387
      11       -0.000016975682     0.000014331093    -0.000013761428
      12        0.000007233188    -0.000008777891     0.000007492838
      13        0.000008323785    -0.000004235935     0.000002338588
      14        0.000000485423    -0.000001435722     0.000002771059
      15       -0.000013939708    -0.000006842532    -0.000006034841
      16        0.000005934009     0.000010067764    -0.000001329680

  **** Optimization is complete! (in 5 steps) ****
    Final optimized geometry and variables:
    Molecular point group: c1

    Geometry (in Angstrom), charge = 0, multiplicity = 1:

    H            3.172994766525     0.427385335625    -0.612420754790
    N            2.332943638694    -0.107496253154    -0.681394408509
    C            1.296853767822     0.438552764851     0.180766918794
    H            2.560220021623    -1.042437156711    -0.412169730478
    C            0.004341762556    -0.379861706610     0.100867486108
    H            1.099813801264     1.462314261412    -0.117769546996
    H            1.609672966055     0.498906650226     1.224081333119
    C           -1.262450990144     0.461833336297     0.205658676588
    H            0.011431066962    -0.949458157428    -0.822618329487
    H            0.001727732865    -1.120927135120     0.897388778057
    C           -2.538266331444    -0.372853595996     0.202506697960
    H           -1.289300527528     1.166682836836    -0.620239308634
    H           -1.224542337114     1.057740646519     1.114254358020
    H           -2.616499842689    -0.961462138971    -0.705445071566
    H           -3.419185628262     0.255562776624     0.266467334207
    H           -2.559690332911    -1.059008224988     1.042675721305

  Mulliken Charges: (a.u.)
   Center  Symbol    Alpha    Beta     Spin     Total
       1     H     0.43078  0.43078  0.00000  0.13844
       2     N     3.68507  3.68507  0.00000 -0.37015
       3     C     3.02740  3.02740  0.00000 -0.05481
       4     H     0.43103  0.43103  0.00000  0.13793
       5     C     3.08617  3.08617  0.00000 -0.17234
       6     H     0.45964  0.45964  0.00000  0.08071
       7     H     0.46799  0.46799  0.00000  0.06402
       8     C     3.08620  3.08620  0.00000 -0.17241
       9     H     0.45080  0.45080  0.00000  0.09840
      10     H     0.45802  0.45802  0.00000  0.08395
      11     C     3.15003  3.15003  0.00000 -0.30006
      12     H     0.45248  0.45248  0.00000  0.09503
      13     H     0.45562  0.45562  0.00000  0.08876
      14     H     0.45408  0.45408  0.00000  0.09184
      15     H     0.44889  0.44889  0.00000  0.10221
      16     H     0.45576  0.45576  0.00000  0.08847

   Total alpha = 21.00000, Total beta = 21.00000, Total charge = -0.00000
