                              Psi4 1.0.54 Driver

  ==> Input File <==

--------------------------------------------------------------------------
set {
	reference rhf
	basis cc-pvtz
}

set_num_threads( 4 )
memory 2 gb

molecule MOL {
0 1

H	 3.721907	 -0.933076	 -0.066039
O	 2.824271	 -1.154299	 0.131461
C	 2.076458	 -0.067370	 -0.038225
C	 0.626018	 -0.337582	 0.258241
O	 2.538288	 0.965419	 -0.381593
C	 -0.267326	 0.883135	 0.076490
H	 0.325620	 -1.161483	 -0.378003
H	 0.574537	 -0.713685	 1.275261
C	 -1.726822	 0.642622	 0.463839
H	 -0.210803	 1.217591	 -0.953497
H	 0.129920	 1.693110	 0.675679
C	 -2.480891	 -0.340606	 -0.429852
H	 -2.243098	 1.597649	 0.438609
H	 -1.776542	 0.301208	 1.495542
C	 -3.372503	 -1.291613	 0.362038
H	 -3.088225	 0.215841	 -1.138756
H	 -1.780840	 -0.924355	 -1.019021
H	 -3.897009	 -1.976127	 -0.294481
H	 -4.115620	 -0.746045	 0.933730
H	 -2.789874	 -1.883898	 1.059818

	symmetry c1
}
set optking {
	frozen_dihedral = ("
		16 12 9 6
	")
}

ee,wfn = optimize('scf', return_wfn=True)
oeprop( wfn, 'DIPOLE', 'QUADRUPOLE', 'MULLIKEN_CHARGES')
f=open( 'psi4out.xyz', 'w' )
f.write( "20  " )
f.write( str(ee) + "\n" )
f.write( MOL.save_string_xyz() )
f.close()
--------------------------------------------------------------------------

    Molecular point group: c1
  Charge       = 0
  Multiplicity = 1
  Basis Set: CC-PVTZ
  Basis Set:
  @DF-RHF Final Energy:  -384.09015955821667
    Total Energy =                       -384.0901595582167261
    Molecular point group: c1
  Basis Set: CC-PVTZ
  Basis Set:
  Basis Set: CC-PVTZ
  Basis Set:
  @DF-RHF Final Energy:  -384.08892260203982
    Total Energy =                       -384.0889226020399292
  Basis Set: CC-PVTZ
  Basis Set:
  Basis Set: CC-PVTZ
  Basis Set:
  @DF-RHF Final Energy:  -384.09048240967422
    Total Energy =                       -384.0904824096732000
  Basis Set: CC-PVTZ
  Basis Set:
  Basis Set: CC-PVTZ
  Basis Set:
  @DF-RHF Final Energy:  -384.09060169979222
    Total Energy =                       -384.0906016997922734
  Basis Set: CC-PVTZ
  Basis Set:
  Basis Set: CC-PVTZ
  Basis Set:
  @DF-RHF Final Energy:  -384.09067619759549
    Total Energy =                       -384.0906761975952008
  Basis Set: CC-PVTZ
  Basis Set:
  Basis Set: CC-PVTZ
  Basis Set:
  @DF-RHF Final Energy:  -384.09065140614990
    Total Energy =                       -384.0906514061497319
  Basis Set: CC-PVTZ
  Basis Set:
  Basis Set: CC-PVTZ
  Basis Set:
  @DF-RHF Final Energy:  -384.09068210937915
    Total Energy =                       -384.0906821093794292
  Basis Set: CC-PVTZ
  Basis Set:
  Charge       = 0
  Multiplicity = 1
  Basis Set: CC-PVTZ
  Basis Set:

    Orbital Energies (a.u.)
    -----------------------

    Doubly Occupied:

       1A    -20.604051     2A    -20.540653     3A    -11.373634
       4A    -11.239015     5A    -11.221324     6A    -11.218659
       7A    -11.218076     8A    -11.211182     9A     -1.477649
      10A     -1.369166    11A     -1.096836    12A     -1.040949
      13A     -0.962773    14A     -0.870632    15A     -0.815940
      16A     -0.780626    17A     -0.703837    18A     -0.693845
      19A     -0.666859    20A     -0.631623    21A     -0.608373
      22A     -0.595554    23A     -0.583137    24A     -0.554437
      25A     -0.538239    26A     -0.511059    27A     -0.502840
      28A     -0.484650    29A     -0.470128    30A     -0.465304
      31A     -0.457086    32A     -0.446447

  @DF-RHF Final Energy:  -384.09068221424297

   => Energetics <=

    Nuclear Repulsion Energy =            378.4251237947179334
    One-Electron Energy =               -1273.1224423433259290
    Two-Electron Energy =                 510.6066363343643957
    DFT Exchange-Correlation Energy =       0.0000000000000000
    Empirical Dispersion Energy =           0.0000000000000000
    PCM Polarization Energy =               0.0000000000000000
    EFP Energy =                            0.0000000000000000
    Total Energy =                       -384.0906822142435999
    Molecular point group: c1
  Basis Set: CC-PVTZ
  Basis Set:

  -Total Gradient:
     Atom            X                  Y                   Z
    ------   -----------------  -----------------  -----------------
       1       -0.000014388770     0.000006411167     0.000001989128
       2       -0.000012596785    -0.000002355329    -0.000014755666
       3        0.000035952858     0.000027563418     0.000019321990
       4       -0.000011639606    -0.000010083448    -0.000025920695
       5       -0.000026271240    -0.000028910493     0.000012150604
       6        0.000679454120    -0.001684623819     0.001521478181
       7        0.000005560738     0.000010023797     0.000011339264
       8        0.000008330340     0.000007697975    -0.000010823786
       9       -0.001487572219     0.002462982565    -0.001617327677
      10       -0.000009725687    -0.000006669846     0.000009162999
      11       -0.000000674975    -0.000008986480    -0.000007644072
      12        0.003191374233    -0.000900644953    -0.001996800624
      13        0.000014499807    -0.000001422597     0.000017174778
      14        0.000023827983     0.000007187637    -0.000020223249
      15       -0.000015412943    -0.000010474021    -0.000016170644
      16       -0.002370627867     0.000125081830     0.002126270659
      17       -0.000018185669    -0.000004819788    -0.000003164180
      18        0.000005182413    -0.000002414103     0.000008975317
      19        0.000001202270    -0.000000617861    -0.000010900891
      20        0.000001711008     0.000015074346    -0.000004131435

  **** Optimization is complete! (in 8 steps) ****
    Final optimized geometry and variables:
    Molecular point group: c1

    Geometry (in Angstrom), charge = 0, multiplicity = 1:

    H            3.628276839499    -0.909558900082    -0.095719876835
    O            2.744372507718    -1.062481960438     0.202685215691
    C            1.999165969922    -0.013831536606    -0.135560612407
    C            0.570647974326    -0.180011963611     0.307298307383
    O            2.446815176145     0.915167525558    -0.713830533777
    C           -0.318947307815     1.004228649981    -0.048242969884
    H            0.212434001008    -1.105778026939    -0.128161621014
    H            0.587912248006    -0.345929907421     1.379673644124
    C           -1.771988680158     0.815585538211     0.392304776077
    H           -0.274022288710     1.181078342389    -1.117101358444
    H            0.087843698130     1.893009780145     0.418863137300
    C           -2.567501399001    -0.216402610169    -0.429928749294
    H           -2.277178867810     1.773567523702     0.349180601138
    H           -1.778473413143     0.525075059558     1.439807844579
    C           -3.483089473098    -1.089548278214     0.424772061176
    H           -3.182324419386     0.305120011297    -1.155725793707
    H           -1.897041132057    -0.853455988740    -0.995710132426
    H           -4.058780255196    -1.773969228621    -0.187878567156
    H           -4.183064918266    -0.482984455471     0.989967774700
    H           -2.912066023608    -1.678608153933     1.134914981206

  Mulliken Charges: (a.u.)
   Center  Symbol    Alpha    Beta     Spin     Total
       1     H     0.38238  0.38238  0.00000  0.23523
       2     O     4.16045  4.16045  0.00000 -0.32090
       3     C     2.80339  2.80339  0.00000  0.39323
       4     C     3.11199  3.11199  0.00000 -0.22398
       5     O     4.19092  4.19092  0.00000 -0.38185
       6     C     3.09113  3.09113  0.00000 -0.18225
       7     H     0.43760  0.43760  0.00000  0.12480
       8     H     0.43735  0.43735  0.00000  0.12530
       9     C     3.10265  3.10265  0.00000 -0.20529
      10     H     0.44452  0.44452  0.00000  0.11096
      11     H     0.44091  0.44091  0.00000  0.11818
      12     C     3.09262  3.09262  0.00000 -0.18523
      13     H     0.44224  0.44224  0.00000  0.11552
      14     H     0.45640  0.45640  0.00000  0.08721
      15     C     3.14705  3.14705  0.00000 -0.29410
      16     H     0.44656  0.44656  0.00000  0.10688
      17     H     0.45343  0.45343  0.00000  0.09313
      18     H     0.44856  0.44856  0.00000  0.10287
      19     H     0.45356  0.45356  0.00000  0.09288
      20     H     0.45630  0.45630  0.00000  0.08741

   Total alpha = 32.00000, Total beta = 32.00000, Total charge =  0.00000

*** Psi4 exiting successfully. Buy a developer a beer!
