                              Psi4 1.0.54 Driver

  ==> Input File <==

--------------------------------------------------------------------------
set {
	reference rhf
	basis cc-pvtz
}

set_num_threads( 4 )
memory 2 gb

molecule MOL {
0 1

H	 3.788820	 0.128930	 0.544406
N	 3.091268	 -0.241216	 -0.065538
C	 1.860978	 0.530248	 0.016256
H	 2.935857	 -1.189621	 0.205984
C	 0.644130	 -0.381765	 -0.031064
H	 1.835721	 1.204666	 -0.833114
H	 1.808789	 1.151975	 0.911067
C	 -0.678115	 0.376691	 0.025731
H	 0.693998	 -0.977147	 -0.936845
H	 0.693309	 -1.082142	 0.800523
C	 -1.900706	 -0.535531	 -0.022488
H	 -0.725296	 1.079516	 -0.802982
H	 -0.715474	 0.974884	 0.933278
C	 -3.220513	 0.226854	 0.028039
H	 -1.865036	 -1.134397	 -0.928236
H	 -1.857948	 -1.236381	 0.806820
H	 -3.309098	 0.911849	 -0.808725
H	 -4.066838	 -0.449485	 -0.008086
H	 -3.301685	 0.809374	 0.939860

	symmetry c1
}
set optking {
	frozen_dihedral = ("
		1 2 3 6
	")
}

ee,wfn = optimize('scf', return_wfn=True)
oeprop( wfn, 'DIPOLE', 'QUADRUPOLE', 'MULLIKEN_CHARGES')
f=open( 'psi4out.xyz', 'w' )
f.write( "19  " )
f.write( str(ee) + "\n" )
f.write( MOL.save_string_xyz() )
f.close()
--------------------------------------------------------------------------

    Molecular point group: c1
  Charge       = 0
  Multiplicity = 1
  Basis Set: CC-PVTZ
  Basis Set:
  @DF-RHF Final Energy:  -251.44488705366643
    Total Energy =                       -251.4448870536664344
    Molecular point group: c1
  Basis Set: CC-PVTZ
  Basis Set:
  Basis Set: CC-PVTZ
  Basis Set:
  @DF-RHF Final Energy:  -251.44503922700397
    Total Energy =                       -251.4450392270041448
  Basis Set: CC-PVTZ
  Basis Set:
  Basis Set: CC-PVTZ
  Basis Set:
  @DF-RHF Final Energy:  -251.44517519196143
    Total Energy =                       -251.4451751919614253
  Basis Set: CC-PVTZ
  Basis Set:
  Basis Set: CC-PVTZ
  Basis Set:
  @DF-RHF Final Energy:  -251.44517776337295
    Total Energy =                       -251.4451777633730671
  Basis Set: CC-PVTZ
  Basis Set:
  Charge       = 0
  Multiplicity = 1
  Basis Set: CC-PVTZ
  Basis Set:

    Orbital Energies (a.u.)
    -----------------------

    Doubly Occupied:

       1A    -15.524646     2A    -11.237607     3A    -11.214159
       4A    -11.213427     5A    -11.212809     6A    -11.207031
       7A     -1.176574     8A     -1.076583     9A     -1.001342
      10A     -0.902082    11A     -0.817182    12A     -0.793311
      13A     -0.659865    14A     -0.647527    15A     -0.612479
      16A     -0.597516    17A     -0.565475    18A     -0.545195
      19A     -0.539460    20A     -0.496297    21A     -0.487901
      22A     -0.467796    23A     -0.464652    24A     -0.451816
      25A     -0.382171

  @DF-RHF Final Energy:  -251.44517810445831

   => Energetics <=

    Nuclear Repulsion Energy =            246.1680342935964632
    One-Electron Energy =                -826.6366292994387095
    Two-Electron Energy =                 329.0234169013841097
    DFT Exchange-Correlation Energy =       0.0000000000000000
    Empirical Dispersion Energy =           0.0000000000000000
    PCM Polarization Energy =               0.0000000000000000
    EFP Energy =                            0.0000000000000000
    Total Energy =                       -251.4451781044580798
    Molecular point group: c1
  Basis Set: CC-PVTZ
  Basis Set:

  -Total Gradient:
     Atom            X                  Y                   Z
    ------   -----------------  -----------------  -----------------
       1       -0.000848773192    -0.001913459125     0.001936401148
       2        0.000743060324     0.002015034077    -0.002798620922
       3        0.001248113959     0.001658581604     0.002443980564
       4       -0.000003191800    -0.000017274495    -0.000020731010
       5        0.000011658622    -0.000008670816     0.000009363243
       6       -0.001127242346    -0.001728507159    -0.001560984516
       7       -0.000015714369     0.000010895260    -0.000009613097
       8        0.000012370675     0.000013717994     0.000014781252
       9       -0.000002373545    -0.000011673536    -0.000004960657
      10       -0.000009404341    -0.000010455413    -0.000001598791
      11       -0.000002403914    -0.000009721561    -0.000020855101
      12        0.000006399954     0.000001975288     0.000004679419
      13       -0.000002714645     0.000007906765     0.000001896536
      14        0.000001458085    -0.000004265845     0.000013443407
      15       -0.000000097075    -0.000009761883    -0.000000823261
      16       -0.000009842746     0.000004327291    -0.000003240022
      17        0.000001856923    -0.000003724360    -0.000001625465
      18       -0.000000028566     0.000001787769    -0.000001157329
      19       -0.000003132003     0.000003288144    -0.000000335397

  **** Optimization is complete! (in 5 steps) ****
    Final optimized geometry and variables:
    Molecular point group: c1

    Geometry (in Angstrom), charge = 0, multiplicity = 1:

    H            3.799684360258     0.216240949587     0.606692787314
    N            3.112201083926    -0.123883129131    -0.030413199784
    C            1.844792129240     0.585979305098     0.123120553599
    H            2.998298261758    -1.093999350788     0.174711003536
    C            0.656934874212    -0.357233747831    -0.012786112938
    H            1.769863409394     1.337556808493    -0.656481163465
    H            1.781942337145     1.102874014181     1.077807687481
    C           -0.688956371480     0.359025021260     0.029295288758
    H            0.750926382548    -0.901181825855    -0.949138077504
    H            0.697368719140    -1.098285516513     0.782963697635
    C           -1.880586554458    -0.585398764543    -0.102529604954
    H           -0.728250983636     1.096806905607    -0.768127964774
    H           -0.774253344737     0.913297180845     0.961085445340
    C           -3.223694608384     0.135720065826    -0.063150999832
    H           -1.796804450158    -1.140040984907    -1.033018729496
    H           -1.844456026758    -1.322378182242     0.695143621541
    H           -3.305098559045     0.855518314940    -0.870830241007
    H           -4.047385090323    -0.562386452983    -0.158702598340
    H           -3.352394979486     0.673017372607     0.870649492380

  Mulliken Charges: (a.u.)
   Center  Symbol    Alpha    Beta     Spin     Total
       1     H     0.43101  0.43101  0.00000  0.13798
       2     N     3.68904  3.68904  0.00000 -0.37808
       3     C     3.01780  3.01780  0.00000 -0.03560
       4     H     0.43208  0.43208  0.00000  0.13584
       5     C     3.08881  3.08881  0.00000 -0.17762
       6     H     0.46279  0.46279  0.00000  0.07442
       7     H     0.46615  0.46615  0.00000  0.06770
       8     C     3.09287  3.09287  0.00000 -0.18573
       9     H     0.44992  0.44992  0.00000  0.10016
      10     H     0.45936  0.45936  0.00000  0.08128
      11     C     3.08343  3.08343  0.00000 -0.16686
      12     H     0.45346  0.45346  0.00000  0.09308
      13     H     0.45569  0.45569  0.00000  0.08861
      14     C     3.15005  3.15005  0.00000 -0.30011
      15     H     0.45402  0.45402  0.00000  0.09197
      16     H     0.45494  0.45494  0.00000  0.09011
      17     H     0.45482  0.45482  0.00000  0.09037
      18     H     0.44840  0.44840  0.00000  0.10320
      19     H     0.45536  0.45536  0.00000  0.08927

   Total alpha = 25.00000, Total beta = 25.00000, Total charge = -0.00000

*** Psi4 exiting successfully. Buy a developer a beer!
