  ==> Input File <==

--------------------------------------------------------------------------
set {
	reference rhf
	basis cc-pvtz
}

set_num_threads( 4 )
memory 2 gb

molecule MOL {
0 1

H	 1.406810	 1.291171	 3.074091
O	 1.978124	 1.325648	 2.327677
C	 1.348791	 0.929911	 1.207001
C	 2.079506	 0.932611	 0.027523
C	 0.029104	 0.531497	 1.199974
H	 3.104253	 1.246102	 0.055351
C	 1.487975	 0.537709	 -1.150397
H	 -0.557981	 0.519580	 2.094673
C	 -0.532034	 0.141680	 0.000000
H	 2.060461	 0.543036	 -2.057028
C	 0.163839	 0.133287	 -1.182782
N	 -1.937041	 -0.281114	 0.000000
H	 -0.308488	 -0.175801	 -2.089476
O	 -2.159542	 -1.446261	 0.000000
O	 -2.764978	 0.565773	 0.000000

	symmetry c1
}
set optking {
	frozen_dihedral = ("
		11 9 12 14
	")
}

ee = optimize('scf')
oeprop('DIPOLE', 'QUADRUPOLE', 'MULLIKEN_CHARGES')
f=open( 'psi4out.xyz', 'w' )
f.write( "15  " )
f.write( str(ee) + "\n" )
f.write( MOL.save_string_xyz() )
f.close()
--------------------------------------------------------------------------

    Molecular point group: c1
  Charge       = 0
  Multiplicity = 1
  Basis Set: CC-PVTZ
  Basis Set:
  @DF-RHF Final Energy:  -509.20967219416417
    Total Energy =                       -509.2096721941638862
    Molecular point group: c1
  Basis Set: CC-PVTZ
  Basis Set:
  Basis Set: CC-PVTZ
  Basis Set:
  @DF-RHF Final Energy:  -509.20460040437109
    Total Energy =                       -509.2046004043711491
  Basis Set: CC-PVTZ
  Basis Set:
  Basis Set: CC-PVTZ
  Basis Set:
  @DF-RHF Final Energy:  -509.20951892943907
    Total Energy =                       -509.2095189294393549
  Basis Set: CC-PVTZ
  Basis Set:
  Basis Set: CC-PVTZ
  Basis Set:
  @DF-RHF Final Energy:  -509.20996907184383
    Total Energy =                       -509.2099690718439433
  Basis Set: CC-PVTZ
  Basis Set:
  Charge       = 0
  Multiplicity = 1
  Basis Set: CC-PVTZ
  Basis Set:

    Orbital Energies (a.u.)
    -----------------------

    Doubly Occupied:

       1A    -20.610630     2A    -20.601094     3A    -20.600840
       4A    -15.851043     5A    -11.330830     6A    -11.314915
       7A    -11.265281     8A    -11.263921     9A    -11.257743
      10A    -11.250086    11A     -1.648511    12A     -1.443610
      13A     -1.431820    14A     -1.204610    15A     -1.096619
      16A     -1.050010    17A     -0.966823    18A     -0.887172
      19A     -0.834157    20A     -0.794025    21A     -0.768663
      22A     -0.741277    23A     -0.724686    24A     -0.712833
      25A     -0.672533    26A     -0.636137    27A     -0.623933
      28A     -0.596290    29A     -0.565764    30A     -0.550378
      31A     -0.538375    32A     -0.495765    33A     -0.487363
      34A     -0.461874    35A     -0.376430    36A     -0.346386

  @DF-RHF Final Energy:  -509.20996982770026

   => Energetics <=

    Nuclear Repulsion Energy =            503.8453055859792471
    One-Electron Energy =               -1694.1057018703272661
    Two-Electron Energy =                 681.0504264566475285
    DFT Exchange-Correlation Energy =       0.0000000000000000
    Empirical Dispersion Energy =           0.0000000000000000
    PCM Polarization Energy =               0.0000000000000000
    EFP Energy =                            0.0000000000000000
    Total Energy =                       -509.2099698277004336
    Molecular point group: c1
  Basis Set: CC-PVTZ
  Basis Set:

  -Total Gradient:
     Atom            X                  Y                   Z
    ------   -----------------  -----------------  -----------------
       1       -0.000001872463    -0.000005226913    -0.000000464610
       2        0.000039192338     0.000014249569     0.000054029235
       3       -0.000093910873     0.000001416215    -0.000039979113
       4        0.000003054627     0.000007663393    -0.000016023366
       5        0.000079074043    -0.000021598415     0.000082961091
       6       -0.000007954086     0.000001014294     0.000001348631
       7        0.000031837306    -0.000045014612    -0.000011311993
       8        0.000011117720     0.000002224872    -0.000026003436
       9        0.000714014578    -0.002932858062     0.001363177031
      10       -0.000003668856     0.000007897243    -0.000007562858
      11       -0.000574301957     0.002046181250    -0.000372794570
      12       -0.000313740224     0.001141359135    -0.003473259956
      13        0.000012340461     0.000001280519     0.000022777291
      14        0.000040298888    -0.000257082112     0.002436964247
      15        0.000064518499     0.000038493628    -0.000013857621

  **** Optimization is complete! (in 5 steps) ****
    Final optimized geometry and variables:
    Molecular point group: c1

    Geometry (in Angstrom), charge = 0, multiplicity = 1:

    H            1.494846562985     0.965104411410     2.787477105614
    O            2.066232403744     0.998153560431     2.041141902553
    C            1.441235553048     0.602093251843     0.920666033062
    C            2.172629158900     0.609143940094    -0.258359947609
    C            0.118943055892     0.202718487694     0.912203823326
    H            3.195436361681     0.927611174111    -0.230070291585
    C            1.581478572618     0.214291502744    -1.435860384141
    H           -0.471706387176     0.203787559532     1.808019458737
    C           -0.427655535730    -0.197475794977    -0.285800598872
    H            2.152831139251     0.227628558563    -2.343378163575
    C            0.259321897449    -0.200844960251    -1.469184263881
    N           -1.836551357333    -0.604047770919    -0.286994994301
    H           -0.208863926152    -0.517054330768    -2.378907264283
    O           -2.062214137702    -1.766136123455    -0.300454656442
    O           -2.645159823448     0.260208092726    -0.254309334351

  Mulliken Charges: (a.u.)
   Center  Symbol    Alpha    Beta     Spin     Total
       1     H     0.38451  0.38451  0.00000  0.23099
       2     O     4.16725  4.16725  0.00000 -0.33450
       3     C     2.84108  2.84108  0.00000  0.31783
       4     C     3.10952  3.10952  0.00000 -0.21904
       5     C     3.13793  3.13793  0.00000 -0.27587
       6     H     0.41434  0.41434  0.00000  0.17133
       7     C     3.04830  3.04830  0.00000 -0.09661
       8     H     0.42349  0.42349  0.00000  0.15301
       9     C     2.91937  2.91937  0.00000  0.16127
      10     H     0.41629  0.41629  0.00000  0.16741
      11     C     3.10624  3.10624  0.00000 -0.21247
      12     N     3.29186  3.29186  0.00000  0.41629
      13     H     0.41496  0.41496  0.00000  0.17008
      14     O     4.16204  4.16204  0.00000 -0.32407
      15     O     4.16282  4.16282  0.00000 -0.32564

   Total alpha = 36.00000, Total beta = 36.00000, Total charge = -0.00000
