  ==> Input File <==

--------------------------------------------------------------------------
set {
	reference rhf
	basis 6-31G*
}

set_num_threads( 4 )
memory 2 gb

molecule MOL {
0 1

H	 2.465338	 -2.224223	 0.000000
O	 2.784187	 -1.332015	 0.000000
C	 1.765313	 -0.449364	 0.000000
C	 0.662572	 -0.746925	 0.794584
C	 1.786834	 0.711645	 -0.748151
H	 0.669876	 -1.655446	 1.366768
C	 -0.411992	 0.117123	 0.836980
H	 2.623230	 0.965861	 -1.368911
C	 0.690924	 1.556888	 -0.682102
H	 -1.259224	 -0.120421	 1.453119
C	 -0.414377	 1.290252	 0.094276
N	 0.718814	 2.783753	 -1.475519
H	 -1.240435	 1.970343	 0.116806
O	 1.688739	 2.991785	 -2.140351
O	 -0.228335	 3.505742	 -1.413033

	symmetry c1
}
set optking {
	frozen_dihedral = ("
		4 3 2 1
	")
}

ee = optimize('scf')
oeprop('DIPOLE', 'QUADRUPOLE', 'MULLIKEN_CHARGES')
f=open( 'psi4out.xyz', 'w' )
f.write( "15  " )
f.write( str(ee) + "\n" )
f.write( MOL.save_string_xyz() )
f.close()
--------------------------------------------------------------------------

    Molecular point group: c1
  Charge       = 0
  Multiplicity = 1
  Basis Set: 6-31G*
  Basis Set:
  @DF-RHF Final Energy:  -509.02317829075520
    Total Energy =                       -509.0231782907550269
    Molecular point group: c1
  Basis Set: 6-31G*
  Basis Set:
  Basis Set: 6-31G*
  Basis Set:
  @DF-RHF Final Energy:  -509.02508291500124
    Total Energy =                       -509.0250829150011214
  Basis Set: 6-31G*
  Basis Set:
  Basis Set: 6-31G*
  Basis Set:
  @DF-RHF Final Energy:  -509.00993325619550
    Total Energy =                       -509.0099332561956089
  Basis Set: 6-31G*
  Basis Set:
  Basis Set: 6-31G*
  Basis Set:
  @DF-RHF Final Energy:  -509.02478921865747
    Total Energy =                       -509.0247892186572471
  Basis Set: 6-31G*
  Basis Set:
  Basis Set: 6-31G*
  Basis Set:
  @DF-RHF Final Energy:  -509.02526405952699
    Total Energy =                       -509.0252640595266485
  Basis Set: 6-31G*
  Basis Set:
  Basis Set: 6-31G*
  Basis Set:
  @DF-RHF Final Energy:  -509.02527790082934
    Total Energy =                       -509.0252779008291100
  Basis Set: 6-31G*
  Basis Set:
  Charge       = 0
  Multiplicity = 1
  Basis Set: 6-31G*
  Basis Set:

    Orbital Energies (a.u.)
    -----------------------

    Doubly Occupied:

       1A    -20.609950     2A    -20.602465     3A    -20.602104
       4A    -15.856957     5A    -11.326909     6A    -11.309206
       7A    -11.268201     8A    -11.266258     9A    -11.264937
      10A    -11.264343    11A     -1.635876    12A     -1.429347
      13A     -1.419159    14A     -1.200069    15A     -1.094240
      16A     -1.047270    17A     -0.964087    18A     -0.864264
      19A     -0.843525    20A     -0.794485    21A     -0.734816
      22A     -0.732311    23A     -0.718319    24A     -0.710829
      25A     -0.678920    26A     -0.639261    27A     -0.623978
      28A     -0.577006    29A     -0.564153    30A     -0.534146
      31A     -0.514236    32A     -0.489481    33A     -0.487214
      34A     -0.452196    35A     -0.378111    36A     -0.347708

  @DF-RHF Final Energy:  -509.02528155307226

   => Energetics <=

    Nuclear Repulsion Energy =            503.1337053757723083
    One-Electron Energy =               -1692.6252992086479026
    Two-Electron Energy =                 680.4663122798039012
    DFT Exchange-Correlation Energy =       0.0000000000000000
    Empirical Dispersion Energy =           0.0000000000000000
    PCM Polarization Energy =               0.0000000000000000
    EFP Energy =                            0.0000000000000000
    Total Energy =                       -509.0252815530717498
    Molecular point group: c1
  Basis Set: 6-31G*
  Basis Set:

  -Total Gradient:
     Atom            X                  Y                   Z
    ------   -----------------  -----------------  -----------------
       1       -0.000127341521     0.000053651652    -0.002153354345
       2        0.000502989389     0.000448520360     0.003338667712
       3       -0.000842927599    -0.001068260749    -0.002633490784
       4        0.000426073236     0.000858565458     0.001316287140
       5        0.000117384556    -0.000233326087     0.000053796922
       6        0.000000431054     0.000047357575    -0.000029467730
       7        0.000040797379    -0.000151248047     0.000042375265
       8        0.000024027118    -0.000016850337    -0.000003592744
       9       -0.000215167466    -0.000001352023     0.000119323326
      10       -0.000047885023     0.000046911160     0.000008854165
      11        0.000111913392     0.000069615132    -0.000097181365
      12        0.000083902165    -0.000016730288     0.000021183678
      13       -0.000031701055    -0.000038927943     0.000043662065
      14       -0.000056300865     0.000003727822     0.000004203166
      15        0.000013805233    -0.000001653688    -0.000031266469

  **** Optimization is complete! (in 7 steps) ****
    Final optimized geometry and variables:
    Molecular point group: c1

    Geometry (in Angstrom), charge = 0, multiplicity = 1:

    H            1.630008432340    -3.275892199342     0.494883087109
    O            1.884589722086    -2.363516818044     0.478787001998
    C            0.798061733286    -1.554201489530     0.518522732158
    C           -0.298659812632    -1.831671650402     1.321497738664
    C            0.835698141652    -0.390180031204    -0.228715982078
    H           -0.308456054497    -2.728057910720     1.916271355743
    C           -1.371851264644    -0.957233290574     1.360835978608
    H            1.683670730632    -0.168428967214    -0.842906254874
    C           -0.243845043698     0.468030299067    -0.156619155660
    H           -2.219374764277    -1.183180796655     1.980959137814
    C           -1.357345165568     0.211209702488     0.620761428186
    N           -0.206626132602     1.697268704915    -0.946856572450
    H           -2.174220585883     0.902272847875     0.643747382710
    O            0.762038185289     1.899739057668    -1.612888893162
    O           -1.149406144457     2.425986574329    -0.879178936030

  Mulliken Charges: (a.u.)
   Center  Symbol    Alpha    Beta     Spin     Total
       1     H     0.26904  0.26904  0.00000  0.46192
       2     O     4.37776  4.37776  0.00000 -0.75553
       3     C     2.80546  2.80546  0.00000  0.38909
       4     C     3.11943  3.11943  0.00000 -0.23887
       5     C     3.11051  3.11051  0.00000 -0.22101
       6     H     0.39070  0.39070  0.00000  0.21860
       7     C     3.10170  3.10170  0.00000 -0.20340
       8     H     0.35759  0.35759  0.00000  0.28482
       9     C     2.91471  2.91471  0.00000  0.17059
      10     H     0.38686  0.38686  0.00000  0.22628
      11     C     3.09495  3.09495  0.00000 -0.18989
      12     N     3.24107  3.24107  0.00000  0.51787
      13     H     0.36480  0.36480  0.00000  0.27041
      14     O     4.23203  4.23203  0.00000 -0.46407
      15     O     4.23339  4.23339  0.00000 -0.46679

   Total alpha = 36.00000, Total beta = 36.00000, Total charge = -0.00000
