  ==> Input File <==

--------------------------------------------------------------------------
set {
	reference rhf
	basis 6-31G*
}

set_num_threads( 4 )
memory 2 gb

molecule MOL {
0 1

H	 2.059791	 -0.767067	 -2.304533
C	 1.334667	 -0.988823	 -1.529971
C	 1.322923	 0.120767	 -0.479465
H	 0.364335	 -1.094894	 -2.004922
H	 1.600800	 -1.945488	 -1.091156
C	 0.306652	 -0.176050	 0.621399
H	 1.072033	 1.069711	 -0.942052
H	 2.303925	 0.225063	 -0.031112
N	 -1.068537	 -0.011044	 0.085269
H	 0.372515	 -1.192590	 0.973735
H	 0.391664	 0.520566	 1.441230
O	 -1.656956	 -0.997225	 -0.235017
O	 -1.478635	 1.104830	 -0.018026

	symmetry c1
}
set optking {
	frozen_dihedral = ("
		7 3 6 9
	")
}

ee = optimize('scf')
oeprop('DIPOLE', 'QUADRUPOLE', 'MULLIKEN_CHARGES')
f=open( 'psi4out.xyz', 'w' )
f.write( "13  " )
f.write( str(ee) + "\n" )
f.write( MOL.save_string_xyz() )
f.close()
--------------------------------------------------------------------------

    Molecular point group: c1
  Charge       = 0
  Multiplicity = 1
  Basis Set: 6-31G*
  Basis Set:
  @DF-RHF Final Energy:  -321.73458457224308
    Total Energy =                       -321.7345845722429090
    Molecular point group: c1
  Basis Set: 6-31G*
  Basis Set:
  Basis Set: 6-31G*
  Basis Set:
  @DF-RHF Final Energy:  -321.73490370225534
    Total Energy =                       -321.7349037022553944
  Basis Set: 6-31G*
  Basis Set:
  Basis Set: 6-31G*
  Basis Set:
  @DF-RHF Final Energy:  -321.73483944909549
    Total Energy =                       -321.7348394490954888
  Basis Set: 6-31G*
  Basis Set:
  Basis Set: 6-31G*
  Basis Set:
  @DF-RHF Final Energy:  -321.73489500762372
    Total Energy =                       -321.7348950076237770
  Basis Set: 6-31G*
  Basis Set:
  @DF-RHF Final Energy:  -321.73502440987329
    Total Energy =                       -321.7350244098732901
  @DF-RHF Final Energy:  -321.73505582154473
    Total Energy =                       -321.7350558215447336
  @DF-RHF Final Energy:  -321.73507145898850
    Total Energy =                       -321.7350714589885001
  @DF-RHF Final Energy:  -321.73511023981246
    Total Energy =                       -321.7351102398125704
  @DF-RHF Final Energy:  -321.73514174394904
    Total Energy =                       -321.7351417439491001
  @DF-RHF Final Energy:  -321.73516616125363
    Total Energy =                       -321.7351661612536873
  Basis Set: 6-31G*
  Basis Set:
  @DF-RHF Final Energy:  -321.73518399973693
    Total Energy =                       -321.7351839997371030
  Basis Set: 6-31G*
  Basis Set:
  Basis Set: 6-31G*
  Basis Set:
  @DF-RHF Final Energy:  -321.73520289033252
    Total Energy =                       -321.7352028903326868
  Basis Set: 6-31G*
  Basis Set:
  Basis Set: 6-31G*
  Basis Set:
  @DF-RHF Final Energy:  -321.73520476506440
    Total Energy =                       -321.7352047650642817
  Basis Set: 6-31G*
  Basis Set:
  Charge       = 0
  Multiplicity = 1
  Basis Set: 6-31G*
  Basis Set:

    Orbital Energies (a.u.)
    -----------------------

    Doubly Occupied:

       1A    -20.603518     2A    -20.599470     3A    -15.847492
       4A    -11.299601     5A    -11.255495     6A    -11.232161
       7A     -1.631240     8A     -1.416655     9A     -1.134069
      10A     -1.022425    11A     -0.892487    12A     -0.823806
      13A     -0.759278    14A     -0.736931    15A     -0.724406
      16A     -0.647333    17A     -0.623433    18A     -0.595978
      19A     -0.531338    20A     -0.518080    21A     -0.514936
      22A     -0.484363    23A     -0.474143    24A     -0.448570

  @DF-RHF Final Energy:  -321.73520498434743

   => Energetics <=

    Nuclear Repulsion Energy =            252.1127304283960484
    One-Electron Energy =                -938.0614532785830306
    Two-Electron Energy =                 364.2135178658396626
    DFT Exchange-Correlation Energy =       0.0000000000000000
    Empirical Dispersion Energy =           0.0000000000000000
    PCM Polarization Energy =               0.0000000000000000
    EFP Energy =                            0.0000000000000000
    Total Energy =                       -321.7352049843473196
    Molecular point group: c1
  Basis Set: 6-31G*
  Basis Set:

  -Total Gradient:
     Atom            X                  Y                   Z
    ------   -----------------  -----------------  -----------------
       1        0.000003334358    -0.000000668754     0.000007097651
       2       -0.000012980399    -0.000002844329     0.000012229375
       3        0.001709841360     0.001918746903     0.002084574713
       4        0.000001854311     0.000003674783    -0.000006604906
       5       -0.000007189943    -0.000000217870     0.000004941536
       6       -0.000370137170    -0.002508808618    -0.000998634389
       7       -0.001388655892    -0.001082727000    -0.001583574877
       8       -0.000006284231     0.000002051221    -0.000001359553
       9        0.000024433109     0.001625424606     0.000473520612
      10       -0.000003345126    -0.000008495740     0.000000630778
      11       -0.000005166163    -0.000000116060    -0.000006355007
      12        0.000045500673     0.000012357017     0.000013965617
      13        0.000008795118     0.000041623836    -0.000000431550

  **** Optimization is complete! (in 14 steps) ****
    Final optimized geometry and variables:
    Molecular point group: c1

    Geometry (in Angstrom), charge = 0, multiplicity = 1:

    H            2.360755662461    -0.559913365812    -2.062212636564
    C            1.619324364349    -0.814136033288    -1.312887691326
    C            1.564973107553     0.265027191079    -0.230825354261
    H            0.664671684901    -0.922184718206    -1.816718576921
    H            1.885568622706    -1.779366105438    -0.893579838210
    C            0.547203475320    -0.035840792338     0.867881921118
    H            1.320655888240     1.222589401667    -0.673817130179
    H            2.534174732998     0.362737498129     0.246998631521
    N           -0.839676354036     0.148024398551     0.359554552652
    H            0.604677552843    -1.049886639476     1.227714543280
    H            0.637690917889     0.662312188951     1.687141554632
    O           -1.530916689756    -0.819000216741     0.270755330091
    O           -1.164094304406     1.258293549966     0.065442401656

  Mulliken Charges: (a.u.)
   Center  Symbol    Alpha    Beta     Spin     Total
       1     H     0.41049  0.41049  0.00000  0.17902
       2     C     3.24684  3.24684  0.00000 -0.49367
       3     C     3.17546  3.17546  0.00000 -0.35091
       4     H     0.40704  0.40704  0.00000  0.18593
       5     H     0.41597  0.41597  0.00000  0.16806
       6     C     3.09152  3.09152  0.00000 -0.18304
       7     H     0.39330  0.39330  0.00000  0.21340
       8     H     0.40696  0.40696  0.00000  0.18608
       9     N     3.22237  3.22237  0.00000  0.55525
      10     H     0.38636  0.38636  0.00000  0.22727
      11     H     0.38641  0.38641  0.00000  0.22717
      12     O     4.22733  4.22733  0.00000 -0.45466
      13     O     4.22995  4.22995  0.00000 -0.45991

   Total alpha = 24.00000, Total beta = 24.00000, Total charge =  0.00000
