                              Psi4 1.0.54 Driver

  ==> Input File <==

--------------------------------------------------------------------------
set {
	reference rhf
	basis cc-pvtz
}

set_num_threads( 4 )
memory 2 gb

molecule MOL {
0 1

O	 -2.817697	 1.304178	 0.001046
C	 -2.664672	 0.129869	 0.003507
C	 -3.797908	 -0.860100	 -0.001145
O	 -1.481217	 -0.452708	 0.001092
H	 -4.408836	 -0.679689	 -0.875387
H	 -3.443486	 -1.878443	 -0.002770
H	 -4.412123	 -0.683688	 0.871605
C	 -0.332055	 0.384012	 -0.000250
C	 0.892252	 -0.506059	 -0.000295
H	 -0.360822	 1.020205	 -0.874146
H	 -0.359817	 1.021310	 0.872861
C	 2.188199	 0.299473	 -0.001416
H	 0.857046	 -1.152781	 -0.871031
H	 0.857910	 -1.151798	 0.871202
C	 3.377038	 -0.480111	 0.553593
H	 2.414150	 0.621368	 -1.014977
H	 2.051900	 1.206289	 0.582606
C	 4.672017	 0.324896	 0.553748
H	 3.515341	 -1.385649	 -0.030299
H	 3.152473	 -0.802174	 1.566477
H	 4.941773	 0.632584	 -0.450944
H	 5.494845	 -0.256321	 0.953308
H	 4.575980	 1.220759	 1.157950

	symmetry c1
}
set optking {
	frozen_dihedral = ("
		16 12 9 13
	")
}

ee,wfn = optimize('scf', return_wfn=True)
oeprop( wfn, 'DIPOLE', 'QUADRUPOLE', 'MULLIKEN_CHARGES')
f=open( 'psi4out.xyz', 'w' )
f.write( "23  " )
f.write( str(ee) + "\n" )
f.write( MOL.save_string_xyz() )
f.close()
--------------------------------------------------------------------------

    Molecular point group: c1
  Charge       = 0
  Multiplicity = 1
  Basis Set: CC-PVTZ
  Basis Set:
  @DF-RHF Final Energy:  -423.13315928036934
    Total Energy =                       -423.1331592803688864
    Molecular point group: c1
  Basis Set: CC-PVTZ
  Basis Set:
  Basis Set: CC-PVTZ
  Basis Set:
  @DF-RHF Final Energy:  -423.13310632092390
    Total Energy =                       -423.1331063209236163
  Basis Set: CC-PVTZ
  Basis Set:
  Basis Set: CC-PVTZ
  Basis Set:
  @DF-RHF Final Energy:  -423.13252287454640
    Total Energy =                       -423.1325228745461118
  Basis Set: CC-PVTZ
  Basis Set:
  Basis Set: CC-PVTZ
  Basis Set:
  @DF-RHF Final Energy:  -423.13335468768651
    Total Energy =                       -423.1333546876867331
  Basis Set: CC-PVTZ
  Basis Set:
  Basis Set: CC-PVTZ
  Basis Set:
  @DF-RHF Final Energy:  -423.13337428125067
    Total Energy =                       -423.1333742812504397
  Basis Set: CC-PVTZ
  Basis Set:
  Basis Set: CC-PVTZ
  Basis Set:
  @DF-RHF Final Energy:  -423.13338567683502
    Total Energy =                       -423.1333856768354735
  Basis Set: CC-PVTZ
  Basis Set:
  Charge       = 0
  Multiplicity = 1
  Basis Set: CC-PVTZ
  Basis Set:

    Orbital Energies (a.u.)
    -----------------------

    Doubly Occupied:

       1A    -20.595820     2A    -20.529474     3A    -11.366362
       4A    -11.279355     5A    -11.230634     6A    -11.222356
       7A    -11.221427     8A    -11.219363     9A    -11.210743
      10A     -1.471104    11A     -1.363949    12A     -1.094837
      13A     -1.043175    14A     -1.004080    15A     -0.931334
      16A     -0.842496    17A     -0.802690    18A     -0.776416
      19A     -0.694338    20A     -0.688202    21A     -0.671713
      22A     -0.646820    23A     -0.608615    24A     -0.588252
      25A     -0.583556    26A     -0.568722    27A     -0.559172
      28A     -0.537983    29A     -0.525215    30A     -0.504473
      31A     -0.492922    32A     -0.478209    33A     -0.470664
      34A     -0.465724    35A     -0.455072    36A     -0.438731

  @DF-RHF Final Energy:  -423.13338636083387

   => Energetics <=

    Nuclear Repulsion Energy =            450.5867959686644895
    One-Electron Energy =               -1469.0723631259347712
    Two-Electron Energy =                 595.3521807964359596
    DFT Exchange-Correlation Energy =       0.0000000000000000
    Empirical Dispersion Energy =           0.0000000000000000
    PCM Polarization Energy =               0.0000000000000000
    EFP Energy =                            0.0000000000000000
    Total Energy =                       -423.1333863608342654
    Molecular point group: c1
  Basis Set: CC-PVTZ
  Basis Set:

  -Total Gradient:
     Atom            X                  Y                   Z
    ------   -----------------  -----------------  -----------------
       1       -0.000005152370     0.000004450393     0.000008383833
       2        0.000042168883    -0.000041943809    -0.000011595759
       3       -0.000015864312     0.000012902859     0.000003465035
       4       -0.000056231023     0.000018174674     0.000004912453
       5        0.000012281436    -0.000002887681     0.000016760378
       6       -0.000001765938     0.000000896791    -0.000000322754
       7        0.000013483859     0.000000062434    -0.000018905651
       8        0.000041011690     0.000019896817    -0.000016742345
       9        0.002336221808    -0.003644113816     0.002079481156
      10       -0.000009222092    -0.000005753963     0.000004499093
      11       -0.000005418675    -0.000009769232    -0.000002305614
      12       -0.002543651859     0.004039161847     0.000214837809
      13       -0.001559734892     0.002421607480    -0.001743607659
      14       -0.000007844929    -0.000008618875     0.000001297360
      15       -0.000004027535    -0.000015128321    -0.000045171823
      16        0.001775344571    -0.002798002119    -0.000501821413
      17       -0.000013144096     0.000005051183    -0.000003795178
      18        0.000005859750     0.000014114106     0.000015433329
      19        0.000011651837     0.000014053858     0.000019941754
      20        0.000023304032     0.000017030424    -0.000038555999
      21       -0.000022837109    -0.000019959958     0.000033568355
      22       -0.000007547205     0.000000171873     0.000004189181
      23       -0.000008885830    -0.000021396967    -0.000023945542

  **** Optimization is complete! (in 7 steps) ****
    Final optimized geometry and variables:
    Molecular point group: c1

    Geometry (in Angstrom), charge = 0, multiplicity = 1:

    O           -2.809882119594     1.279077696014    -0.135365325596
    C           -2.655633461017     0.104937140847    -0.147284844271
    C           -3.787458416667    -0.885664591428    -0.195840002754
    O           -1.472054732846    -0.476487979993    -0.119306157467
    H           -4.374101541704    -0.694329269462    -1.084301894194
    H           -3.432168337742    -1.903731790565    -0.200671609567
    H           -4.425726535757    -0.720791421047     0.661821885575
    C           -0.324525782580     0.360620328750    -0.071440155703
    C            0.901958748621    -0.528080766236    -0.043119076550
    H           -0.324364556801     1.008990137572    -0.937314961173
    H           -0.381213641040     0.986263546107     0.808591696051
    C            2.194359421597     0.290673207906    -0.069990760285
    H            0.859725516850    -1.180526458999    -0.908387660635
    H            0.863461827091    -1.153598402501     0.841863215658
    C            3.403593098092    -0.492251172665     0.438050791500
    H            2.397772031382     0.604756947370    -1.089703054491
    H            2.079518060476     1.192891275131     0.524712577287
    C            4.705944175860     0.295478727294     0.350449813951
    H            3.499078270166    -1.412516157579    -0.131917776567
    H            3.230011002591    -0.789280702678     1.468322370945
    H            4.928963942519     0.571056843866    -0.674811316760
    H            5.541018466460    -0.284526721561     0.725741212899
    H            4.650133718290     1.209511406468     0.932268851008

  Mulliken Charges: (a.u.)
   Center  Symbol    Alpha    Beta     Spin     Total
       1     O     4.20241  4.20241  0.00000 -0.40481
       2     C     2.81495  2.81495  0.00000  0.37010
       3     C     3.13999  3.13999  0.00000 -0.27997
       4     O     4.14534  4.14534  0.00000 -0.29068
       5     H     0.44210  0.44210  0.00000  0.11579
       6     H     0.44185  0.44185  0.00000  0.11629
       7     H     0.44216  0.44216  0.00000  0.11568
       8     C     2.97876  2.97876  0.00000  0.04249
       9     C     3.08178  3.08178  0.00000 -0.16356
      10     H     0.45377  0.45377  0.00000  0.09246
      11     H     0.45405  0.45405  0.00000  0.09189
      12     C     3.09842  3.09842  0.00000 -0.19684
      13     H     0.44992  0.44992  0.00000  0.10017
      14     H     0.45108  0.45108  0.00000  0.09785
      15     C     3.08489  3.08489  0.00000 -0.16978
      16     H     0.45185  0.45185  0.00000  0.09629
      17     H     0.45324  0.45324  0.00000  0.09352
      18     C     3.14953  3.14953  0.00000 -0.29906
      19     H     0.45326  0.45326  0.00000  0.09347
      20     H     0.45373  0.45373  0.00000  0.09253
      21     H     0.45466  0.45466  0.00000  0.09069
      22     H     0.44772  0.44772  0.00000  0.10456
      23     H     0.45454  0.45454  0.00000  0.09092

   Total alpha = 36.00000, Total beta = 36.00000, Total charge = -0.00000

*** Psi4 exiting successfully. Buy a developer a beer!
