  ==> Input File <==

--------------------------------------------------------------------------
set {
	reference rhf
	basis cc-pvtz
}

set_num_threads( 4 )
memory 2 gb

molecule MOL {
0 1

H	 0.726336	 0.067622	 1.994703
C	 0.413276	 -0.484980	 1.134960
C	 0.410675	 -1.865080	 1.127793
C	 0.000000	 0.179985	 0.000046
H	 0.728445	 -2.400841	 2.000430
C	 -0.000003	 -2.552036	 -0.000009
N	 0.000000	 1.644631	 0.000076
C	 -0.413275	 -0.484933	 -1.134896
H	 -0.000000	 -3.625035	 -0.000032
C	 -0.410677	 -1.865033	 -1.127784
O	 1.050559	 2.194174	 -0.000073
O	 -1.050559	 2.194174	 -0.000074
H	 -0.726343	 0.067703	 -1.994613
H	 -0.728443	 -2.400759	 -2.000445

	symmetry c1
}
set optking {
	frozen_dihedral = ("
		2 4 7 11
	")
}

ee = optimize('scf')
oeprop('DIPOLE', 'QUADRUPOLE', 'MULLIKEN_CHARGES')
f=open( 'psi4out.xyz', 'w' )
f.write( "14  " )
f.write( str(ee) + "\n" )
f.write( MOL.save_string_xyz() )
f.close()
--------------------------------------------------------------------------

    Molecular point group: c1
  Charge       = 0
  Multiplicity = 1
  Basis Set: CC-PVTZ
  Basis Set:
  @DF-RHF Final Energy:  -434.32124814946576
    Total Energy =                       -434.3212481494655322
    Molecular point group: c1
  Basis Set: CC-PVTZ
  Basis Set:
  Basis Set: CC-PVTZ
  Basis Set:
  @DF-RHF Final Energy:  -434.31491612716349
    Total Energy =                       -434.3149161271636558
  Basis Set: CC-PVTZ
  Basis Set:
  Basis Set: CC-PVTZ
  Basis Set:
  @DF-RHF Final Energy:  -434.32138497916213
    Total Energy =                       -434.3213849791625307
  Basis Set: CC-PVTZ
  Basis Set:
  Basis Set: CC-PVTZ
  Basis Set:
  @DF-RHF Final Energy:  -434.32164848795514
    Total Energy =                       -434.3216484879549171
  Basis Set: CC-PVTZ
  Basis Set:
  Charge       = 0
  Multiplicity = 1
  Basis Set: CC-PVTZ
  Basis Set:

    Orbital Energies (a.u.)
    -----------------------

    Doubly Occupied:

       1A    -20.597712     2A    -20.597653     3A    -15.848120
       4A    -11.307382     5A    -11.267602     6A    -11.267426
       7A    -11.260844     8A    -11.260347     9A    -11.258692
      10A     -1.644991    11A     -1.428205    12A     -1.206440
      13A     -1.096763    14A     -1.056802    15A     -0.959311
      16A     -0.874302    17A     -0.831172    18A     -0.786454
      19A     -0.740647    20A     -0.737984    21A     -0.717748
      22A     -0.652788    23A     -0.650668    24A     -0.625949
      25A     -0.561229    26A     -0.551789    27A     -0.533734
      28A     -0.499940    29A     -0.486593    30A     -0.458767
      31A     -0.372196    32A     -0.370506

  @DF-RHF Final Energy:  -434.32164922457463

   => Energetics <=

    Nuclear Repulsion Energy =            417.4886003498707510
    One-Electron Energy =               -1418.5989938333239024
    Two-Electron Energy =                 566.7887442588785234
    DFT Exchange-Correlation Energy =       0.0000000000000000
    Empirical Dispersion Energy =           0.0000000000000000
    PCM Polarization Energy =               0.0000000000000000
    EFP Energy =                            0.0000000000000000
    Total Energy =                       -434.3216492245746849
    Molecular point group: c1
  Basis Set: CC-PVTZ
  Basis Set:

  -Total Gradient:
     Atom            X                  Y                   Z
    ------   -----------------  -----------------  -----------------
       1       -0.000000735815    -0.000010396840    -0.000025285593
       2       -0.003683334620    -0.000169224510     0.001341501040
       3        0.000020705919     0.000053604248     0.000050051996
       4        0.005298750349     0.000299297018    -0.003510070904
       5       -0.000006046087    -0.000000085482     0.000004262059
       6        0.000032963656     0.000005489296    -0.000057534258
       7       -0.001786606494     0.000013728282     0.006647744761
       8        0.000057915934     0.000005448039    -0.000050227400
       9        0.000000238905     0.000002501328     0.000005373348
      10       -0.000073428708    -0.000028289934     0.000023626028
      11        0.000278358160    -0.000050241002    -0.004467761980
      12       -0.000158725721    -0.000116935034     0.000027355272
      13        0.000013340732    -0.000013124227     0.000017672451
      14        0.000006603790     0.000008228819    -0.000006706822

  **** Optimization is complete! (in 5 steps) ****
    Final optimized geometry and variables:
    Molecular point group: c1

    Geometry (in Angstrom), charge = 0, multiplicity = 1:

    H            0.752359723930     0.070567567342     1.992804548015
    C            0.426986606279    -0.480078786166     1.132915003566
    C            0.406896812861    -1.861356984397     1.129351980829
    C            0.025890969341     0.178532743766    -0.004432843426
    H            0.711306765712    -2.398475497466     2.006083844136
    C           -0.002929496399    -2.546662777420     0.000988560564
    N           -0.001816299097     1.642709166479     0.007179885079
    C           -0.412887820052    -0.475471958528    -1.130847972588
    H           -0.010571528505    -3.619276817406     0.001493905076
    C           -0.408473385957    -1.856546045247    -1.126472316186
    O            1.041710873064     2.203080804291     0.033881153255
    O           -1.065260599255     2.162037393331    -0.042311652546
    H           -0.746441826336     0.078571727253    -1.985221399851
    H           -0.730163765844    -2.390424948625    -1.999011565268

  Mulliken Charges: (a.u.)
   Center  Symbol    Alpha    Beta     Spin     Total
       1     H     0.41269  0.41269  0.00000  0.17461
       2     C     3.08685  3.08685  0.00000 -0.17370
       3     C     3.06518  3.06518  0.00000 -0.13035
       4     C     2.92586  2.92586  0.00000  0.14828
       5     H     0.41735  0.41735  0.00000  0.16530
       6     C     3.07595  3.07595  0.00000 -0.15190
       7     N     3.28883  3.28883  0.00000  0.42235
       8     C     3.08586  3.08586  0.00000 -0.17173
       9     H     0.41790  0.41790  0.00000  0.16420
      10     C     3.06486  3.06486  0.00000 -0.12971
      11     O     4.16451  4.16451  0.00000 -0.32901
      12     O     4.16418  4.16418  0.00000 -0.32835
      13     H     0.41266  0.41266  0.00000  0.17469
      14     H     0.41733  0.41733  0.00000  0.16533

   Total alpha = 32.00000, Total beta = 32.00000, Total charge = -0.00000
