  ==> Input File <==

--------------------------------------------------------------------------
set {
	reference rhf
	basis cc-pvtz
}

set_num_threads( 4 )
memory 2 gb

molecule MOL {
0 1

H	 0.296146	 -2.177421	 0.248759
C	 0.117332	 -1.260559	 0.798803
N	 0.526300	 -0.128137	 0.000000
H	 0.706463	 -1.301830	 1.706141
H	 -0.938448	 -1.242456	 1.077321
C	 -0.247113	 0.037112	 -1.209233
H	 0.486356	 0.705088	 0.545712
H	 -0.996493	 -0.743733	 -1.271440
H	 0.397975	 -0.057351	 -2.073512
H	 -0.763794	 0.997171	 -1.271673

	symmetry c1
}
set optking {
	frozen_dihedral = ("
		2 3 6 8
	")
}

ee = optimize('scf')
oeprop('DIPOLE', 'QUADRUPOLE', 'MULLIKEN_CHARGES')
f=open( 'psi4out.xyz', 'w' )
f.write( "10  " )
f.write( str(ee) + "\n" )
f.write( MOL.save_string_xyz() )
f.close()
--------------------------------------------------------------------------

    Molecular point group: c1
  Charge       = 0
  Multiplicity = 1
  Basis Set: CC-PVTZ
  Basis Set:
  @DF-RHF Final Energy:  -134.28754109438066
    Total Energy =                       -134.2875410943806571
    Molecular point group: c1
  Basis Set: CC-PVTZ
  Basis Set:
  Basis Set: CC-PVTZ
  Basis Set:
  @DF-RHF Final Energy:  -134.28802956892639
    Total Energy =                       -134.2880295689263050
  Basis Set: CC-PVTZ
  Basis Set:
  Basis Set: CC-PVTZ
  Basis Set:
  @DF-RHF Final Energy:  -134.28812554022997
    Total Energy =                       -134.2881255402299985
  Basis Set: CC-PVTZ
  Basis Set:
  Basis Set: CC-PVTZ
  Basis Set:
  @DF-RHF Final Energy:  -134.28812711475445
    Total Energy =                       -134.2881271147544737
  Basis Set: CC-PVTZ
  Basis Set:
  Charge       = 0
  Multiplicity = 1
  Basis Set: CC-PVTZ
  Basis Set:

    Orbital Energies (a.u.)
    -----------------------

    Doubly Occupied:

       1A    -15.529274     2A    -11.234413     3A    -11.233932
       4A     -1.196014     5A     -0.948030     6A     -0.855161
       7A     -0.660568     8A     -0.610151     9A     -0.588676
      10A     -0.545813    11A     -0.510247    12A     -0.506148
      13A     -0.358780

  @DF-RHF Final Energy:  -134.28812735132090

   => Energetics <=

    Nuclear Repulsion Energy =             84.4617223574423122
    One-Electron Energy =                -347.9452886398728424
    Two-Electron Energy =                 129.1954389311096065
    DFT Exchange-Correlation Energy =       0.0000000000000000
    Empirical Dispersion Energy =           0.0000000000000000
    PCM Polarization Energy =               0.0000000000000000
    EFP Energy =                            0.0000000000000000
    Total Energy =                       -134.2881273513208953
    Molecular point group: c1
  Basis Set: CC-PVTZ
  Basis Set:

  -Total Gradient:
     Atom            X                  Y                   Z
    ------   -----------------  -----------------  -----------------
       1       -0.000002698046     0.000005301303    -0.000002048907
       2       -0.000367277825     0.000285431683     0.000266171563
       3        0.000667500396    -0.000537089930    -0.000456838513
       4        0.000001790129     0.000001160142    -0.000004459684
       5        0.000009417719     0.000006958595    -0.000007371531
       6       -0.000762451186     0.000648649047     0.000495707675
       7       -0.000006395011     0.000012838828     0.000024033635
       8        0.000450800793    -0.000411766854    -0.000335022170
       9        0.000003109241    -0.000012480314     0.000017004054
      10        0.000006203791     0.000000997501     0.000002823880

  **** Optimization is complete! (in 5 steps) ****
    Final optimized geometry and variables:
    Molecular point group: c1

    Geometry (in Angstrom), charge = 0, multiplicity = 1:

    H            0.195480732177    -1.733784061655     0.412798094273
    C            0.010245840861    -0.809531514745     0.947568107832
    N            0.406632865264     0.316612778620     0.133161286394
    H            0.606895539992    -0.831757599501     1.850996385179
    H           -1.042643189218    -0.798100844748     1.235774516697
    C           -0.355411332313     0.491014322735    -1.093686431540
    H            0.388488884332     1.150344449915     0.674865441865
    H           -1.116980176056    -0.274920305871    -1.197396543183
    H            0.287238556199     0.429834625259    -1.965267140241
    H           -0.858553433780     1.451784529088    -1.122154461985

  Mulliken Charges: (a.u.)
   Center  Symbol    Alpha    Beta     Spin     Total
       1     H     0.45640  0.45640  0.00000  0.08720
       2     C     3.08281  3.08281  0.00000 -0.16563
       3     N     3.63351  3.63351  0.00000 -0.26702
       4     H     0.45329  0.45329  0.00000  0.09342
       5     H     0.47410  0.47410  0.00000  0.05179
       6     C     3.07703  3.07703  0.00000 -0.15406
       7     H     0.43991  0.43991  0.00000  0.12018
       8     H     0.46558  0.46558  0.00000  0.06885
       9     H     0.45614  0.45614  0.00000  0.08772
      10     H     0.46122  0.46122  0.00000  0.07756

   Total alpha = 13.00000, Total beta = 13.00000, Total charge = -0.00000
