                              Psi4 1.0.54 Driver

  ==> Input File <==

--------------------------------------------------------------------------
set {
	reference rhf
	basis cc-pvtz
}

set_num_threads( 4 )
memory 2 gb

molecule MOL {
0 1

O	 3.899317	 -0.360649	 -0.114641
C	 2.841259	 0.166180	 -0.000295
C	 1.542794	 -0.614730	 -0.000853
C	 2.720175	 1.665336	 0.154921
C	 0.288398	 0.247429	 0.000314
H	 1.557171	 -1.273139	 -0.866508
H	 1.557484	 -1.274998	 0.863344
C	 -0.993089	 -0.581367	 -0.000217
H	 0.305153	 0.900562	 -0.864701
H	 0.305567	 0.898805	 0.866656
C	 -2.258482	 0.271340	 0.000669
H	 -1.002280	 -1.233920	 -0.870484
H	 -1.002061	 -1.235367	 0.868958
C	 -3.544441	 -0.550271	 -0.000253
H	 -2.250545	 0.925250	 -0.867923
H	 -2.250598	 0.923423	 0.870642
C	 -4.804551	 0.308747	 0.000556
H	 -3.553737	 -1.201524	 -0.870151
H	 -3.553831	 -1.203282	 0.868313
H	 -4.842050	 0.949078	 -0.874436
H	 -5.698404	 -0.304480	 -0.000254
H	 -4.842277	 0.947103	 0.876982
H	 2.219746	 1.905767	 1.086485
H	 3.700963	 2.115111	 0.142673
H	 2.119700	 2.077064	 -0.648790

	symmetry c1
}
set optking {
	frozen_dihedral = ("
		1 2 3 6
	")
}

ee,wfn = optimize('scf', return_wfn=True)
oeprop( wfn, 'DIPOLE', 'QUADRUPOLE', 'MULLIKEN_CHARGES')
f=open( 'psi4out.xyz', 'w' )
f.write( "25  " )
f.write( str(ee) + "\n" )
f.write( MOL.save_string_xyz() )
f.close()
--------------------------------------------------------------------------

    Molecular point group: c1
  Charge       = 0
  Multiplicity = 1
  Basis Set: CC-PVTZ
  Basis Set:
  @DF-RHF Final Energy:  -387.26752989345351
    Total Energy =                       -387.2675298934542525
    Molecular point group: c1
  Basis Set: CC-PVTZ
  Basis Set:
  Basis Set: CC-PVTZ
  Basis Set:
  @DF-RHF Final Energy:  -387.26727744337654
    Total Energy =                       -387.2672774433763152
  Basis Set: CC-PVTZ
  Basis Set:
  Basis Set: CC-PVTZ
  Basis Set:
  @DF-RHF Final Energy:  -387.27012520159803
    Total Energy =                       -387.2701252015980344
  Basis Set: CC-PVTZ
  Basis Set:
  Basis Set: CC-PVTZ
  Basis Set:
  @DF-RHF Final Energy:  -387.27021409324681
    Total Energy =                       -387.2702140932466364
  Basis Set: CC-PVTZ
  Basis Set:
  Basis Set: CC-PVTZ
  Basis Set:
  @DF-RHF Final Energy:  -387.26995456251120
    Total Energy =                       -387.2699545625113160
  Basis Set: CC-PVTZ
  Basis Set:
  Basis Set: CC-PVTZ
  Basis Set:
  @DF-RHF Final Energy:  -387.27024879973010
    Total Energy =                       -387.2702487997304388
  Basis Set: CC-PVTZ
  Basis Set:
  Charge       = 0
  Multiplicity = 1
  Basis Set: CC-PVTZ
  Basis Set:

    Orbital Energies (a.u.)
    -----------------------

    Doubly Occupied:

       1A    -20.534172     2A    -11.320637     3A    -11.228950
       4A    -11.227862     5A    -11.226192     6A    -11.221743
       7A    -11.218624     8A    -11.217985     9A    -11.210753
      10A     -1.395917    11A     -1.102593    12A     -1.061511
      13A     -1.010842    14A     -0.972820    15A     -0.899210
      16A     -0.822369    17A     -0.797853    18A     -0.731651
      19A     -0.669543    20A     -0.650591    21A     -0.635889
      22A     -0.627549    23A     -0.597707    24A     -0.591412
      25A     -0.564169    26A     -0.561127    27A     -0.548051
      28A     -0.529861    29A     -0.527081    30A     -0.496698
      31A     -0.492430    32A     -0.470790    33A     -0.469990
      34A     -0.468581    35A     -0.462164    36A     -0.397639

  @DF-RHF Final Energy:  -387.27025109510549

   => Energetics <=

    Nuclear Repulsion Energy =            439.2541760527266774
    One-Electron Energy =               -1395.1229429732932203
    Two-Electron Energy =                 568.5985158254611633
    DFT Exchange-Correlation Energy =       0.0000000000000000
    Empirical Dispersion Energy =           0.0000000000000000
    PCM Polarization Energy =               0.0000000000000000
    EFP Energy =                            0.0000000000000000
    Total Energy =                       -387.2702510951053227
    Molecular point group: c1
  Basis Set: CC-PVTZ
  Basis Set:

  -Total Gradient:
     Atom            X                  Y                   Z
    ------   -----------------  -----------------  -----------------
       1       -0.000016419562     0.000026344146     0.000740795438
       2       -0.000043935156     0.000035761037    -0.001122118292
       3        0.000368054221    -0.000607519629     0.000763261948
       4       -0.000021619987     0.000069899889     0.000039001031
       5        0.000020998952    -0.000039694537     0.000009650202
       6       -0.000282660496     0.000539712343    -0.000400636434
       7       -0.000006896269    -0.000001452449    -0.000001965005
       8       -0.000007364301     0.000027202493    -0.000004365761
       9       -0.000005357888    -0.000004626770     0.000009486747
      10       -0.000007616902    -0.000014264574    -0.000012094634
      11       -0.000007435337    -0.000027307932    -0.000000369277
      12        0.000011853040     0.000006730289     0.000008228993
      13        0.000009494997     0.000010940549    -0.000006188024
      14       -0.000005816244     0.000031327741    -0.000005138801
      15       -0.000006235556    -0.000005233885     0.000006325706
      16       -0.000008664490    -0.000006231945    -0.000006396593
      17       -0.000019101866    -0.000011793051     0.000006334966
      18        0.000007738859     0.000003936399     0.000004949719
      19        0.000003812193     0.000006197245    -0.000004873408
      20        0.000002209011    -0.000004636485     0.000006398790
      21       -0.000006850445     0.000008941077    -0.000000916195
      22        0.000000018504    -0.000001969721    -0.000007049633
      23        0.000015062318    -0.000002897584    -0.000019493105
      24       -0.000006436429    -0.000011401885    -0.000004697957
      25        0.000013168829    -0.000027962765     0.000001869579

  **** Optimization is complete! (in 7 steps) ****
    Final optimized geometry and variables:
    Molecular point group: c1

    Geometry (in Angstrom), charge = 0, multiplicity = 1:

    O            3.890076801591    -0.612027408156    -0.137855178888
    C            2.908193069609     0.046583844416    -0.020395961223
    C            1.547670061316    -0.638960698387    -0.016929971880
    C            2.998461995708     1.544750069352     0.150293629771
    C            0.296087966219     0.234434026779    -0.004840749303
    H            1.540302227650    -1.288373350352    -0.885248709355
    H            1.552292445464    -1.296564532575     0.847008511332
    C           -0.985105981777    -0.596117535233    -0.002245816709
    H            0.291448879862     0.887299157736    -0.872721426876
    H            0.298776368426     0.881534020939     0.866767744170
    C           -2.253818599548     0.251480780101     0.004979463052
    H           -0.991885238979    -1.246424323971    -0.873249798885
    H           -0.985086891596    -1.251101216346     0.865403652037
    C           -3.535644186037    -0.576616626698     0.007472858109
    H           -2.253406359209     0.906770221697    -0.862914967024
    H           -2.246911337795     0.901978881422     0.876471962562
    C           -4.799934451778     0.276074423783     0.014552813863
    H           -3.544426161071    -1.226216154988    -0.863418411044
    H           -3.538000328520    -1.231046018066     0.874800783580
    H           -4.844423292889     0.917447612259    -0.859381115931
    H           -5.690304487786    -0.341935799936     0.016157282261
    H           -4.837920039016     0.912658326213     0.892297204085
    H            2.554307426878     1.843592540145     1.093023397928
    H            4.035409229215     1.841483283382     0.127371299761
    H            2.454271763646     2.053141268028    -0.636759680474

  Mulliken Charges: (a.u.)
   Center  Symbol    Alpha    Beta     Spin     Total
       1     O     4.17688  4.17688  0.00000 -0.35377
       2     C     2.86139  2.86139  0.00000  0.27722
       3     C     3.10038  3.10038  0.00000 -0.20075
       4     C     3.16337  3.16337  0.00000 -0.32673
       5     C     3.10295  3.10295  0.00000 -0.20591
       6     H     0.43712  0.43712  0.00000  0.12576
       7     H     0.43824  0.43824  0.00000  0.12352
       8     C     3.08990  3.08990  0.00000 -0.17981
       9     H     0.45006  0.45006  0.00000  0.09987
      10     H     0.45065  0.45065  0.00000  0.09870
      11     C     3.08570  3.08570  0.00000 -0.17141
      12     H     0.45203  0.45203  0.00000  0.09593
      13     H     0.45259  0.45259  0.00000  0.09482
      14     C     3.08527  3.08527  0.00000 -0.17053
      15     H     0.45479  0.45479  0.00000  0.09041
      16     H     0.45496  0.45496  0.00000  0.09009
      17     C     3.15028  3.15028  0.00000 -0.30056
      18     H     0.45380  0.45380  0.00000  0.09241
      19     H     0.45391  0.45391  0.00000  0.09218
      20     H     0.45496  0.45496  0.00000  0.09009
      21     H     0.44762  0.44762  0.00000  0.10477
      22     H     0.45503  0.45503  0.00000  0.08995
      23     H     0.44788  0.44788  0.00000  0.10423
      24     H     0.43187  0.43187  0.00000  0.13627
      25     H     0.44838  0.44838  0.00000  0.10323

   Total alpha = 36.00000, Total beta = 36.00000, Total charge = -0.00000

*** Psi4 exiting successfully. Buy a developer a beer!
