  ==> Input File <==

--------------------------------------------------------------------------
set {
	reference rhf
	basis 6-31G*
}

set_num_threads( 4 )
memory 2 gb

molecule MOL {
0 1

H	 5.268524	 0.192471	 1.070992
C	 4.673736	 -0.214914	 0.259335
C	 3.185378	 -0.203514	 0.605509
H	 4.871837	 0.380453	 -0.627026
H	 5.025590	 -1.224632	 0.065769
C	 2.317601	 -0.778379	 -0.516234
H	 2.874655	 0.814325	 0.817774
H	 3.023650	 -0.778480	 1.515976
C	 3.063214	 -0.963506	 -1.837997
H	 1.907946	 -1.733200	 -0.206163
H	 1.474637	 -0.113256	 -0.689624
C	 4.081867	 -2.093782	 -1.830033
H	 2.353270	 -1.191813	 -2.631486
H	 3.554374	 -0.041048	 -2.139674
C	 5.127774	 -2.104286	 -2.931251
O	 4.054943	 -2.954547	 -1.002529
C	 4.538446	 -2.251516	 -4.341988
H	 5.802285	 -2.925249	 -2.719664
H	 5.699240	 -1.179692	 -2.874354
C	 5.622460	 -2.356808	 -5.416437
H	 3.910111	 -3.138968	 -4.377188
H	 3.894860	 -1.405300	 -4.568231
C	 5.048427	 -2.503752	 -6.824910
H	 6.264052	 -3.206502	 -5.196345
H	 6.257151	 -1.474327	 -5.374139
H	 4.434667	 -3.396103	 -6.906966
H	 4.428957	 -1.650971	 -7.087843
H	 5.839711	 -2.577716	 -7.564016

	symmetry c1
}
set optking {
	frozen_dihedral = ("
		10 6 3 2
	")
}

ee = optimize('scf')
oeprop('DIPOLE', 'QUADRUPOLE', 'MULLIKEN_CHARGES')
f=open( 'psi4out.xyz', 'w' )
f.write( "28  " )
f.write( str(ee) + "\n" )
f.write( MOL.save_string_xyz() )
f.close()
--------------------------------------------------------------------------

    Molecular point group: c1
  Charge       = 0
  Multiplicity = 1
  Basis Set: 6-31G*
  Basis Set:
  @DF-RHF Final Energy:  -426.15143523481845
    Total Energy =                       -426.1514352348186776
    Molecular point group: c1
  Basis Set: 6-31G*
  Basis Set:
  Basis Set: 6-31G*
  Basis Set:
  @DF-RHF Final Energy:  -426.15724662603895
    Total Energy =                       -426.1572466260390684
  Basis Set: 6-31G*
  Basis Set:
  Basis Set: 6-31G*
  Basis Set:
  @DF-RHF Final Energy:  -426.15868083639521
    Total Energy =                       -426.1586808363946375
  Basis Set: 6-31G*
  Basis Set:
  Basis Set: 6-31G*
  Basis Set:
  @DF-RHF Final Energy:  -426.15900827665212
    Total Energy =                       -426.1590082766522301
  Basis Set: 6-31G*
  Basis Set:
  @DF-RHF Final Energy:  -426.15907311237686
    Total Energy =                       -426.1590731123769729
  @DF-RHF Final Energy:  -426.15967454592158
    Total Energy =                       -426.1596745459214617
  Basis Set: 6-31G*
  Basis Set:
  @DF-RHF Final Energy:  -426.15971574993830
    Total Energy =                       -426.1597157499381865
  Basis Set: 6-31G*
  Basis Set:
  Basis Set: 6-31G*
  Basis Set:
  @DF-RHF Final Energy:  -426.15966240859780
    Total Energy =                       -426.1596624085980238
  Basis Set: 6-31G*
  Basis Set:
  Basis Set: 6-31G*
  Basis Set:
  @DF-RHF Final Energy:  -426.15972412983706
    Total Energy =                       -426.1597241298370591
  Basis Set: 6-31G*
  Basis Set:
  Charge       = 0
  Multiplicity = 1
  Basis Set: 6-31G*
  Basis Set:

    Orbital Energies (a.u.)
    -----------------------

    Doubly Occupied:

       1A    -20.546843     2A    -11.321519     3A    -11.232254
       4A    -11.229808     5A    -11.228450     6A    -11.225935
       7A    -11.217126     8A    -11.216210     9A    -11.215326
      10A    -11.207522    11A     -1.392334    12A     -1.094716
      13A     -1.074123    14A     -1.020599    15A     -0.988992
      16A     -0.912962    17A     -0.881515    18A     -0.808715
      19A     -0.790527    20A     -0.719738    21A     -0.667975
      22A     -0.650782    23A     -0.636078    24A     -0.623175
      25A     -0.606204    26A     -0.594292    27A     -0.578168
      28A     -0.551823    29A     -0.548662    30A     -0.534872
      31A     -0.528786    32A     -0.509059    33A     -0.505982
      34A     -0.484477    35A     -0.477829    36A     -0.473698
      37A     -0.469873    38A     -0.456766    39A     -0.452382
      40A     -0.391773

  @DF-RHF Final Energy:  -426.15972457870510

   => Energetics <=

    Nuclear Repulsion Energy =            541.8954238563907211
    One-Electron Energy =               -1651.9745548197811331
    Two-Electron Energy =                 683.9194063846853169
    DFT Exchange-Correlation Energy =       0.0000000000000000
    Empirical Dispersion Energy =           0.0000000000000000
    PCM Polarization Energy =               0.0000000000000000
    EFP Energy =                            0.0000000000000000
    Total Energy =                       -426.1597245787052088
    Molecular point group: c1
  Basis Set: 6-31G*
  Basis Set:

  -Total Gradient:
     Atom            X                  Y                   Z
    ------   -----------------  -----------------  -----------------
       1        0.000008394908     0.000017835812     0.000010971396
       2       -0.000214296276     0.001967121853    -0.000968030796
       3       -0.000270405729    -0.002541343256     0.001629379656
       4       -0.000006932895    -0.000013815634     0.000008270610
       5        0.000016262383    -0.000031682388    -0.000020092294
       6        0.002926177326    -0.000693719270    -0.001567134696
       7       -0.000017365442    -0.000005263735    -0.000007090407
       8        0.000000987820     0.000000402772     0.000008067318
       9        0.000009694319    -0.000002213711     0.000007907425
      10       -0.002446671169     0.001296204244     0.000922021752
      11        0.000005074225    -0.000011429885    -0.000016110385
      12       -0.000030776483    -0.000002895737    -0.000005808039
      13        0.000005274263    -0.000010946327    -0.000004666992
      14        0.000016084475     0.000011285935    -0.000002420990
      15       -0.000002429429     0.000047098418    -0.000011368098
      16        0.000004830146     0.000005165402     0.000018214544
      17       -0.000000135513    -0.000005264331    -0.000009490875
      18       -0.000019912218     0.000004363888     0.000004483670
      19        0.000014560584     0.000004646236     0.000004937343
      20        0.000000186376    -0.000031425038     0.000001445679
      21        0.000011456728    -0.000009551627     0.000010384769
      22       -0.000011275081    -0.000014587602    -0.000010724570
      23       -0.000000437177     0.000035084494    -0.000001566117
      24       -0.000007628834    -0.000013965341    -0.000013151168
      25        0.000008073323    -0.000010474560     0.000010865148
      26        0.000011059655    -0.000000870758     0.000005472193
      27       -0.000010474690    -0.000001153294    -0.000004659743
      28        0.000000624404     0.000011393444    -0.000000106345

  **** Optimization is complete! (in 10 steps) ****
    Final optimized geometry and variables:
    Molecular point group: c1

    Geometry (in Angstrom), charge = 0, multiplicity = 1:

    H            0.923089414558     2.099583869158     3.782774257746
    C            0.508304287770     1.605934935392     2.909255556740
    C           -1.013897738331     1.508945721116     3.043991149809
    H            0.803913572109     2.190594001776     2.043343013605
    H            0.971909497673     0.628960500396     2.836762410159
    C           -1.799863897588     0.851955240235     1.876513833803
    H           -1.393190631374     2.517185420524     3.188063016803
    H           -1.244741547800     0.973230728702     3.958801855566
    C           -1.068300088969     0.657134113390     0.546517169120
    H           -2.191268234741    -0.105892639827     2.194641374283
    H           -2.671162934781     1.468253133033     1.674420595981
    C           -0.097141733925    -0.513473989378     0.518168521203
    H           -1.806847897068     0.448750579133    -0.226493569808
    H           -0.561627776763     1.562034013637     0.225006339551
    C            0.946512393342    -0.532613105919    -0.584746508095
    O           -0.166076330902    -1.402099759949     1.313223386323
    C            0.347675098998    -0.622972527539    -1.996444374051
    H            1.591351487482    -1.382694992803    -0.397117298914
    H            1.550717582138     0.369149296449    -0.506257847831
    C            1.423892059097    -0.732994679752    -3.078211783104
    H           -0.308339631041    -1.488997758997    -2.052534693829
    H           -0.269868944984     0.248847140195    -2.196813143914
    C            0.840514083654    -0.817224231239    -4.487994771576
    H            2.036434789520    -1.610571896986    -2.886614883297
    H            2.088821814343     0.125426270987    -3.012014872103
    H            0.197089069202    -1.685743118459    -4.594712322469
    H            0.248908598903     0.063361407488    -4.721857857031
    H            1.626400702740    -0.894556047125    -5.232529137515

  Mulliken Charges: (a.u.)
   Center  Symbol    Alpha    Beta     Spin     Total
       1     H     0.41785  0.41785  0.00000  0.16430
       2     C     3.25128  3.25128  0.00000 -0.50256
       3     C     3.15157  3.15157  0.00000 -0.30313
       4     H     0.42665  0.42665  0.00000  0.14670
       5     H     0.40966  0.40966  0.00000  0.18068
       6     C     3.15588  3.15588  0.00000 -0.31175
       7     H     0.42306  0.42306  0.00000  0.15388
       8     H     0.41542  0.41542  0.00000  0.16917
       9     C     3.21461  3.21461  0.00000 -0.42921
      10     H     0.40283  0.40283  0.00000  0.19435
      11     H     0.41985  0.41985  0.00000  0.16031
      12     C     2.72772  2.72772  0.00000  0.54456
      13     H     0.40273  0.40273  0.00000  0.19453
      14     H     0.41142  0.41142  0.00000  0.17717
      15     C     3.20221  3.20221  0.00000 -0.40442
      16     O     4.26878  4.26878  0.00000 -0.53757
      17     C     3.16397  3.16397  0.00000 -0.32794
      18     H     0.39993  0.39993  0.00000  0.20015
      19     H     0.41266  0.41266  0.00000  0.17467
      20     C     3.15176  3.15176  0.00000 -0.30352
      21     H     0.41362  0.41362  0.00000  0.17276
      22     H     0.41866  0.41866  0.00000  0.16267
      23     C     3.24033  3.24033  0.00000 -0.48065
      24     H     0.41836  0.41836  0.00000  0.16328
      25     H     0.42146  0.42146  0.00000  0.15708
      26     H     0.41961  0.41961  0.00000  0.16079
      27     H     0.42123  0.42123  0.00000  0.15753
      28     H     0.41690  0.41690  0.00000  0.16619

   Total alpha = 40.00000, Total beta = 40.00000, Total charge = -0.00000
