  ==> Input File <==

--------------------------------------------------------------------------
set {
	reference rhf
	basis 6-31G*
}

set_num_threads( 4 )
memory 2 gb

molecule MOL {
0 1

H	 5.290045	 0.585324	 1.041588
C	 4.711899	 0.066501	 0.283239
C	 3.227392	 0.036878	 0.644539
H	 4.872447	 0.576875	 -0.661792
H	 5.114879	 -0.938330	 0.189844
C	 2.383301	 -0.694274	 -0.401759
H	 2.865189	 1.053816	 0.755200
H	 3.102262	 -0.448878	 1.611014
C	 0.894848	 -0.755909	 -0.058282
H	 2.502643	 -0.213232	 -1.366124
H	 2.752040	 -1.712051	 -0.507607
C	 0.169600	 0.576866	 -0.172154
H	 0.389545	 -1.442504	 -0.735797
H	 0.742648	 -1.162213	 0.939180
C	 -1.181045	 0.701995	 0.511084
O	 0.630568	 1.489292	 -0.789724
C	 -2.285934	 -0.139295	 -0.145128
H	 -1.449051	 1.751551	 0.493206
H	 -1.071135	 0.403303	 1.551943
C	 -3.651768	 0.085446	 0.506485
H	 -2.346596	 0.110469	 -1.202272
H	 -2.034737	 -1.195320	 -0.088721
C	 -4.759797	 -0.746382	 -0.137905
H	 -3.908762	 1.140117	 0.445781
H	 -3.588286	 -0.154158	 1.565709
H	 -4.868882	 -0.505166	 -1.191300
H	 -4.548009	 -1.809175	 -0.062213
H	 -5.715422	 -0.564821	 0.343442

	symmetry c1
}
set optking {
	frozen_dihedral = ("
		16 12 15 17
	")
}

ee = optimize('scf')
oeprop('DIPOLE', 'QUADRUPOLE', 'MULLIKEN_CHARGES')
f=open( 'psi4out.xyz', 'w' )
f.write( "28  " )
f.write( str(ee) + "\n" )
f.write( MOL.save_string_xyz() )
f.close()
--------------------------------------------------------------------------

    Molecular point group: c1
  Charge       = 0
  Multiplicity = 1
  Basis Set: 6-31G*
  Basis Set:
  @DF-RHF Final Energy:  -426.16914532664680
    Total Energy =                       -426.1691453266465714
    Molecular point group: c1
  Basis Set: 6-31G*
  Basis Set:
  Basis Set: 6-31G*
  Basis Set:
  @DF-RHF Final Energy:  -426.16835893139660
    Total Energy =                       -426.1683589313963694
  Basis Set: 6-31G*
  Basis Set:
  Basis Set: 6-31G*
  Basis Set:
  @DF-RHF Final Energy:  -426.16915122567718
    Total Energy =                       -426.1691512256771830
  Basis Set: 6-31G*
  Basis Set:
  Basis Set: 6-31G*
  Basis Set:
  @DF-RHF Final Energy:  -426.16889922722248
    Total Energy =                       -426.1688992272220275
  Basis Set: 6-31G*
  Basis Set:
  Basis Set: 6-31G*
  Basis Set:
  @DF-RHF Final Energy:  -426.16917653618555
    Total Energy =                       -426.1691765361852049
  Basis Set: 6-31G*
  Basis Set:
  Basis Set: 6-31G*
  Basis Set:
  @DF-RHF Final Energy:  -426.16918662416197
    Total Energy =                       -426.1691866241621938
  Basis Set: 6-31G*
  Basis Set:
  Charge       = 0
  Multiplicity = 1
  Basis Set: 6-31G*
  Basis Set:

    Orbital Energies (a.u.)
    -----------------------

    Doubly Occupied:

       1A    -20.548141     2A    -11.322114     3A    -11.232400
       4A    -11.229911     5A    -11.228651     6A    -11.225968
       7A    -11.216327     8A    -11.216176     9A    -11.212032
      10A    -11.205551    11A     -1.393227    12A     -1.094816
      13A     -1.077349    14A     -1.022500    15A     -0.990735
      16A     -0.907448    17A     -0.872555    18A     -0.809107
      19A     -0.799250    20A     -0.723391    21A     -0.669446
      22A     -0.652219    23A     -0.627824    24A     -0.619552
      25A     -0.609114    26A     -0.588376    27A     -0.576055
      28A     -0.574814    29A     -0.542597    30A     -0.533127
      31A     -0.520708    32A     -0.504606    33A     -0.501478
      34A     -0.484505    35A     -0.478280    36A     -0.475928
      37A     -0.471478    38A     -0.464763    39A     -0.454855
      40A     -0.392217

  @DF-RHF Final Energy:  -426.16918612245695

   => Energetics <=

    Nuclear Repulsion Energy =            530.8600849216174993
    One-Electron Energy =               -1629.9193600813744069
    Two-Electron Energy =                 672.8900890372998447
    DFT Exchange-Correlation Energy =       0.0000000000000000
    Empirical Dispersion Energy =           0.0000000000000000
    PCM Polarization Energy =               0.0000000000000000
    EFP Energy =                            0.0000000000000000
    Total Energy =                       -426.1691861224570630
    Molecular point group: c1
  Basis Set: 6-31G*
  Basis Set:

  -Total Gradient:
     Atom            X                  Y                   Z
    ------   -----------------  -----------------  -----------------
       1       -0.000002106215    -0.000006155892     0.000003349707
       2       -0.000001077014    -0.000007423481     0.000003110447
       3        0.000004615950    -0.000003407726     0.000008876037
       4       -0.000006906851     0.000000720080     0.000006477900
       5        0.000001527523    -0.000003321289    -0.000001716169
       6       -0.000008580267     0.000008057501    -0.000023310546
       7        0.000020053741     0.000011323188    -0.000004014925
       8       -0.000011590590     0.000006306086    -0.000000809128
       9        0.000018206940    -0.000018727259     0.000080345363
      10       -0.000005843528     0.000009973416    -0.000005966840
      11       -0.000004117513     0.000005281182    -0.000011969748
      12        0.000016976625     0.000069951717     0.000026803067
      13        0.000002832866     0.000017555510    -0.000014122109
      14        0.000008224280    -0.000012800537    -0.000002895481
      15        0.000036177295    -0.000164291778     0.000125652626
      16       -0.000035559344    -0.000042069805    -0.000092887527
      17       -0.000013686098     0.000094407907    -0.000081616069
      18       -0.000019204251    -0.000019738533    -0.000037426899
      19       -0.000023302013     0.000019218795     0.000024163781
      20       -0.000006356463     0.000030873211    -0.000009110988
      21        0.000015461439     0.000024260489     0.000009454547
      22        0.000003165102    -0.000002843198    -0.000013997247
      23        0.000015836810    -0.000031965782     0.000021176292
      24       -0.000011632845     0.000000917194    -0.000020452507
      25        0.000002820644     0.000019911697     0.000001165618
      26        0.000000241238     0.000010400880     0.000010415449
      27       -0.000000939043    -0.000008288127    -0.000011711494
      28        0.000004761584    -0.000008125449     0.000011016847

  **** Optimization is complete! (in 7 steps) ****
    Final optimized geometry and variables:
    Molecular point group: c1

    Geometry (in Angstrom), charge = 0, multiplicity = 1:

    H            5.300141138129     0.498281908549     0.958333170601
    C            4.701305164066    -0.017630639370     0.214194561273
    C            3.224262148136    -0.030029787017     0.605696898962
    H            4.847934691730     0.487050989829    -0.736149639635
    H            5.091842032072    -1.027046972999     0.117121773907
    C            2.351643866389    -0.757629509933    -0.419511256816
    H            2.874683397431     0.990974687394     0.718617554474
    H            3.113843669233    -0.509993991928     1.576849260252
    C            0.870631586242    -0.806055841604    -0.043640206795
    H            2.454247606882    -0.280987500432    -1.388040802099
    H            2.709749871369    -1.778740441498    -0.529574269010
    C            0.150341951898     0.529658232691    -0.154410141927
    H            0.346415523132    -1.496743056192    -0.702354372057
    H            0.737543966119    -1.200893403772     0.961068722880
    C           -1.207448267008     0.652161795669     0.515484874030
    O            0.614550975278     1.443331488350    -0.767739480323
    C           -2.293082850382    -0.197887389428    -0.162782978350
    H           -1.483574398135     1.699308942927     0.483274076461
    H           -1.118372837307     0.359290479393     1.559309449545
    C           -3.673747068646     0.016581159918     0.460287419225
    H           -2.332190657984     0.051866219341    -1.220674318500
    H           -2.034815049471    -1.252022513591    -0.100355729812
    C           -4.760112386228    -0.830110099775    -0.201427282908
    H           -3.939937716784     1.068254467370     0.388250978471
    H           -3.629159681648    -0.216561977943     1.521914150522
    H           -4.851429551709    -0.594672869521    -1.257785913121
    H           -4.538372117621    -1.890195378162    -0.116801973689
    H           -5.726725702359    -0.656837232751     0.260709306422

  Mulliken Charges: (a.u.)
   Center  Symbol    Alpha    Beta     Spin     Total
       1     H     0.41936  0.41936  0.00000  0.16127
       2     C     3.24013  3.24013  0.00000 -0.48026
       3     C     3.15636  3.15636  0.00000 -0.31271
       4     H     0.41837  0.41837  0.00000  0.16326
       5     H     0.42369  0.42369  0.00000  0.15262
       6     C     3.14908  3.14908  0.00000 -0.29816
       7     H     0.41008  0.41008  0.00000  0.17984
       8     H     0.42776  0.42776  0.00000  0.14449
       9     C     3.21175  3.21175  0.00000 -0.42350
      10     H     0.40682  0.40682  0.00000  0.18635
      11     H     0.42200  0.42200  0.00000  0.15601
      12     C     2.73334  2.73334  0.00000  0.53333
      13     H     0.40306  0.40306  0.00000  0.19389
      14     H     0.41293  0.41293  0.00000  0.17414
      15     C     3.20011  3.20011  0.00000 -0.40022
      16     O     4.26635  4.26635  0.00000 -0.53271
      17     C     3.16376  3.16376  0.00000 -0.32752
      18     H     0.40001  0.40001  0.00000  0.19998
      19     H     0.41388  0.41388  0.00000  0.17224
      20     C     3.15176  3.15176  0.00000 -0.30352
      21     H     0.41254  0.41254  0.00000  0.17492
      22     H     0.41899  0.41899  0.00000  0.16201
      23     C     3.24037  3.24037  0.00000 -0.48075
      24     H     0.41835  0.41835  0.00000  0.16330
      25     H     0.42154  0.42154  0.00000  0.15693
      26     H     0.41946  0.41946  0.00000  0.16108
      27     H     0.42122  0.42122  0.00000  0.15755
      28     H     0.41693  0.41693  0.00000  0.16613

   Total alpha = 40.00000, Total beta = 40.00000, Total charge =  0.00000
