  ==> Input File <==

--------------------------------------------------------------------------
set {
	reference rhf
	basis cc-pvtz
}

set_num_threads( 4 )
memory 2 gb

molecule MOL {
0 1

H	 2.614283	 2.028610	 0.296620
O	 3.358864	 1.662087	 -0.142800
C	 3.565468	 0.338079	 0.273842
C	 2.533667	 -0.637565	 -0.272227
H	 4.548038	 0.064914	 -0.086598
H	 3.593945	 0.282242	 1.360360
C	 1.114816	 -0.402372	 0.240993
H	 2.544552	 -0.580764	 -1.356576
H	 2.850574	 -1.642962	 -0.005497
C	 0.113298	 -1.420414	 -0.302504
H	 0.796373	 0.598427	 -0.031033
H	 1.113377	 -0.446476	 1.328807
C	 -1.310443	 -1.278919	 0.238973
H	 0.092462	 -1.356251	 -1.387711
H	 0.472791	 -2.418081	 -0.066085
C	 -2.041926	 -0.008125	 -0.189697
H	 -1.887808	 -2.137887	 -0.091711
H	 -1.287759	 -1.331693	 1.325184
C	 -3.489453	 0.039474	 0.292806
H	 -2.024395	 0.066059	 -1.274896
H	 -1.519687	 0.867621	 0.183584
C	 -4.221596	 1.308675	 -0.130264
H	 -4.022987	 -0.827321	 -0.087439
H	 -3.509199	 -0.043055	 1.376255
H	 -4.247277	 1.403939	 -1.210775
H	 -5.245514	 1.309015	 0.225685
H	 -3.733797	 2.193051	 0.266324

	symmetry c1
}
set optking {
	frozen_dihedral = ("
		14 10 7 4
	")
}

ee = optimize('scf')
oeprop('DIPOLE', 'QUADRUPOLE', 'MULLIKEN_CHARGES')
f=open( 'psi4out.xyz', 'w' )
f.write( "27  " )
f.write( str(ee) + "\n" )
f.write( MOL.save_string_xyz() )
f.close()
--------------------------------------------------------------------------

    Molecular point group: c1
  Charge       = 0
  Multiplicity = 1
  Basis Set: CC-PVTZ
  Basis Set:
  @DF-RHF Final Energy:  -388.42778856219201
    Total Energy =                       -388.4277885621919495
    Molecular point group: c1
  Basis Set: CC-PVTZ
  Basis Set:
  Charge       = 0
  Multiplicity = 1
  Basis Set: CC-PVTZ
  Basis Set:

    Orbital Energies (a.u.)
    -----------------------

    Doubly Occupied:

       1A    -20.545347     2A    -11.264991     3A    -11.216737
       4A    -11.214697     5A    -11.213889     6A    -11.213255
       7A    -11.213236     8A    -11.211859     9A    -11.207261
      10A     -1.363244    11A     -1.096229    12A     -1.062577
      13A     -1.012529    14A     -0.949413    15A     -0.888681
      16A     -0.820536    17A     -0.801919    18A     -0.778288
      19A     -0.696276    20A     -0.652674    21A     -0.639505
      22A     -0.616034    23A     -0.601847    24A     -0.583520
      25A     -0.580996    26A     -0.553635    27A     -0.541256
      28A     -0.532660    29A     -0.505773    30A     -0.495372
      31A     -0.485352    32A     -0.474389    33A     -0.469392
      34A     -0.461396    35A     -0.452608    36A     -0.442646
      37A     -0.425677

  @DF-RHF Final Energy:  -388.42778841192165

   => Energetics <=

    Nuclear Repulsion Energy =            460.2456656195545861
    One-Electron Energy =               -1438.7755144513057530
    Two-Electron Energy =                 590.1020604198297406
    DFT Exchange-Correlation Energy =       0.0000000000000000
    Empirical Dispersion Energy =           0.0000000000000000
    PCM Polarization Energy =               0.0000000000000000
    EFP Energy =                            0.0000000000000000
    Total Energy =                       -388.4277884119214832
    Molecular point group: c1
  Basis Set: CC-PVTZ
  Basis Set:

  -Total Gradient:
     Atom            X                  Y                   Z
    ------   -----------------  -----------------  -----------------
       1        0.000013346203     0.000007824364    -0.000004838415
       2       -0.000023240358     0.000002630849     0.000019100462
       3        0.000031415896    -0.000020042313    -0.000019459156
       4       -0.000004916947    -0.000008132806     0.000010555453
       5        0.000002944246     0.000000972182     0.000005049331
       6       -0.000002109825     0.000009276349    -0.000004567964
       7        0.000005605186    -0.000041249458     0.000013348383
       8        0.000012966691     0.000025917676     0.000019026845
       9       -0.000013232424    -0.000011769750    -0.000013650313
      10       -0.000015493834     0.000029807935    -0.000000881483
      11       -0.000072166153     0.000030745400    -0.000002566763
      12        0.000018322351     0.000013163309    -0.000050316559
      13       -0.000026023284    -0.000030232927     0.000005212990
      14        0.000039188309    -0.000043534985     0.000011624358
      15        0.000026835599     0.000015797453     0.000010055332
      16        0.000013663960    -0.000007102111    -0.000000690621
      17       -0.000014173615     0.000020956744    -0.000009313478
      18       -0.000020121377    -0.000018276313    -0.000003406454
      19       -0.000002645793     0.000007590210     0.000000181504
      20       -0.000009462120    -0.000012366008     0.000015706706
      21        0.000033135756     0.000020154339    -0.000004347597
      22       -0.000000468033     0.000007909496     0.000008940997
      23        0.000007524750     0.000003513111    -0.000004366950
      24       -0.000001463725    -0.000000312016    -0.000003354246
      25        0.000000194639    -0.000005256819     0.000003477598
      26        0.000000542125     0.000002460110     0.000001818770
      27       -0.000000168213    -0.000000444022    -0.000002338729

  **** Optimization is complete! (in 2 steps) ****
    Final optimized geometry and variables:
    Molecular point group: c1

    Geometry (in Angstrom), charge = 0, multiplicity = 1:

    H            2.612715422751     2.029167650598     0.302769042646
    O            3.357092140338     1.664794025660    -0.138480484331
    C            3.564490280706     0.339069927413     0.272113870105
    C            2.532740363829    -0.634508472155    -0.277546184377
    H            4.546996523004     0.067893071172    -0.089957026894
    H            3.593494869750     0.278621664341     1.358326257667
    C            1.112991668400    -0.398466587980     0.232676372663
    H            2.546159240293    -0.575859343239    -1.361687895716
    H            2.847929295581    -1.640690987324    -0.011814570024
    C            0.114043871802    -1.422700352834    -0.303686094436
    H            0.792391997663     0.599614529515    -0.046760835308
    H            1.110987261891    -0.434591540872     1.320661510965
    C           -1.310311657415    -1.280577464080     0.236084584806
    H            0.093885733672    -1.366966653068    -1.389328736463
    H            0.475965639733    -2.417594113982    -0.059572600450
    C           -2.040525361465    -0.009260811470    -0.193044486773
    H           -1.887906374186    -2.138959669010    -0.095528253596
    H           -1.289087858517    -1.333695686550     1.322267257055
    C           -3.487663143159     0.040586868760     0.290188124847
    H           -2.023567812191     0.063980108764    -1.278250127289
    H           -1.517014814640     0.866138784676     0.179184018688
    C           -4.217952997754     1.311115485684    -0.131901830666
    H           -4.022811952908    -0.825163127652    -0.090079881922
    H           -3.506928751323    -0.042311148318     1.373568710457
    H           -4.244997887496     1.406315992299    -1.212345314266
    H           -5.241320421113     1.313507474539     0.225492069389
    H           -3.727867633360     2.194557614067     0.263865520046

  Mulliken Charges: (a.u.)
   Center  Symbol    Alpha    Beta     Spin     Total
       1     H     0.39229  0.39229  0.00000  0.21542
       2     O     4.20551  4.20551  0.00000 -0.41102
       3     C     2.97997  2.97997  0.00000  0.04007
       4     C     3.08918  3.08918  0.00000 -0.17836
       5     H     0.44858  0.44858  0.00000  0.10285
       6     H     0.46971  0.46971  0.00000  0.06059
       7     C     3.10273  3.10273  0.00000 -0.20546
       8     H     0.45076  0.45076  0.00000  0.09849
       9     H     0.45519  0.45519  0.00000  0.08961
      10     C     3.09856  3.09856  0.00000 -0.19712
      11     H     0.45569  0.45569  0.00000  0.08861
      12     H     0.45376  0.45376  0.00000  0.09247
      13     C     3.09804  3.09804  0.00000 -0.19608
      14     H     0.45165  0.45165  0.00000  0.09670
      15     H     0.44804  0.44804  0.00000  0.10392
      16     C     3.08796  3.08796  0.00000 -0.17592
      17     H     0.44797  0.44797  0.00000  0.10406
      18     H     0.45386  0.45386  0.00000  0.09227
      19     C     3.08407  3.08407  0.00000 -0.16813
      20     H     0.45406  0.45406  0.00000  0.09189
      21     H     0.45545  0.45545  0.00000  0.08910
      22     C     3.14960  3.14960  0.00000 -0.29920
      23     H     0.45374  0.45374  0.00000  0.09252
      24     H     0.45472  0.45472  0.00000  0.09056
      25     H     0.45484  0.45484  0.00000  0.09032
      26     H     0.44829  0.44829  0.00000  0.10342
      27     H     0.45579  0.45579  0.00000  0.08842

   Total alpha = 37.00000, Total beta = 37.00000, Total charge =  0.00000
