                              Psi4 1.0.54 Driver

  ==> Input File <==

--------------------------------------------------------------------------
set {
	reference rhf
	basis cc-pvtz
}

set_num_threads( 4 )
memory 2 gb

molecule MOL {
0 1

H	 -0.079617	 1.586602	 1.003470
C	 0.836578	 1.117224	 0.663719
N	 0.526300	 -0.128137	 0.000000
H	 1.450168	 0.926083	 1.534932
H	 1.359727	 1.834624	 0.027934
C	 -0.247113	 0.037112	 -1.209233
H	 1.366686	 -0.625854	 -0.199220
H	 -0.996493	 -0.743733	 -1.271440
H	 0.397975	 -0.057351	 -2.073512
H	 -0.763794	 0.997171	 -1.271673

	symmetry c1
}
set optking {
	frozen_dihedral = ("
		2 3 6 8
	")
}

ee,wfn = optimize('scf', return_wfn=True)
oeprop( wfn, 'DIPOLE', 'QUADRUPOLE', 'MULLIKEN_CHARGES')
f=open( 'psi4out.xyz', 'w' )
f.write( "10  " )
f.write( str(ee) + "\n" )
f.write( MOL.save_string_xyz() )
f.close()
--------------------------------------------------------------------------

    Molecular point group: c1
  Charge       = 0
  Multiplicity = 1
  Basis Set: CC-PVTZ
  Basis Set:
  @DF-RHF Final Energy:  -134.28778629141814
    Total Energy =                       -134.2877862914179730
    Molecular point group: c1
  Basis Set: CC-PVTZ
  Basis Set:
  Basis Set: CC-PVTZ
  Basis Set:
  @DF-RHF Final Energy:  -134.28893873234352
    Total Energy =                       -134.2889387323435244
  Basis Set: CC-PVTZ
  Basis Set:
  Basis Set: CC-PVTZ
  Basis Set:
  @DF-RHF Final Energy:  -134.28913989227908
    Total Energy =                       -134.2891398922791382
  Basis Set: CC-PVTZ
  Basis Set:
  Basis Set: CC-PVTZ
  Basis Set:
  @DF-RHF Final Energy:  -134.28915757468462
    Total Energy =                       -134.2891575746845945
  Basis Set: CC-PVTZ
  Basis Set:
  Charge       = 0
  Multiplicity = 1
  Basis Set: CC-PVTZ
  Basis Set:

    Orbital Energies (a.u.)
    -----------------------

    Doubly Occupied:

       1A    -15.528935     2A    -11.234397     3A    -11.233717
       4A     -1.196329     5A     -0.947905     6A     -0.855587
       7A     -0.661210     8A     -0.609056     9A     -0.589158
      10A     -0.544994    11A     -0.512074    12A     -0.506540
      13A     -0.357593

  @DF-RHF Final Energy:  -134.28915966123915

   => Energetics <=

    Nuclear Repulsion Energy =             84.5243011074982462
    One-Electron Energy =                -348.0719360640728723
    Two-Electron Energy =                 129.2584752953355860
    DFT Exchange-Correlation Energy =       0.0000000000000000
    Empirical Dispersion Energy =           0.0000000000000000
    PCM Polarization Energy =               0.0000000000000000
    EFP Energy =                            0.0000000000000000
    Total Energy =                       -134.2891596612390117
    Molecular point group: c1
  Basis Set: CC-PVTZ
  Basis Set:

  -Total Gradient:
     Atom            X                  Y                   Z
    ------   -----------------  -----------------  -----------------
       1       -0.000003496386    -0.000010608313     0.000006701740
       2       -0.002185476844     0.000109990977     0.001415435555
       3        0.002627075961     0.000487545532    -0.001491955481
       4       -0.000004774277    -0.000006790825    -0.000002344500
       5        0.000004542001    -0.000022836937     0.000007462596
       6        0.001643443130    -0.002776514427    -0.001597679921
       7       -0.000019582911     0.000001691496    -0.000026072394
       8       -0.002039847220     0.002175989019     0.001618583270
       9       -0.000001133669     0.000015890730     0.000051162978
      10       -0.000020749785     0.000025642749     0.000018706156

  **** Optimization is complete! (in 5 steps) ****
    Final optimized geometry and variables:
    Molecular point group: c1

    Geometry (in Angstrom), charge = 0, multiplicity = 1:

    H           -0.362834676603     1.303534800362     1.169934329686
    C            0.515937384736     0.764673383391     0.836464121125
    N            0.117868127807    -0.473410292701     0.207942719034
    H            1.117856767886     0.549470611948     1.710563059245
    H            1.089243690319     1.431227119739     0.188531444399
    C           -0.660722429105    -0.329284537633    -1.007571115682
    H            0.904269902347    -1.064534366617     0.059981410788
    H           -1.456071573642    -1.064717490323    -1.046584197631
    H           -0.066470867204    -0.404116369160    -1.915496273194
    H           -1.139763577061     0.642763724241    -1.018817076545

  Mulliken Charges: (a.u.)
   Center  Symbol    Alpha    Beta     Spin     Total
       1     H     0.45692  0.45692  0.00000  0.08615
       2     C     3.08061  3.08061  0.00000 -0.16121
       3     N     3.63542  3.63542  0.00000 -0.27085
       4     H     0.45320  0.45320  0.00000  0.09360
       5     H     0.47500  0.47500  0.00000  0.05000
       6     C     3.07941  3.07941  0.00000 -0.15883
       7     H     0.43882  0.43882  0.00000  0.12236
       8     H     0.45461  0.45461  0.00000  0.09078
       9     H     0.46519  0.46519  0.00000  0.06963
      10     H     0.46082  0.46082  0.00000  0.07836

   Total alpha = 13.00000, Total beta = 13.00000, Total charge = -0.00000

*** Psi4 exiting successfully. Buy a developer a beer!
