  ==> Input File <==

--------------------------------------------------------------------------
set {
	reference rhf
	basis cc-pvtz
}

set_num_threads( 4 )
memory 2 gb

molecule MOL {
0 1

H	 -3.162190	 0.493205	 -0.000107
C	 -2.363908	 -0.234727	 0.000005
O	 -1.158738	 0.454634	 -0.000087
H	 -2.464314	 -0.863616	 -0.882153
H	 -2.464327	 -0.863359	 0.882345
C	 -0.028611	 -0.359694	 0.000037
C	 1.212847	 0.509314	 -0.000053
H	 -0.034155	 -1.007047	 -0.877198
H	 -0.034195	 -1.006836	 0.877430
C	 2.054891	 0.321939	 1.257008
H	 1.799400	 0.273622	 -0.881149
H	 0.908835	 1.545912	 -0.094886
H	 2.390438	 -0.704778	 1.358725
H	 2.934273	 0.953612	 1.230576
H	 1.494029	 0.576294	 2.150208

	symmetry c1
}
set optking {
	frozen_dihedral = ("
		11 7 6 8
	")
}

ee = optimize('scf')
oeprop('DIPOLE', 'QUADRUPOLE', 'MULLIKEN_CHARGES')
f=open( 'psi4out.xyz', 'w' )
f.write( "15  " )
f.write( str(ee) + "\n" )
f.write( MOL.save_string_xyz() )
f.close()
--------------------------------------------------------------------------

    Molecular point group: c1
  Charge       = 0
  Multiplicity = 1
  Basis Set: CC-PVTZ
  Basis Set:
  @DF-RHF Final Energy:  -232.22203134723375
    Total Energy =                       -232.2220313472337239
    Molecular point group: c1
  Basis Set: CC-PVTZ
  Basis Set:
  Basis Set: CC-PVTZ
  Basis Set:
  @DF-RHF Final Energy:  -232.22240990644823
    Total Energy =                       -232.2224099064483767
  Basis Set: CC-PVTZ
  Basis Set:
  Basis Set: CC-PVTZ
  Basis Set:
  @DF-RHF Final Energy:  -232.22252063514040
    Total Energy =                       -232.2225206351404267
  Basis Set: CC-PVTZ
  Basis Set:
  Charge       = 0
  Multiplicity = 1
  Basis Set: CC-PVTZ
  Basis Set:

    Orbital Energies (a.u.)
    -----------------------

    Doubly Occupied:

       1A    -20.547893     2A    -11.264709     3A    -11.261538
       4A    -11.212540     5A    -11.208335     6A     -1.381338
       7A     -1.054175     8A     -0.954648     9A     -0.879661
      10A     -0.808704    11A     -0.671334    12A     -0.660200
      13A     -0.633308    14A     -0.592416    15A     -0.574854
      16A     -0.545896    17A     -0.492411    18A     -0.490582
      19A     -0.481098    20A     -0.462330    21A     -0.413916

  @DF-RHF Final Energy:  -232.22252153431955

   => Energetics <=

    Nuclear Repulsion Energy =            190.4501247755897282
    One-Electron Energy =                -692.1615171011973189
    Two-Electron Energy =                 269.4888707912879227
    DFT Exchange-Correlation Energy =       0.0000000000000000
    Empirical Dispersion Energy =           0.0000000000000000
    PCM Polarization Energy =               0.0000000000000000
    EFP Energy =                            0.0000000000000000
    Total Energy =                       -232.2225215343196396
    Molecular point group: c1
  Basis Set: CC-PVTZ
  Basis Set:

  -Total Gradient:
     Atom            X                  Y                   Z
    ------   -----------------  -----------------  -----------------
       1       -0.000047478641    -0.000027394307     0.000000795739
       2       -0.000066867293     0.000052556231     0.000002080263
       3        0.000103084535    -0.000090700196    -0.000001692188
       4       -0.000000836061    -0.000003207584     0.000010183422
       5       -0.000003475772    -0.000004167375    -0.000009960783
       6       -0.000730866262     0.001175071416    -0.000795078636
       7        0.000802102234    -0.001090767343     0.000763627322
       8        0.000491345736    -0.000747021272     0.000546256643
       9       -0.000024946469     0.000009362218    -0.000007372241
      10        0.000004846883    -0.000016006180     0.000034876466
      11       -0.000511762465     0.000746171985    -0.000528218728
      12       -0.000001511717    -0.000002658948     0.000002785397
      13        0.000003738215    -0.000005571812    -0.000004022441
      14       -0.000013234212     0.000004666641    -0.000017027624
      15       -0.000004138711    -0.000000333472     0.000002767388

  **** Optimization is complete! (in 4 steps) ****
    Final optimized geometry and variables:
    Molecular point group: c1

    Geometry (in Angstrom), charge = 0, multiplicity = 1:

    H           -3.079826011821     0.370724364997    -0.243414782212
    C           -2.282913483183    -0.358858951398    -0.252627813827
    O           -1.076123372813     0.327142776744    -0.254130114703
    H           -2.389450762169    -0.981502778120    -1.138650832651
    H           -2.380563887432    -0.994134289630     0.625399166878
    C            0.051732294698    -0.494998236612    -0.266200982851
    C            1.316804252099     0.369029756346    -0.252718149205
    H            0.029912482410    -1.137855511446    -1.144247269335
    H            0.031341900748    -1.151457862679     0.602893210352
    C            2.159213780671     0.204476684130     1.007905716832
    H            1.920138055562     0.151178710751    -1.126870487978
    H            1.002028744494     1.400238649976    -0.349354524833
    H            2.509991445200    -0.816435195562     1.118289795061
    H            3.029105406854     0.850429373381     0.982146348121
    H            1.584122432133     0.454909591969     1.892755321037

  Mulliken Charges: (a.u.)
   Center  Symbol    Alpha    Beta     Spin     Total
       1     H     0.44708  0.44708  0.00000  0.10585
       2     C     3.02950  3.02950  0.00000 -0.05900
       3     O     4.17204  4.17204  0.00000 -0.34409
       4     H     0.47215  0.47215  0.00000  0.05570
       5     H     0.47297  0.47297  0.00000  0.05406
       6     C     2.96397  2.96397  0.00000  0.07205
       7     C     3.08683  3.08683  0.00000 -0.17365
       8     H     0.47255  0.47255  0.00000  0.05490
       9     H     0.47545  0.47545  0.00000  0.04909
      10     C     3.15108  3.15108  0.00000 -0.30216
      11     H     0.45258  0.45258  0.00000  0.09484
      12     H     0.44537  0.44537  0.00000  0.10925
      13     H     0.45707  0.45707  0.00000  0.08587
      14     H     0.44943  0.44943  0.00000  0.10114
      15     H     0.45193  0.45193  0.00000  0.09615

   Total alpha = 21.00000, Total beta = 21.00000, Total charge = -0.00000
