                              Psi4 1.0.54 Driver

  ==> Input File <==

--------------------------------------------------------------------------
set {
	reference rhf
	basis cc-pvtz
}

set_num_threads( 4 )
memory 2 gb

molecule MOL {
0 1

H	 -4.236644	 0.417048	 0.295269
O	 -3.521383	 -0.139085	 0.047654
C	 -2.302264	 0.528872	 0.237390
C	 -1.175688	 -0.398187	 -0.171891
H	 -2.269377	 1.437980	 -0.359447
H	 -2.184386	 0.817195	 1.279889
C	 0.196029	 0.106276	 0.266738
H	 -1.201873	 -0.515469	 -1.250677
H	 -1.365975	 -1.378728	 0.252664
C	 1.330220	 -0.826136	 -0.155230
H	 0.359542	 1.097229	 -0.145561
H	 0.212134	 0.218135	 1.348778
C	 2.719700	 -0.407669	 0.328325
H	 1.339388	 -0.911200	 -1.239363
H	 1.119001	 -1.821953	 0.224128
C	 3.241564	 0.893452	 -0.276737
H	 3.418299	 -1.204729	 0.093035
H	 2.711776	 -0.323368	 1.411960
H	 3.254204	 0.841071	 -1.360784
H	 2.634460	 1.745075	 0.005842
H	 4.254264	 1.092401	 0.054971

	symmetry c1
}
set optking {
	frozen_dihedral = ("
		2 3 4 8
	")
}

ee,wfn = optimize('scf', return_wfn=True)
oeprop( wfn, 'DIPOLE', 'QUADRUPOLE', 'MULLIKEN_CHARGES')
f=open( 'psi4out.xyz', 'w' )
f.write( "21  " )
f.write( str(ee) + "\n" )
f.write( MOL.save_string_xyz() )
f.close()
--------------------------------------------------------------------------

    Molecular point group: c1
  Charge       = 0
  Multiplicity = 1
  Basis Set: CC-PVTZ
  Basis Set:
  @DF-RHF Final Energy:  -310.33247089982552
    Total Energy =                       -310.3324708998258075
    Molecular point group: c1
  Basis Set: CC-PVTZ
  Basis Set:
  Basis Set: CC-PVTZ
  Basis Set:
  @DF-RHF Final Energy:  -310.33252545120922
    Total Energy =                       -310.3325254512093352
  Basis Set: CC-PVTZ
  Basis Set:
  Basis Set: CC-PVTZ
  Basis Set:
  @DF-RHF Final Energy:  -310.33255535443408
    Total Energy =                       -310.3325553544341915
  Basis Set: CC-PVTZ
  Basis Set:
  Basis Set: CC-PVTZ
  Basis Set:
  @DF-RHF Final Energy:  -310.33255354669808
    Total Energy =                       -310.3325535466982501
  Basis Set: CC-PVTZ
  Basis Set:
  Basis Set: CC-PVTZ
  Basis Set:
  @DF-RHF Final Energy:  -310.33255685005213
    Total Energy =                       -310.3325568500528107
  Basis Set: CC-PVTZ
  Basis Set:
  Charge       = 0
  Multiplicity = 1
  Basis Set: CC-PVTZ
  Basis Set:

    Orbital Energies (a.u.)
    -----------------------

    Doubly Occupied:

       1A    -20.545329     2A    -11.265023     3A    -11.213088
       4A    -11.212978     5A    -11.211200     6A    -11.209056
       7A    -11.206143     8A     -1.363068     9A     -1.087371
      10A     -1.034354    11A     -0.955338    12A     -0.876329
      13A     -0.807644    14A     -0.779160    15A     -0.697255
      16A     -0.661007    17A     -0.624919    18A     -0.606595
      19A     -0.587678    20A     -0.573100    21A     -0.536629
      22A     -0.521398    23A     -0.511868    24A     -0.486482
      25A     -0.481448    26A     -0.461002    27A     -0.455949
      28A     -0.444107    29A     -0.436786

  @DF-RHF Final Energy:  -310.33255698692051

   => Energetics <=

    Nuclear Repulsion Energy =            312.9227191788415894
    One-Electron Energy =               -1040.8059418036846182
    Two-Electron Energy =                 417.5506656379225205
    DFT Exchange-Correlation Energy =       0.0000000000000000
    Empirical Dispersion Energy =           0.0000000000000000
    PCM Polarization Energy =               0.0000000000000000
    EFP Energy =                            0.0000000000000000
    Total Energy =                       -310.3325569869205083
    Molecular point group: c1
  Basis Set: CC-PVTZ
  Basis Set:

  -Total Gradient:
     Atom            X                  Y                   Z
    ------   -----------------  -----------------  -----------------
       1       -0.000014585030     0.000004233745     0.000002180354
       2        0.000099641415    -0.000558022578     0.001755288281
       3        0.000225937949     0.001164775175    -0.002361301685
       4       -0.001786806108    -0.002505814474     0.000925063089
       5       -0.000010593793     0.000007023136    -0.000004321767
       6        0.000003120563    -0.000000338422     0.000008172605
       7        0.000017954700     0.000018527358    -0.000006658442
       8        0.001449779200     0.001878952607    -0.000325975469
       9        0.000005583078    -0.000012763128    -0.000002513351
      10       -0.000002183458    -0.000002093160     0.000002447450
      11       -0.000004506857     0.000008944993    -0.000004509632
      12        0.000007643258     0.000001193373     0.000004375388
      13       -0.000000366908    -0.000006714087     0.000012831910
      14       -0.000005816005     0.000001509612    -0.000008011992
      15        0.000000160239    -0.000010484707    -0.000000894711
      16       -0.000002149717     0.000010403286     0.000000910476
      17       -0.000001284753    -0.000007869807     0.000002377273
      18        0.000009003071     0.000000905841     0.000008164884
      19        0.000002776672    -0.000000065398    -0.000006944144
      20        0.000003146699     0.000005595166    -0.000002002451
      21        0.000003545780     0.000002101470     0.000001321935

  **** Optimization is complete! (in 6 steps) ****
    Final optimized geometry and variables:
    Molecular point group: c1

    Geometry (in Angstrom), charge = 0, multiplicity = 1:

    H           -4.240848353202     0.410563117437     0.203809359688
    O           -3.520884022774    -0.167069694076     0.030079357320
    C           -2.304991431869     0.515646968852     0.187073795845
    C           -1.170308804479    -0.425060147385    -0.170282164402
    H           -2.273119211152     1.397619091460    -0.448544510579
    H           -2.194169649105     0.850201183127     1.216601127934
    C            0.196854992145     0.127385972223     0.226223149821
    H           -1.186532197255    -0.603359057051    -1.240939033131
    H           -1.346226900851    -1.376689572502     0.318995407864
    C            1.346151386653    -0.790837040636    -0.185313232794
    H            0.329066617788     1.108043124321    -0.221453495664
    H            0.227896778522     0.275661666699     1.303206144952
    C            2.731131292104    -0.332531916941     0.274398815581
    H            1.347017624995    -0.901603886923    -1.267159003708
    H            1.159126694042    -1.781502289917     0.219571753912
    C            3.218443153021     0.966048434238    -0.363930449017
    H            3.444372879186    -1.119345987269     0.048821190381
    H            2.732420437252    -0.224900255366     1.355950556521
    H            3.220714231103     0.890642694253    -1.446699374398
    H            2.596119580584     1.810358816453    -0.092767533723
    H            4.230074221508     1.193652447428    -0.047778450071

  Mulliken Charges: (a.u.)
   Center  Symbol    Alpha    Beta     Spin     Total
       1     H     0.39716  0.39716  0.00000  0.20569
       2     O     4.19487  4.19487  0.00000 -0.38975
       3     C     2.96324  2.96324  0.00000  0.07353
       4     C     3.08353  3.08353  0.00000 -0.16706
       5     H     0.47329  0.47329  0.00000  0.05342
       6     H     0.47654  0.47654  0.00000  0.04692
       7     C     3.10304  3.10304  0.00000 -0.20608
       8     H     0.45310  0.45310  0.00000  0.09380
       9     H     0.44849  0.44849  0.00000  0.10303
      10     C     3.09460  3.09460  0.00000 -0.18921
      11     H     0.45438  0.45438  0.00000  0.09124
      12     H     0.45476  0.45476  0.00000  0.09047
      13     C     3.08982  3.08982  0.00000 -0.17964
      14     H     0.45332  0.45332  0.00000  0.09336
      15     H     0.44868  0.44868  0.00000  0.10264
      16     C     3.15241  3.15241  0.00000 -0.30481
      17     H     0.44845  0.44845  0.00000  0.10310
      18     H     0.45485  0.45485  0.00000  0.09030
      19     H     0.45478  0.45478  0.00000  0.09045
      20     H     0.45423  0.45423  0.00000  0.09153
      21     H     0.44645  0.44645  0.00000  0.10709

   Total alpha = 29.00000, Total beta = 29.00000, Total charge =  0.00000

*** Psi4 exiting successfully. Buy a developer a beer!
