  ==> Input File <==

--------------------------------------------------------------------------
set {
	reference rhf
	basis cc-pvtz
}

set_num_threads( 4 )
memory 2 gb

molecule MOL {
0 1

O	 -0.658400	 -0.924805	 1.393072
C	 -0.477132	 0.028016	 0.690226
C	 -1.503754	 1.141000	 0.643910
N	 0.622280	 0.144970	 -0.099307
H	 -1.889474	 1.280502	 -0.358140
H	 -2.310821	 0.862435	 1.300824
H	 -1.081462	 2.081379	 0.976073
C	 1.664396	 -0.854993	 0.000772
C	 0.994250	 1.356920	 -0.789648
H	 2.462727	 -0.615153	 -0.690869
H	 1.261798	 -1.821849	 -0.240651
H	 2.081615	 -0.891605	 1.003877
H	 1.492889	 1.100271	 -1.715459
H	 0.133697	 1.953977	 -1.038380
H	 1.677142	 1.965892	 -0.201553

	symmetry c1
}
set optking {
	frozen_dihedral = ("
		2 4 8 10
	")
}

ee = optimize('scf')
oeprop('DIPOLE', 'QUADRUPOLE', 'MULLIKEN_CHARGES')
f=open( 'psi4out.xyz', 'w' )
f.write( "15  " )
f.write( str(ee) + "\n" )
f.write( MOL.save_string_xyz() )
f.close()
--------------------------------------------------------------------------

    Molecular point group: c1
  Charge       = 0
  Multiplicity = 1
  Basis Set: CC-PVTZ
  Basis Set:
  @DF-RHF Final Energy:  -286.13425845178563
    Total Energy =                       -286.1342584517856267
    Molecular point group: c1
  Basis Set: CC-PVTZ
  Basis Set:
  Basis Set: CC-PVTZ
  Basis Set:
  @DF-RHF Final Energy:  -286.13481981275731
    Total Energy =                       -286.1348198127575415
  Basis Set: CC-PVTZ
  Basis Set:
  Basis Set: CC-PVTZ
  Basis Set:
  @DF-RHF Final Energy:  -286.13488131834265
    Total Energy =                       -286.1348813183426500
  Basis Set: CC-PVTZ
  Basis Set:
  Basis Set: CC-PVTZ
  Basis Set:
  @DF-RHF Final Energy:  -286.13483224849597
    Total Energy =                       -286.1348322484962523
  Basis Set: CC-PVTZ
  Basis Set:
  Basis Set: CC-PVTZ
  Basis Set:
  @DF-RHF Final Energy:  -286.13491375413355
    Total Energy =                       -286.1349137541336063
  Basis Set: CC-PVTZ
  Basis Set:
  Charge       = 0
  Multiplicity = 1
  Basis Set: CC-PVTZ
  Basis Set:

    Orbital Energies (a.u.)
    -----------------------

    Doubly Occupied:

       1A    -20.503604     2A    -15.577245     3A    -11.332558
       4A    -11.264635     5A    -11.247313     6A    -11.226419
       7A     -1.387377     8A     -1.244062     9A     -1.014448
      10A     -0.974123    11A     -0.919684    12A     -0.738248
      13A     -0.681541    14A     -0.660127    15A     -0.653569
      16A     -0.588089    17A     -0.576973    18A     -0.570827
      19A     -0.566075    20A     -0.547122    21A     -0.531513
      22A     -0.501859    23A     -0.413883    24A     -0.370217

  @DF-RHF Final Energy:  -286.13491475146407

   => Energetics <=

    Nuclear Repulsion Energy =            253.0987006001157624
    One-Electron Energy =                -890.2842062477586751
    Two-Electron Energy =                 351.0505908961789032
    DFT Exchange-Correlation Energy =       0.0000000000000000
    Empirical Dispersion Energy =           0.0000000000000000
    PCM Polarization Energy =               0.0000000000000000
    EFP Energy =                            0.0000000000000000
    Total Energy =                       -286.1349147514640094
    Molecular point group: c1
  Basis Set: CC-PVTZ
  Basis Set:

  -Total Gradient:
     Atom            X                  Y                   Z
    ------   -----------------  -----------------  -----------------
       1        0.000009046321    -0.000005731784     0.000011099468
       2        0.000333065148     0.000453588466     0.000592882408
       3        0.000047347065     0.000046572564     0.000063135590
       4       -0.000365553242    -0.000574939571    -0.000742771608
       5       -0.000000488362    -0.000014210273    -0.000019997478
       6        0.000005353236    -0.000006492798    -0.000009889794
       7       -0.000011700708     0.000007047462    -0.000021418026
       8       -0.000419275905    -0.000496253231    -0.000633607897
       9        0.000008104238     0.000057548271     0.000041877496
      10        0.000456487109     0.000552460868     0.000705776376
      11       -0.000009430679     0.000006526524     0.000002645401
      12       -0.000003736209    -0.000005375633     0.000003428280
      13       -0.000000058303    -0.000017043889     0.000034773893
      14       -0.000033563901    -0.000015433936    -0.000025666906
      15       -0.000015595812     0.000011736962    -0.000002267197

  **** Optimization is complete! (in 6 steps) ****
    Final optimized geometry and variables:
    Molecular point group: c1

    Geometry (in Angstrom), charge = 0, multiplicity = 1:

    O           -0.743779121400    -1.083293292467     1.073639612292
    C           -0.589876351810    -0.120186287648     0.377506538473
    C           -1.630183041717     0.979397895453     0.350415106241
    N            0.503095241751     0.003009859495    -0.415570555684
    H           -2.020103518582     1.129011443754    -0.648612208168
    H           -2.432209277809     0.682018235679     1.005447007917
    H           -1.218113126025     1.919826667697     0.695338986201
    C            1.526191662539    -1.017506211116    -0.276749804413
    C            0.875924279979     1.219743067349    -1.098718202515
    H            2.332353632760    -0.797924699211    -0.961586627145
    H            1.123907106398    -1.994006165809    -0.500369663323
    H            1.925587772965    -1.044801927151     0.730168110637
    H            1.342401614059     0.975408011425    -2.043852559274
    H            0.013590944090     1.828328527743    -1.311292620947
    H            1.579001609177     1.814485523948    -0.520373732519

  Mulliken Charges: (a.u.)
   Center  Symbol    Alpha    Beta     Spin     Total
       1     O     4.22004  4.22004  0.00000 -0.44008
       2     C     2.84562  2.84562  0.00000  0.30876
       3     C     3.16003  3.16003  0.00000 -0.32005
       4     N     3.56242  3.56242  0.00000 -0.12484
       5     H     0.44885  0.44885  0.00000  0.10229
       6     H     0.42893  0.42893  0.00000  0.14215
       7     H     0.44928  0.44928  0.00000  0.10145
       8     C     3.08985  3.08985  0.00000 -0.17969
       9     C     3.09848  3.09848  0.00000 -0.19695
      10     H     0.45797  0.45797  0.00000  0.08406
      11     H     0.44016  0.44016  0.00000  0.11967
      12     H     0.44971  0.44971  0.00000  0.10059
      13     H     0.44838  0.44838  0.00000  0.10324
      14     H     0.44580  0.44580  0.00000  0.10840
      15     H     0.45450  0.45450  0.00000  0.09099

   Total alpha = 24.00000, Total beta = 24.00000, Total charge = -0.00000
