                              Psi4 1.0.54 Driver

  ==> Input File <==

--------------------------------------------------------------------------
set {
	reference rhf
	basis cc-pvtz
}

set_num_threads( 4 )
memory 2 gb

molecule MOL {
0 1

H	 -0.911589	 -1.344255	 -0.135281
O	 -1.432053	 -0.565244	 -0.200812
C	 -0.727158	 0.534527	 0.310686
C	 0.680222	 0.664433	 -0.252229
H	 -1.306802	 1.408001	 0.044211
H	 -0.690821	 0.490158	 1.397609
C	 1.605391	 -0.489360	 0.123098
H	 0.615089	 0.745647	 -1.332226
H	 1.101414	 1.597893	 0.110950
H	 1.247627	 -1.432485	 -0.275204
H	 2.601435	 -0.332816	 -0.273062
H	 1.691776	 -0.589902	 1.200774

	symmetry c1
}
set optking {
	frozen_dihedral = ("
		1 2 3 4
	")
}

ee,wfn = optimize('scf', return_wfn=True)
oeprop( wfn, 'DIPOLE', 'QUADRUPOLE', 'MULLIKEN_CHARGES')
f=open( 'psi4out.xyz', 'w' )
f.write( "12  " )
f.write( str(ee) + "\n" )
f.write( MOL.save_string_xyz() )
f.close()
--------------------------------------------------------------------------

    Molecular point group: c1
  Charge       = 0
  Multiplicity = 1
  Basis Set: CC-PVTZ
  Basis Set:
  @DF-RHF Final Energy:  -193.19001788053023
    Total Energy =                       -193.1900178805301493
    Molecular point group: c1
  Basis Set: CC-PVTZ
  Basis Set:
  Basis Set: CC-PVTZ
  Basis Set:
  @DF-RHF Final Energy:  -193.19004425987708
    Total Energy =                       -193.1900442598772543
  Basis Set: CC-PVTZ
  Basis Set:
  Basis Set: CC-PVTZ
  Basis Set:
  @DF-RHF Final Energy:  -193.19006716242131
    Total Energy =                       -193.1900671624214851
  Basis Set: CC-PVTZ
  Basis Set:
  Basis Set: CC-PVTZ
  Basis Set:
  @DF-RHF Final Energy:  -193.19006820614879
    Total Energy =                       -193.1900682061486236
  Basis Set: CC-PVTZ
  Basis Set:
  Charge       = 0
  Multiplicity = 1
  Basis Set: CC-PVTZ
  Basis Set:

    Orbital Energies (a.u.)
    -----------------------

    Doubly Occupied:

       1A    -20.545128     2A    -11.265588     3A    -11.220362
       4A    -11.218802     5A     -1.363725     6A     -1.054103
       7A     -0.930416     8A     -0.814434     9A     -0.691882
      10A     -0.640221    11A     -0.610036    12A     -0.588079
      13A     -0.548244    14A     -0.509943    15A     -0.494543
      16A     -0.470039    17A     -0.433448

  @DF-RHF Final Energy:  -193.19006832944902

   => Energetics <=

    Nuclear Repulsion Energy =            133.2291767158486948
    One-Electron Energy =                -526.0405041717199310
    Two-Electron Energy =                 199.6212591264222453
    DFT Exchange-Correlation Energy =       0.0000000000000000
    Empirical Dispersion Energy =           0.0000000000000000
    PCM Polarization Energy =               0.0000000000000000
    EFP Energy =                            0.0000000000000000
    Total Energy =                       -193.1900683294490193
    Molecular point group: c1
  Basis Set: CC-PVTZ
  Basis Set:

  -Total Gradient:
     Atom            X                  Y                   Z
    ------   -----------------  -----------------  -----------------
       1        0.000625113640     0.000277802221    -0.001477236553
       2       -0.000607815303    -0.000627001389     0.002152662637
       3       -0.000371917698     0.000942457376    -0.001440947801
       4        0.000348118865    -0.000609186572     0.000762729314
       5        0.000004423293     0.000008254429     0.000004564231
       6       -0.000000416047    -0.000003310859    -0.000005258736
       7        0.000001961457     0.000005389568    -0.000004916860
       8       -0.000001070086    -0.000003342897     0.000003600450
       9        0.000004260995     0.000002176280     0.000003293547
      10       -0.000006267686     0.000005587471     0.000000133280
      11        0.000006303942     0.000001149067    -0.000000305392
      12       -0.000002695374     0.000000025307     0.000001681883

  **** Optimization is complete! (in 5 steps) ****
    Final optimized geometry and variables:
    Molecular point group: c1

    Geometry (in Angstrom), charge = 0, multiplicity = 1:

    H           -0.928335174078    -1.347962720134    -0.139945979451
    O           -1.442916819677    -0.565174666495    -0.205423456983
    C           -0.732410155538     0.529433230102     0.307435252398
    C            0.678615230316     0.661185579246    -0.246204346059
    H           -1.310514861201     1.405692951987     0.047610165369
    H           -0.694359499351     0.476135119310     1.394376199618
    C            1.611278267919    -0.482765588653     0.143804979791
    H            0.625354185022     0.740360003171    -1.327327293023
    H            1.091995944386     1.596980313335     0.118418763129
    H            1.281241449838    -1.434252437687    -0.260789521575
    H            2.611270401747    -0.311248967103    -0.235521689527
    H            1.678797241644    -0.584259200475     1.222071519755

  Mulliken Charges: (a.u.)
   Center  Symbol    Alpha    Beta     Spin     Total
       1     H     0.39239  0.39239  0.00000  0.21522
       2     O     4.20558  4.20558  0.00000 -0.41115
       3     C     2.96675  2.96675  0.00000  0.06650
       4     C     3.09158  3.09158  0.00000 -0.18316
       5     H     0.45260  0.45260  0.00000  0.09481
       6     H     0.47405  0.47405  0.00000  0.05189
       7     C     3.15364  3.15364  0.00000 -0.30729
       8     H     0.44989  0.44989  0.00000  0.10022
       9     H     0.45553  0.45553  0.00000  0.08894
      10     H     0.46173  0.46173  0.00000  0.07654
      11     H     0.44441  0.44441  0.00000  0.11118
      12     H     0.45184  0.45184  0.00000  0.09631

   Total alpha = 17.00000, Total beta = 17.00000, Total charge = -0.00000

*** Psi4 exiting successfully. Buy a developer a beer!
