  ==> Input File <==

--------------------------------------------------------------------------
set {
	reference rhf
	basis 6-31G*
}

set_num_threads( 1 )
memory 2 gb

molecule MOL {
0 1

O	 3.735762	 -1.987182	 2.270620
C	 2.973341	 -1.523224	 1.485433
C	 1.481715	 -1.393506	 1.677824
O	 3.347903	 -1.046386	 0.304773
C	 1.003347	 -1.918437	 3.029758
H	 1.232386	 -0.347074	 1.536383
H	 1.002993	 -1.925896	 0.859849
C	 -0.519523	 -1.890608	 3.198836
H	 1.472111	 -1.344586	 3.823530
H	 1.355410	 -2.937361	 3.149204
C	 -1.138909	 -0.490662	 3.239089
H	 -0.765070	 -2.405820	 4.124573
H	 -0.983555	 -2.467932	 2.400474
C	 -2.642941	 -0.513343	 3.519041
H	 -0.639394	 0.099553	 4.005868
H	 -0.965021	 0.023231	 2.296408
C	 -3.273604	 0.879856	 3.556363
H	 -2.824682	 -1.014675	 4.468184
H	 -3.141759	 -1.112293	 2.758687
C	 -4.774980	 0.848615	 3.840254
H	 -2.775645	 1.480028	 4.314962
H	 -3.096754	 1.380895	 2.606908
H	 -5.192858	 1.850404	 3.860347
H	 -4.982852	 0.384341	 4.800168
H	 -5.306255	 0.283912	 3.079247
C	 4.728119	 -1.109107	 -0.004993
H	 4.882018	 -1.033965	 -1.071845
H	 5.068212	 -2.067527	 0.355250
H	 5.265056	 -0.311663	 0.488280

	symmetry c1
}
set optking {
	frozen_dihedral = ("
		21 17 14 11,
		17 14 11 15,
		15 11 8 5,
		6 3 5 9,
		11 8 5 9,
		1 2 4 26,
		6 3 2 1
	")
}

ee = energy('scf')
oeprop('DIPOLE', 'QUADRUPOLE', 'MULLIKEN_CHARGES')
f=open( 'psi4out.xyz', 'w' )
f.write( "29  " )
f.write( str(ee) + "\n" )
f.write( MOL.save_string_xyz() )
f.close()
--------------------------------------------------------------------------

    Molecular point group: c1

    Geometry (in Angstrom), charge = 0, multiplicity = 1:

       Center              X                  Y                   Z               Mass
    ------------   -----------------  -----------------  -----------------  -----------------
           O          3.249680541343    -1.067671589444    -0.081380301561    15.994914619560
           C          2.487259541343    -0.603713589444    -0.866567301561    12.000000000000
           C          0.995633541343    -0.473995589444    -0.674176301561    12.000000000000
           O          2.861821541343    -0.126875589444    -2.047227301561    15.994914619560
           C          0.517265541343    -0.998926589444     0.677757698439    12.000000000000
           H          0.746304541343     0.572436410556    -0.815617301561     1.007825032070
           H          0.516911541343    -1.006385589444    -1.492151301561     1.007825032070
           C         -1.005604458657    -0.971097589444     0.846835698439    12.000000000000
           H          0.986029541343    -0.425075589444     1.471529698439     1.007825032070
           H          0.869328541343    -2.017850589444     0.797203698439     1.007825032070
           C         -1.624990458657     0.428848410556     0.887088698439    12.000000000000
           H         -1.251151458657    -1.486309589444     1.772572698439     1.007825032070
           H         -1.469636458657    -1.548421589444     0.048473698439     1.007825032070
           C         -3.129022458657     0.406167410556     1.167040698439    12.000000000000
           H         -1.125475458657     1.019063410556     1.653867698439     1.007825032070
           H         -1.451102458657     0.942741410556    -0.055592301561     1.007825032070
           C         -3.759685458657     1.799366410556     1.204362698439    12.000000000000
           H         -3.310763458657    -0.095164589444     2.116183698439     1.007825032070
           H         -3.627840458657    -0.192782589444     0.406686698439     1.007825032070
           C         -5.261061458657     1.768125410556     1.488253698439    12.000000000000
           H         -3.261726458657     2.399538410556     1.962961698439     1.007825032070
           H         -3.582835458657     2.300405410556     0.254907698439     1.007825032070
           H         -5.678939458657     2.769914410556     1.508346698439     1.007825032070
           H         -5.468933458657     1.303851410556     2.448167698439     1.007825032070
           H         -5.792336458657     1.203422410556     0.727246698439     1.007825032070
           C          4.242037541343    -0.189596589444    -2.356993301561    12.000000000000
           H          4.395936541343    -0.114454589444    -3.423845301561     1.007825032070
           H          4.582130541343    -1.148016589444    -1.996750301561     1.007825032070
           H          4.778974541343     0.607847410556    -1.863720301561     1.007825032070

  Charge       = 0
  Multiplicity = 1
  Basis Set: 6-31G*
  Basis Set:

    Orbital Energies (a.u.)
    -----------------------

    Doubly Occupied:

       1A    -20.602544     2A    -20.545254     3A    -11.372889
       4A    -11.279239     5A    -11.235038     6A    -11.219268
       7A    -11.217745     8A    -11.216052     9A    -11.215883
      10A    -11.214509    11A    -11.209073    12A     -1.469271
      13A     -1.362606    14A     -1.098199    15A     -1.066923
      16A     -1.019449    17A     -0.976644    18A     -0.928294
      19A     -0.861614    20A     -0.799261    21A     -0.790489
      22A     -0.763024    23A     -0.702080    24A     -0.682660
      25A     -0.672949    26A     -0.651364    27A     -0.629025
      28A     -0.606554    29A     -0.595007    30A     -0.581759
      31A     -0.567718    32A     -0.549264    33A     -0.532787
      34A     -0.527465    35A     -0.512635    36A     -0.511330
      37A     -0.496545    38A     -0.477879    39A     -0.470269
      40A     -0.462405    41A     -0.458802    42A     -0.455708
      43A     -0.440950    44A     -0.435959

  @DF-RHF Final Energy:  -501.04178786772627

   => Energetics <=

    Nuclear Repulsion Energy =            610.3374445791559992
    One-Electron Energy =               -1891.7897349619290708
    Two-Electron Energy =                 780.4105025150452093
    DFT Exchange-Correlation Energy =       0.0000000000000000
    Empirical Dispersion Energy =           0.0000000000000000
    PCM Polarization Energy =               0.0000000000000000
    EFP Energy =                            0.0000000000000000
    Total Energy =                       -501.0417878677278622

  Mulliken Charges: (a.u.)
   Center  Symbol    Alpha    Beta     Spin     Total
       1     O     4.28616  4.28616  0.00000 -0.57232
       2     C     2.60458  2.60458  0.00000  0.79083
       3     C     3.20956  3.20956  0.00000 -0.41913
       4     O     4.30834  4.30834  0.00000 -0.61667
       5     C     3.15390  3.15390  0.00000 -0.30780
       6     H     0.39852  0.39852  0.00000  0.20296
       7     H     0.40119  0.40119  0.00000  0.19763
       8     C     3.15664  3.15664  0.00000 -0.31327
       9     H     0.41302  0.41302  0.00000  0.17396
      10     H     0.40876  0.40876  0.00000  0.18249
      11     C     3.15509  3.15509  0.00000 -0.31019
      12     H     0.41819  0.41819  0.00000  0.16361
      13     H     0.42384  0.42384  0.00000  0.15233
      14     C     3.15030  3.15030  0.00000 -0.30061
      15     H     0.42259  0.42259  0.00000  0.15483
      16     H     0.42358  0.42358  0.00000  0.15284
      17     C     3.15147  3.15147  0.00000 -0.30293
      18     H     0.42332  0.42332  0.00000  0.15336
      19     H     0.42397  0.42397  0.00000  0.15207
      20     C     3.23935  3.23935  0.00000 -0.47871
      21     H     0.42279  0.42279  0.00000  0.15441
      22     H     0.42341  0.42341  0.00000  0.15317
      23     H     0.41922  0.41922  0.00000  0.16156
      24     H     0.42155  0.42155  0.00000  0.15691
      25     H     0.42183  0.42183  0.00000  0.15635
      26     C     3.09502  3.09502  0.00000 -0.19003
      27     H     0.40854  0.40854  0.00000  0.18292
      28     H     0.40275  0.40275  0.00000  0.19450
      29     H     0.41253  0.41253  0.00000  0.17493

   Total alpha = 44.00000, Total beta = 44.00000, Total charge = -0.00000
