  ==> Input File <==

--------------------------------------------------------------------------
set {
	reference rhf
	basis 6-31G*
}

set_num_threads( 1 )
memory 2 gb

molecule MOL {
0 1

O	 -2.042549	 -1.228399	 -0.269030
C	 -1.653912	 -0.146171	 0.050137
C	 -0.332303	 0.024011	 0.778412
C	 -2.438579	 1.106236	 -0.272369
C	 -0.253679	 -0.907243	 1.998435
H	 0.500084	 -0.173004	 0.108562
H	 -0.267199	 1.055996	 1.105049
C	 1.051211	 -0.745541	 2.779553
H	 -0.353566	 -1.942811	 1.677959
H	 -1.099071	 -0.699503	 2.647510
C	 1.128248	 -1.664014	 3.998438
H	 1.893870	 -0.945948	 2.121383
H	 1.150946	 0.289114	 3.099098
H	 1.065396	 -2.708769	 3.707597
H	 0.315978	 -1.464357	 4.691112
H	 2.061946	 -1.525685	 4.534256
H	 -3.277823	 0.863061	 -0.908988
H	 -1.806773	 1.843019	 -0.759671
H	 -2.802853	 1.554979	 0.648059

	symmetry c1
}
set optking {
	frozen_dihedral = ("
		11 8 5 9,
		9 5 3 2
	")
}

ee = energy('scf')
oeprop('DIPOLE', 'QUADRUPOLE', 'MULLIKEN_CHARGES')
f=open( 'psi4out.xyz', 'w' )
f.write( "19  " )
f.write( str(ee) + "\n" )
f.write( MOL.save_string_xyz() )
f.close()
--------------------------------------------------------------------------

    Molecular point group: c1

    Geometry (in Angstrom), charge = 0, multiplicity = 1:

       Center              X                  Y                   Z               Mass
    ------------   -----------------  -----------------  -----------------  -----------------
           O         -1.390147189408    -0.713607551273    -1.573246606643    15.994914619560
           C         -1.001510189408     0.368620448727    -1.254079606643    12.000000000000
           C          0.320098810592     0.538802448727    -0.525804606643    12.000000000000
           C         -1.786177189408     1.621027448727    -1.576585606643    12.000000000000
           C          0.398722810592    -0.392451551273     0.694218393357    12.000000000000
           H          1.152485810592     0.341787448727    -1.195654606643     1.007825032070
           H          0.385202810592     1.570787448727    -0.199167606643     1.007825032070
           C          1.703612810592    -0.230749551273     1.475336393357    12.000000000000
           H          0.298835810592    -1.428019551273     0.373742393357     1.007825032070
           H         -0.446669189408    -0.184711551273     1.343293393357     1.007825032070
           C          1.780649810592    -1.149222551273     2.694221393357    12.000000000000
           H          2.546271810592    -0.431156551273     0.817166393357     1.007825032070
           H          1.803347810592     0.803905448727     1.794881393357     1.007825032070
           H          1.717797810592    -2.193977551273     2.403380393357     1.007825032070
           H          0.968379810592    -0.949565551273     3.386895393357     1.007825032070
           H          2.714347810592    -1.010893551273     3.230039393357     1.007825032070
           H         -2.625421189408     1.377852448727    -2.213204606643     1.007825032070
           H         -1.154371189408     2.357810448727    -2.063887606643     1.007825032070
           H         -2.150451189408     2.069770448727    -0.656157606643     1.007825032070

  Charge       = 0
  Multiplicity = 1
  Basis Set: 6-31G*
  Basis Set:

    Orbital Energies (a.u.)
    -----------------------

    Doubly Occupied:

       1A    -20.547992     2A    -11.325262     3A    -11.230331
       4A    -11.229121     5A    -11.223422     6A    -11.221099
       7A    -11.211965     8A     -1.394003     9A     -1.087294
      10A     -1.029301    11A     -0.984010    12A     -0.887091
      13A     -0.802576    14A     -0.732356    15A     -0.660115
      16A     -0.647944    17A     -0.623258    18A     -0.611139
      19A     -0.581477    20A     -0.572694    21A     -0.553543
      22A     -0.533837    23A     -0.513996    24A     -0.493135
      25A     -0.477533    26A     -0.473019    27A     -0.465389
      28A     -0.397956

  @DF-RHF Final Energy:  -309.06449485542879

   => Energetics <=

    Nuclear Repulsion Energy =            301.1579004947619183
    One-Electron Energy =               -1015.4232490251424679
    Two-Electron Energy =                 405.2008536749502809
    DFT Exchange-Correlation Energy =       0.0000000000000000
    Empirical Dispersion Energy =           0.0000000000000000
    PCM Polarization Energy =               0.0000000000000000
    EFP Energy =                            0.0000000000000000
    Total Energy =                       -309.0644948554303255

  Mulliken Charges: (a.u.)
   Center  Symbol    Alpha    Beta     Spin     Total
       1     O     4.26272  4.26272  0.00000 -0.52543
       2     C     2.73511  2.73511  0.00000  0.52978
       3     C     3.20435  3.20435  0.00000 -0.40871
       4     C     3.28988  3.28988  0.00000 -0.57975
       5     C     3.15534  3.15534  0.00000 -0.31068
       6     H     0.40097  0.40097  0.00000  0.19805
       7     H     0.41723  0.41723  0.00000  0.16555
       8     C     3.15240  3.15240  0.00000 -0.30480
       9     H     0.40427  0.40427  0.00000  0.19146
      10     H     0.42084  0.42084  0.00000  0.15831
      11     C     3.23979  3.23979  0.00000 -0.47958
      12     H     0.42168  0.42168  0.00000  0.15664
      13     H     0.42386  0.42386  0.00000  0.15228
      14     H     0.41911  0.41911  0.00000  0.16178
      15     H     0.42095  0.42095  0.00000  0.15809
      16     H     0.41852  0.41852  0.00000  0.16297
      17     H     0.39689  0.39689  0.00000  0.20622
      18     H     0.40888  0.40888  0.00000  0.18225
      19     H     0.40722  0.40722  0.00000  0.18556

   Total alpha = 28.00000, Total beta = 28.00000, Total charge =  0.00000
