  ==> Input File <==

--------------------------------------------------------------------------
set {
	reference rhf
	basis 6-31G*
}

set_num_threads( 4 )
memory 2 gb

molecule MOL {
0 1

H	 1.148083	 -1.049780	 0.784252
O	 1.319262	 -0.618148	 -0.041729
C	 0.709265	 0.639550	 -0.033818
C	 0.469898	 1.218012	 -1.403732
H	 1.368926	 1.292053	 0.526798
H	 -0.233950	 0.608770	 0.510631
C	 0.920723	 0.711456	 -2.533742
H	 -0.119610	 2.121735	 -1.419485
H	 1.525883	 -0.176687	 -2.554045
H	 0.710299	 1.178084	 -3.479235

	symmetry c1
}
set optking {
	frozen_dihedral = ("
		5 3 2 1
	")
}

ee = optimize('scf')
oeprop('DIPOLE', 'QUADRUPOLE', 'MULLIKEN_CHARGES')
f=open( 'psi4out.xyz', 'w' )
f.write( "10  " )
f.write( str(ee) + "\n" )
f.write( MOL.save_string_xyz() )
f.close()
--------------------------------------------------------------------------

    Molecular point group: c1
  Charge       = 0
  Multiplicity = 1
  Basis Set: 6-31G*
  Basis Set:
  @DF-RHF Final Energy:  -191.91327601177017
    Total Energy =                       -191.9132760117701935
    Molecular point group: c1
  Basis Set: 6-31G*
  Basis Set:
  Basis Set: 6-31G*
  Basis Set:
  @DF-RHF Final Energy:  -191.91473499771615
    Total Energy =                       -191.9147349977160673
  Basis Set: 6-31G*
  Basis Set:
  Basis Set: 6-31G*
  Basis Set:
  @DF-RHF Final Energy:  -191.91520459357849
    Total Energy =                       -191.9152045935783804
  Basis Set: 6-31G*
  Basis Set:
  Basis Set: 6-31G*
  Basis Set:
  @DF-RHF Final Energy:  -191.91523699469116
    Total Energy =                       -191.9152369946910994
  Basis Set: 6-31G*
  Basis Set:
  Basis Set: 6-31G*
  Basis Set:
  @DF-RHF Final Energy:  -191.91523899422225
    Total Energy =                       -191.9152389942222214
  Basis Set: 6-31G*
  Basis Set:
  Charge       = 0
  Multiplicity = 1
  Basis Set: 6-31G*
  Basis Set:

    Orbital Energies (a.u.)
    -----------------------

    Doubly Occupied:

       1A    -20.559217     2A    -11.278427     3A    -11.223650
       4A    -11.209265     5A     -1.367826     6A     -1.053200
       7A     -0.922139     8A     -0.752839     9A     -0.709588
      10A     -0.638516    11A     -0.611907    12A     -0.587106
      13A     -0.512874    14A     -0.487094    15A     -0.451905
      16A     -0.354865

  @DF-RHF Final Energy:  -191.91523923860916

   => Energetics <=

    Nuclear Repulsion Energy =            119.4641618717930527
    One-Electron Energy =                -497.3179662976967279
    Two-Electron Energy =                 185.9385651872946141
    DFT Exchange-Correlation Energy =       0.0000000000000000
    Empirical Dispersion Energy =           0.0000000000000000
    PCM Polarization Energy =               0.0000000000000000
    EFP Energy =                            0.0000000000000000
    Total Energy =                       -191.9152392386090469
    Molecular point group: c1
  Basis Set: 6-31G*
  Basis Set:

  -Total Gradient:
     Atom            X                  Y                   Z
    ------   -----------------  -----------------  -----------------
       1       -0.000812799097    -0.000451722979    -0.000458738318
       2        0.001154912807     0.000608525383     0.000365730303
       3       -0.000725364184    -0.000481868321     0.000826143226
       4       -0.000062967271    -0.000007413452     0.000014166407
       5        0.000434930348     0.000290938692    -0.000722473777
       6       -0.000012675032     0.000037150698    -0.000016405804
       7       -0.000026926581    -0.000020274147    -0.000008380611
       8        0.000019552413     0.000007465479    -0.000002424116
       9        0.000014071968     0.000006489775     0.000001606042
      10        0.000017264628     0.000010708875     0.000000776649

  **** Optimization is complete! (in 6 steps) ****
    Final optimized geometry and variables:
    Molecular point group: c1

    Geometry (in Angstrom), charge = 0, multiplicity = 1:

    H            0.344208077171    -1.503285646929     1.632936011930
    O            0.502997068208    -0.999787840857     0.848364166166
    C           -0.199332311571     0.209471473387     0.914742387624
    C           -0.382986375778     0.791693943387    -0.456777756496
    H            0.337851480835     0.929219089515     1.531932204617
    H           -1.178136091604     0.067191943741     1.371745086500
    C           -0.000641813302     0.227944940568    -1.583601297102
    H           -0.869622131420     1.754459888049    -0.471785728528
    H            0.489455530073    -0.726990391338    -1.596501546666
    H           -0.165474542869     0.711957221292    -2.529718045779

  Mulliken Charges: (a.u.)
   Center  Symbol    Alpha    Beta     Spin     Total
       1     H     0.27851  0.27851  0.00000  0.44298
       2     O     4.36883  4.36883  0.00000 -0.73767
       3     C     2.99859  2.99859  0.00000  0.00283
       4     C     3.08917  3.08917  0.00000 -0.17834
       5     H     0.42421  0.42421  0.00000  0.15158
       6     H     0.42680  0.42680  0.00000  0.14640
       7     C     3.18976  3.18976  0.00000 -0.37953
       8     H     0.41224  0.41224  0.00000  0.17552
       9     H     0.39744  0.39744  0.00000  0.20511
      10     H     0.41444  0.41444  0.00000  0.17112

   Total alpha = 16.00000, Total beta = 16.00000, Total charge =  0.00000
