  ==> Input File <==

--------------------------------------------------------------------------
set {
	reference rhf
	basis 6-31G*
}

set_num_threads( 4 )
memory 2 gb

molecule MOL {
0 1

O	 2.684148	 1.633110	 0.441110
C	 2.276667	 1.041967	 1.393615
C	 0.995199	 0.228792	 1.354558
C	 3.019006	 1.065808	 2.714039
C	 0.291004	 0.242674	 0.000989
H	 1.238269	 -0.790553	 1.651613
H	 0.336474	 0.607176	 2.135141
C	 -0.994322	 -0.586602	 0.000262
H	 0.971519	 -0.130346	 -0.757882
H	 0.068476	 1.268902	 -0.273758
C	 -2.259874	 0.272531	 0.000494
H	 -1.004862	 -1.240012	 -0.870939
H	 -1.005220	 -1.241071	 0.870675
C	 -3.549786	 -0.549746	 -0.000374
H	 -2.250389	 0.926680	 -0.869574
H	 -2.250838	 0.925513	 0.871430
C	 -4.809590	 0.315458	 -0.000369
H	 -3.560515	 -1.202009	 -0.871156
H	 -3.561123	 -1.202955	 0.869711
H	 -4.844746	 0.956611	 -0.876632
H	 -5.706986	 -0.295590	 -0.001609
H	 -4.845960	 0.954827	 0.877144
H	 3.294105	 0.058380	 3.012416
H	 3.910222	 1.670661	 2.620646
H	 2.385640	 1.472123	 3.497231

	symmetry c1
}
set optking {
	frozen_dihedral = ("
		9 5 8 12
	")
}

ee = optimize('scf')
oeprop('DIPOLE', 'QUADRUPOLE', 'MULLIKEN_CHARGES')
f=open( 'psi4out.xyz', 'w' )
f.write( "25  " )
f.write( str(ee) + "\n" )
f.write( MOL.save_string_xyz() )
f.close()
--------------------------------------------------------------------------

    Molecular point group: c1
  Charge       = 0
  Multiplicity = 1
  Basis Set: 6-31G*
  Basis Set:
  @DF-RHF Final Energy:  -387.13132874217183
    Total Energy =                       -387.1313287421719451
    Molecular point group: c1
  Basis Set: 6-31G*
  Basis Set:
  Basis Set: 6-31G*
  Basis Set:
  @DF-RHF Final Energy:  -387.13160937711751
    Total Energy =                       -387.1316093771176838
  Basis Set: 6-31G*
  Basis Set:
  Basis Set: 6-31G*
  Basis Set:
  @DF-RHF Final Energy:  -387.13147268482737
    Total Energy =                       -387.1314726848277132
  Basis Set: 6-31G*
  Basis Set:
  Basis Set: 6-31G*
  Basis Set:
  @DF-RHF Final Energy:  -387.13169202739488
    Total Energy =                       -387.1316920273950473
  Basis Set: 6-31G*
  Basis Set:
  Basis Set: 6-31G*
  Basis Set:
  @DF-RHF Final Energy:  -387.13168442647117
    Total Energy =                       -387.1316844264711108
  Basis Set: 6-31G*
  Basis Set:
  Basis Set: 6-31G*
  Basis Set:
  @DF-RHF Final Energy:  -387.13169554834263
    Total Energy =                       -387.1316955483423499
  Basis Set: 6-31G*
  Basis Set:
  Charge       = 0
  Multiplicity = 1
  Basis Set: 6-31G*
  Basis Set:

    Orbital Energies (a.u.)
    -----------------------

    Doubly Occupied:

       1A    -20.550600     2A    -11.326202     3A    -11.232333
       4A    -11.228391     5A    -11.216711     6A    -11.216279
       7A    -11.216118     8A    -11.215255     9A    -11.209475
      10A     -1.395794    11A     -1.092795    12A     -1.056138
      13A     -1.013890    14A     -0.968906    15A     -0.892572
      16A     -0.815706    17A     -0.790793    18A     -0.732286
      19A     -0.658263    20A     -0.645098    21A     -0.639370
      22A     -0.621566    23A     -0.597757    24A     -0.576367
      25A     -0.570071    26A     -0.565384    27A     -0.540570
      28A     -0.522886    29A     -0.518841    30A     -0.491753
      31A     -0.483946    32A     -0.478787    33A     -0.464343
      34A     -0.459983    35A     -0.445495    36A     -0.399849

  @DF-RHF Final Energy:  -387.13169569616940

   => Energetics <=

    Nuclear Repulsion Energy =            441.5989928926243806
    One-Electron Energy =               -1399.7602295853264422
    Two-Electron Energy =                 571.0295409965331146
    DFT Exchange-Correlation Energy =       0.0000000000000000
    Empirical Dispersion Energy =           0.0000000000000000
    PCM Polarization Energy =               0.0000000000000000
    EFP Energy =                            0.0000000000000000
    Total Energy =                       -387.1316956961688902
    Molecular point group: c1
  Basis Set: 6-31G*
  Basis Set:

  -Total Gradient:
     Atom            X                  Y                   Z
    ------   -----------------  -----------------  -----------------
       1       -0.000006253366     0.000006217408     0.000008322086
       2        0.000013479168    -0.000015301879    -0.000002797168
       3       -0.000015793107     0.000007461090    -0.000017653732
       4        0.000017104382    -0.000007537233    -0.000004691592
       5        0.001556999412    -0.002647433799     0.002625239027
       6        0.000001929493     0.000002552833    -0.000007508891
       7       -0.000001866193    -0.000007058132    -0.000011546168
       8       -0.001710850025     0.002889330660    -0.002195126334
       9       -0.001038812434     0.001720965278    -0.001810566288
      10       -0.000007739190     0.000011621924     0.000004214953
      11        0.000021780971    -0.000013626351    -0.000003031996
      12        0.001181342697    -0.001955402954     0.001404293634
      13        0.000003223162     0.000003594997     0.000014370521
      14       -0.000002408464     0.000003129702    -0.000008662090
      15        0.000004827898    -0.000005659943     0.000000803554
      16        0.000007340168    -0.000009258517    -0.000007188546
      17       -0.000012858340    -0.000005753798     0.000007751546
      18        0.000000627893     0.000004377791    -0.000000689842
      19        0.000000844950     0.000000305530    -0.000004354719
      20        0.000000024253    -0.000003739545    -0.000001062903
      21       -0.000006261408     0.000003671837     0.000003676514
      22        0.000000921645     0.000002342213    -0.000001661964
      23       -0.000005314320     0.000004254528     0.000005176747
      24        0.000000740037     0.000003027686     0.000004837941
      25       -0.000003029291     0.000007918672    -0.000002144287

  **** Optimization is complete! (in 7 steps) ****
    Final optimized geometry and variables:
    Molecular point group: c1

    Geometry (in Angstrom), charge = 0, multiplicity = 1:

    O            2.937465970099     1.244826688961    -0.199607337439
    C            2.532366437854     0.636103385440     0.742899804358
    C            1.271935518152    -0.207664321857     0.680844566129
    C            3.257545738152     0.666791021894     2.072738118930
    C            0.588808395744    -0.207772988796    -0.683648506889
    H            1.534073633136    -1.221652470573     0.979225097745
    H            0.591014471923     0.152691609258     1.451201486648
    C           -0.723815332128    -1.018807344145    -0.703905470744
    H            1.278100469141    -0.577404161669    -1.434150647774
    H            0.388998266070     0.819548936047    -0.970526395536
    C           -1.982642022061    -0.149733021762    -0.678161857779
    H           -0.743769388368    -1.665386693868    -1.577191172667
    H           -0.748555160204    -1.696108752944     0.148498788052
    C           -3.279043150349    -0.960139160798    -0.644218961634
    H           -1.986264979126     0.499419824482    -1.551705539571
    H           -1.948514915350     0.509538129421     0.188536468625
    C           -4.531546582156    -0.084406825334    -0.629304974041
    H           -3.311699422465    -1.621562145633    -1.507462031454
    H           -3.278792019659    -1.604197202542     0.232791486426
    H           -4.579523154190     0.546021943234    -1.512647835592
    H           -5.433670276120    -0.687854495338    -0.604534585501
    H           -4.544971246971     0.566138285400     0.240732522345
    H            3.556448875853    -0.335747780907     2.364602678029
    H            4.133060961355     1.296429556106     1.996251679066
    H            2.603973812270     1.047862958866     2.852029188867

  Mulliken Charges: (a.u.)
   Center  Symbol    Alpha    Beta     Spin     Total
       1     O     4.26103  4.26103  0.00000 -0.52205
       2     C     2.73616  2.73616  0.00000  0.52768
       3     C     3.21145  3.21145  0.00000 -0.42290
       4     C     3.28673  3.28673  0.00000 -0.57345
       5     C     3.15269  3.15269  0.00000 -0.30538
       6     H     0.40948  0.40948  0.00000  0.18105
       7     H     0.40984  0.40984  0.00000  0.18031
       8     C     3.15844  3.15844  0.00000 -0.31688
       9     H     0.40988  0.40988  0.00000  0.18024
      10     H     0.40930  0.40930  0.00000  0.18141
      11     C     3.15158  3.15158  0.00000 -0.30316
      12     H     0.41832  0.41832  0.00000  0.16335
      13     H     0.42451  0.42451  0.00000  0.15099
      14     C     3.15212  3.15212  0.00000 -0.30423
      15     H     0.42093  0.42093  0.00000  0.15814
      16     H     0.42575  0.42575  0.00000  0.14849
      17     C     3.23924  3.23924  0.00000 -0.47849
      18     H     0.42242  0.42242  0.00000  0.15516
      19     H     0.42378  0.42378  0.00000  0.15244
      20     H     0.42102  0.42102  0.00000  0.15797
      21     H     0.41924  0.41924  0.00000  0.16151
      22     H     0.42217  0.42217  0.00000  0.15566
      23     H     0.40867  0.40867  0.00000  0.18267
      24     H     0.39644  0.39644  0.00000  0.20711
      25     H     0.40882  0.40882  0.00000  0.18237

   Total alpha = 36.00000, Total beta = 36.00000, Total charge =  0.00000
