  ==> Input File <==

--------------------------------------------------------------------------
set {
	reference rhf
	basis 6-31G*
}

set_num_threads( 4 )
memory 2 gb

molecule MOL {
0 1

O	 1.321406	 -2.666385	 -0.734972
C	 0.411460	 -1.983802	 -0.392258
C	 -1.027456	 -2.419047	 -0.340798
O	 0.550821	 -0.724572	 0.000672
H	 -1.405047	 -2.316280	 0.669919
H	 -1.106517	 -3.446535	 -0.663148
H	 -1.625584	 -1.781388	 -0.981278
C	 1.863949	 -0.193559	 -0.000319
H	 2.028859	 0.409284	 -0.881648
H	 2.526261	 -1.045082	 -0.000003
H	 2.029520	 0.410555	 0.880008

	symmetry c1
}
set optking {
	frozen_dihedral = ("
		2 4 8 9
	")
}

ee = optimize('scf')
oeprop('DIPOLE', 'QUADRUPOLE', 'MULLIKEN_CHARGES')
f=open( 'psi4out.xyz', 'w' )
f.write( "11  " )
f.write( str(ee) + "\n" )
f.write( MOL.save_string_xyz() )
f.close()
--------------------------------------------------------------------------

    Molecular point group: c1
  Charge       = 0
  Multiplicity = 1
  Basis Set: 6-31G*
  Basis Set:
  @DF-RHF Final Energy:  -266.83277877017520
    Total Energy =                       -266.8327787701754232
    Molecular point group: c1
  Basis Set: 6-31G*
  Basis Set:
  Basis Set: 6-31G*
  Basis Set:
  @DF-RHF Final Energy:  -266.83392207253962
    Total Energy =                       -266.8339220725397354
  Basis Set: 6-31G*
  Basis Set:
  Basis Set: 6-31G*
  Basis Set:
  @DF-RHF Final Energy:  -266.83461856064042
    Total Energy =                       -266.8346185606401946
  Basis Set: 6-31G*
  Basis Set:
  Basis Set: 6-31G*
  Basis Set:
  @DF-RHF Final Energy:  -266.83392365715116
    Total Energy =                       -266.8339236571512174
  Basis Set: 6-31G*
  Basis Set:
  Basis Set: 6-31G*
  Basis Set:
  @DF-RHF Final Energy:  -266.83481641382707
    Total Energy =                       -266.8348164138273546
  Basis Set: 6-31G*
  Basis Set:
  Charge       = 0
  Multiplicity = 1
  Basis Set: 6-31G*
  Basis Set:

    Orbital Energies (a.u.)
    -----------------------

    Doubly Occupied:

       1A    -20.605165     2A    -20.545893     3A    -11.377487
       4A    -11.281049     5A    -11.234135     6A     -1.469118
       7A     -1.364960     8A     -1.036010     9A     -0.953401
      10A     -0.777409    11A     -0.696711    12A     -0.679262
      13A     -0.677075    14A     -0.596893    15A     -0.591320
      16A     -0.560579    17A     -0.527860    18A     -0.520147
      19A     -0.455150    20A     -0.442262

  @DF-RHF Final Energy:  -266.83482023228066

   => Energetics <=

    Nuclear Repulsion Energy =            182.9549599285850547
    One-Electron Energy =                -726.7957901082929766
    Two-Electron Energy =                 277.0060099474272874
    DFT Exchange-Correlation Energy =       0.0000000000000000
    Empirical Dispersion Energy =           0.0000000000000000
    PCM Polarization Energy =               0.0000000000000000
    EFP Energy =                            0.0000000000000000
    Total Energy =                       -266.8348202322806628
    Molecular point group: c1
  Basis Set: 6-31G*
  Basis Set:

  -Total Gradient:
     Atom            X                  Y                   Z
    ------   -----------------  -----------------  -----------------
       1       -0.000033805043    -0.000033265207    -0.000006726603
       2        0.000294849120    -0.000336562075     0.001136459051
       3        0.000013088964     0.000043054833     0.000016794995
       4       -0.000293574636     0.001000906708    -0.001483861628
       5        0.000015663320    -0.000001549076    -0.000002681000
       6        0.000014981115    -0.000008125946    -0.000000373605
       7        0.000016141887     0.000004594397    -0.000003716006
       8        0.000554023428    -0.001669577798    -0.000331761992
       9       -0.000554812016     0.001076192347     0.000667098487
      10        0.000015242229    -0.000058266742     0.000001097317
      11       -0.000041798368    -0.000017401440     0.000007670985

  **** Optimization is complete! (in 6 steps) ****
    Final optimized geometry and variables:
    Molecular point group: c1

    Geometry (in Angstrom), charge = 0, multiplicity = 1:

    O            0.655501501297    -1.108299014228    -0.473718766396
    C           -0.229468946588    -0.405739402975    -0.107546710735
    C           -1.675999099148    -0.811822557586    -0.030558382070
    O           -0.067265148409     0.850864097671     0.288256637021
    H           -2.032362679368    -0.705301333309     0.987392070133
    H           -1.782194290984    -1.835906799265    -0.355694903914
    H           -2.272338576781    -0.158964736010    -0.657351501021
    C            1.240563726775     1.397113041498     0.307249922318
    H            1.385097524425     2.001933733756    -0.577908938541
    H            1.983806087517     0.618679676856     0.350684606407
    H            1.299155959182     2.027354438960     1.182318738919

  Mulliken Charges: (a.u.)
   Center  Symbol    Alpha    Beta     Spin     Total
       1     O     4.28181  4.28181  0.00000 -0.56362
       2     C     2.62217  2.62217  0.00000  0.75567
       3     C     3.28200  3.28200  0.00000 -0.56400
       4     O     4.30095  4.30095  0.00000 -0.60191
       5     H     0.40018  0.40018  0.00000  0.19964
       6     H     0.39677  0.39677  0.00000  0.20645
       7     H     0.39994  0.39994  0.00000  0.20012
       8     C     3.09681  3.09681  0.00000 -0.19362
       9     H     0.41282  0.41282  0.00000  0.17437
      10     H     0.39618  0.39618  0.00000  0.20764
      11     H     0.41037  0.41037  0.00000  0.17927

   Total alpha = 20.00000, Total beta = 20.00000, Total charge =  0.00000
