  ==> Input File <==

--------------------------------------------------------------------------
set {
	reference rhf
	basis 6-31G*
}

set_num_threads( 1 )
memory 2 gb

molecule MOL {
0 1

O	 -2.042549	 -1.228399	 -0.269030
C	 -1.653912	 -0.146171	 0.050137
C	 -0.332303	 0.024011	 0.778412
C	 -2.438579	 1.106236	 -0.272369
C	 0.845713	 -0.001731	 -0.208243
H	 -0.323783	 0.953829	 1.340327
H	 -0.235459	 -0.796807	 1.480410
C	 2.201152	 0.119568	 0.489685
H	 0.739947	 0.807385	 -0.928817
H	 0.804264	 -0.928447	 -0.772707
C	 3.374828	 0.085241	 -0.488329
H	 2.232459	 1.045130	 1.060457
H	 2.306283	 -0.688507	 1.209776
H	 3.316036	 0.902715	 -1.201304
H	 3.388653	 -0.843597	 -1.050924
H	 4.322300	 0.169993	 0.034299
H	 -3.277823	 0.863061	 -0.908988
H	 -1.806773	 1.843019	 -0.759671
H	 -2.802853	 1.554979	 0.648059

	symmetry c1
}
set optking {
	frozen_dihedral = ("
		11 8 5 9,
		5 3 2 4
	")
}

ee = energy('scf')
oeprop('DIPOLE', 'QUADRUPOLE', 'MULLIKEN_CHARGES')
f=open( 'psi4out.xyz', 'w' )
f.write( "19  " )
f.write( str(ee) + "\n" )
f.write( MOL.save_string_xyz() )
f.close()
--------------------------------------------------------------------------

    Molecular point group: c1

    Geometry (in Angstrom), charge = 0, multiplicity = 1:

       Center              X                  Y                   Z               Mass
    ------------   -----------------  -----------------  -----------------  -----------------
           O         -2.042783115627    -1.223589986876    -0.269434661103    15.994914619560
           C         -1.654146115627    -0.141361986876     0.049732338897    12.000000000000
           C         -0.332537115627     0.028820013124     0.778007338897    12.000000000000
           C         -2.438813115627     1.111045013124    -0.272773661103    12.000000000000
           C          0.845478884373     0.003078013124    -0.208647661103    12.000000000000
           H         -0.324017115627     0.958638013124     1.339922338897     1.007825032070
           H         -0.235693115627    -0.791997986876     1.480005338897     1.007825032070
           C          2.200917884373     0.124377013124     0.489280338897    12.000000000000
           H          0.739712884373     0.812194013124    -0.929221661103     1.007825032070
           H          0.804029884373    -0.923637986876    -0.773111661103     1.007825032070
           C          3.374593884373     0.090050013124    -0.488733661103    12.000000000000
           H          2.232224884373     1.049939013124     1.060052338897     1.007825032070
           H          2.306048884373    -0.683697986876     1.209371338897     1.007825032070
           H          3.315801884373     0.907524013124    -1.201708661103     1.007825032070
           H          3.388418884373    -0.838787986876    -1.051328661103     1.007825032070
           H          4.322065884373     0.174802013124     0.033894338897     1.007825032070
           H         -3.278057115627     0.867870013124    -0.909392661103     1.007825032070
           H         -1.807007115627     1.847828013124    -0.760075661103     1.007825032070
           H         -2.803087115627     1.559788013124     0.647654338897     1.007825032070

  Charge       = 0
  Multiplicity = 1
  Basis Set: 6-31G*
  Basis Set:

    Orbital Energies (a.u.)
    -----------------------

    Doubly Occupied:

       1A    -20.547568     2A    -11.324679     3A    -11.230537
       4A    -11.229443     5A    -11.228319     6A    -11.224811
       7A    -11.214886     8A     -1.393317     9A     -1.091340
      10A     -1.029302    11A     -0.983850    12A     -0.889907
      13A     -0.806737    14A     -0.733286    15A     -0.663601
      16A     -0.645311    17A     -0.622644    18A     -0.613116
      19A     -0.582338    20A     -0.573170    21A     -0.552933
      22A     -0.537142    23A     -0.513151    24A     -0.499153
      25A     -0.482298    26A     -0.475738    27A     -0.467266
      28A     -0.396906

  @DF-RHF Final Energy:  -309.06516079249121

   => Energetics <=

    Nuclear Repulsion Energy =            301.2243898491112191
    One-Electron Energy =               -1015.4736373843944648
    Two-Electron Energy =                 405.1840867427916919
    DFT Exchange-Correlation Energy =       0.0000000000000000
    Empirical Dispersion Energy =           0.0000000000000000
    PCM Polarization Energy =               0.0000000000000000
    EFP Energy =                            0.0000000000000000
    Total Energy =                       -309.0651607924916107

  Mulliken Charges: (a.u.)
   Center  Symbol    Alpha    Beta     Spin     Total
       1     O     4.26202  4.26202  0.00000 -0.52403
       2     C     2.73729  2.73729  0.00000  0.52542
       3     C     3.20009  3.20009  0.00000 -0.40018
       4     C     3.28955  3.28955  0.00000 -0.57910
       5     C     3.16110  3.16110  0.00000 -0.32219
       6     H     0.41685  0.41685  0.00000  0.16631
       7     H     0.40105  0.40105  0.00000  0.19790
       8     C     3.15176  3.15176  0.00000 -0.30353
       9     H     0.42100  0.42100  0.00000  0.15800
      10     H     0.40640  0.40640  0.00000  0.18720
      11     C     3.24034  3.24034  0.00000 -0.48069
      12     H     0.42239  0.42239  0.00000  0.15523
      13     H     0.41915  0.41915  0.00000  0.16170
      14     H     0.42120  0.42120  0.00000  0.15761
      15     H     0.41880  0.41880  0.00000  0.16241
      16     H     0.41743  0.41743  0.00000  0.16514
      17     H     0.39701  0.39701  0.00000  0.20598
      18     H     0.40984  0.40984  0.00000  0.18032
      19     H     0.40674  0.40674  0.00000  0.18652

   Total alpha = 28.00000, Total beta = 28.00000, Total charge = -0.00000
