  ==> Input File <==

--------------------------------------------------------------------------
set {
	reference rhf
	basis 6-31G*
}

set_num_threads( 4 )
memory 2 gb

molecule MOL {
0 1

O	 2.131581	 -0.212733	 0.530841
C	 1.122059	 0.121804	 -0.000188
C	 -0.170150	 -0.657997	 -0.000612
O	 0.999624	 1.255221	 -0.679416
C	 -1.412532	 0.227344	 -0.000452
H	 -0.153702	 -1.313099	 -0.867402
H	 -0.153924	 -1.313811	 0.865644
C	 -2.706999	 -0.587347	 -0.000541
H	 -1.388000	 0.879466	 -0.868000
H	 -1.387972	 0.879138	 0.867341
C	 -3.956778	 0.291888	 0.000910
H	 -2.726114	 -1.239230	 -0.871609
H	 -2.725217	 -1.240844	 0.869333
H	 -3.985213	 0.933254	 -0.875158
H	 -4.860123	 -0.309979	 0.000519
H	 -3.984618	 0.931166	 0.878514
C	 2.144544	 2.084852	 -0.756944
H	 2.457816	 2.393376	 0.230052
H	 1.848459	 2.942626	 -1.340472
H	 2.958410	 1.565016	 -1.241610

	symmetry c1
}
set optking {
	frozen_dihedral = ("
		1 2 3 6
	")
}

ee = optimize('scf')
oeprop('DIPOLE', 'QUADRUPOLE', 'MULLIKEN_CHARGES')
f=open( 'psi4out.xyz', 'w' )
f.write( "20  " )
f.write( str(ee) + "\n" )
f.write( MOL.save_string_xyz() )
f.close()
--------------------------------------------------------------------------

    Molecular point group: c1
  Charge       = 0
  Multiplicity = 1
  Basis Set: 6-31G*
  Basis Set:
  @DF-RHF Final Energy:  -383.93884917247306
    Total Energy =                       -383.9388491724729420
    Molecular point group: c1
  Basis Set: 6-31G*
  Basis Set:
  Basis Set: 6-31G*
  Basis Set:
  @DF-RHF Final Energy:  -383.93792545469950
    Total Energy =                       -383.9379254546994389
  Basis Set: 6-31G*
  Basis Set:
  Basis Set: 6-31G*
  Basis Set:
  @DF-RHF Final Energy:  -383.93906144203640
    Total Energy =                       -383.9390614420362908
  Basis Set: 6-31G*
  Basis Set:
  Basis Set: 6-31G*
  Basis Set:
  @DF-RHF Final Energy:  -383.93962316574698
    Total Energy =                       -383.9396231657472072
  Basis Set: 6-31G*
  Basis Set:
  Basis Set: 6-31G*
  Basis Set:
  @DF-RHF Final Energy:  -383.93963268481457
    Total Energy =                       -383.9396326848144554
  Basis Set: 6-31G*
  Basis Set:
  Basis Set: 6-31G*
  Basis Set:
  @DF-RHF Final Energy:  -383.93963509965096
    Total Energy =                       -383.9396350996509000
  Basis Set: 6-31G*
  Basis Set:
  Charge       = 0
  Multiplicity = 1
  Basis Set: 6-31G*
  Basis Set:

    Orbital Energies (a.u.)
    -----------------------

    Doubly Occupied:

       1A    -20.605534     2A    -20.542291     3A    -11.371969
       4A    -11.281448     5A    -11.235430     6A    -11.225245
       7A    -11.222971     8A    -11.213685     9A     -1.469781
      10A     -1.361265    11A     -1.091811    12A     -1.024328
      13A     -0.966607    14A     -0.892250    15A     -0.806484
      16A     -0.774621    17A     -0.693237    18A     -0.682393
      19A     -0.671868    20A     -0.647557    21A     -0.594840
      22A     -0.591722    23A     -0.579912    24A     -0.545391
      25A     -0.531344    26A     -0.523512    27A     -0.505501
      28A     -0.490384    29A     -0.480449    30A     -0.473052
      31A     -0.454289    32A     -0.428126

  @DF-RHF Final Energy:  -383.93963532252803

   => Energetics <=

    Nuclear Repulsion Energy =            383.5685328423189731
    One-Electron Energy =               -1283.0577440719766855
    Two-Electron Energy =                 515.5495759071297925
    DFT Exchange-Correlation Energy =       0.0000000000000000
    Empirical Dispersion Energy =           0.0000000000000000
    PCM Polarization Energy =               0.0000000000000000
    EFP Energy =                            0.0000000000000000
    Total Energy =                       -383.9396353225279199
    Molecular point group: c1
  Basis Set: 6-31G*
  Basis Set:

  -Total Gradient:
     Atom            X                  Y                   Z
    ------   -----------------  -----------------  -----------------
       1        0.000273222588    -0.000466378037    -0.000765364757
       2       -0.000315752958     0.000523142530     0.001208166089
       3       -0.000323790671     0.000608880798    -0.000905238872
       4       -0.000043447645    -0.000018252094    -0.000001279110
       5        0.000023770443     0.000005429305    -0.000019643890
       6        0.000374551777    -0.000655062289     0.000454016122
       7       -0.000007400810     0.000013692375    -0.000016396943
       8       -0.000015448843    -0.000008166839     0.000032626747
       9        0.000015348388     0.000009116287     0.000003301742
      10        0.000010897710    -0.000012045114     0.000013710387
      11        0.000008131187    -0.000001335347    -0.000023804144
      12        0.000011337209    -0.000002325765     0.000010076711
      13       -0.000012334683     0.000006316398     0.000015421237
      14       -0.000000153856     0.000009574380    -0.000000649834
      15        0.000005194525    -0.000002710298    -0.000010007344
      16        0.000000459739    -0.000009232922     0.000002515214
      17        0.000004454347     0.000001340989     0.000010295948
      18        0.000000811868     0.000001790300    -0.000004673438
      19       -0.000009478851    -0.000005038511    -0.000002254567
      20       -0.000000371465     0.000001263853    -0.000000817299

  **** Optimization is complete! (in 7 steps) ****
    Final optimized geometry and variables:
    Molecular point group: c1

    Geometry (in Angstrom), charge = 0, multiplicity = 1:

    O            2.310520754251    -0.571149172248     0.647948335963
    C            1.319675646923    -0.183007908856     0.116743055575
    C            0.016439964840    -0.947341079084     0.095868999626
    O            1.262224125274     0.954082432061    -0.562188527591
    C           -1.254149847821    -0.095197324896     0.105515253917
    H            0.041942246760    -1.573426942684    -0.793848373498
    H            0.043963614172    -1.619875957067     0.944521208281
    C           -2.520708595382    -0.952460771998     0.136929284831
    H           -1.267726469250     0.547027190637    -0.767987729082
    H           -1.242161500373     0.562338738740     0.971705830651
    C           -3.799422384103    -0.115960330145     0.140285379701
    H           -2.527113193034    -1.617785098745    -0.723980991116
    H           -2.504997974748    -1.591741453814     1.016827823339
    H           -3.860333179292     0.510432404300    -0.744996362737
    H           -4.681366242976    -0.748287392467     0.159875021483
    H           -3.839560730820     0.535039674540     1.008879066529
    C            2.451751247931     1.719660223893    -0.633568400946
    H            2.779553024232     2.004247806437     0.355684194851
    H            2.204176048786     2.595474012116    -1.212858798676
    H            3.235752879327     1.157305633038    -1.119735762248

  Mulliken Charges: (a.u.)
   Center  Symbol    Alpha    Beta     Spin     Total
       1     O     4.28822  4.28822  0.00000 -0.57643
       2     C     2.60737  2.60737  0.00000  0.78526
       3     C     3.20673  3.20673  0.00000 -0.41345
       4     O     4.30300  4.30300  0.00000 -0.60600
       5     C     3.15544  3.15544  0.00000 -0.31089
       6     H     0.40138  0.40138  0.00000  0.19724
       7     H     0.39788  0.39788  0.00000  0.20425
       8     C     3.15429  3.15429  0.00000 -0.30857
       9     H     0.40888  0.40888  0.00000  0.18224
      10     H     0.41791  0.41791  0.00000  0.16417
      11     C     3.23962  3.23962  0.00000 -0.47924
      12     H     0.42180  0.42180  0.00000  0.15639
      13     H     0.42080  0.42080  0.00000  0.15839
      14     H     0.42042  0.42042  0.00000  0.15915
      15     H     0.41772  0.41772  0.00000  0.16457
      16     H     0.42042  0.42042  0.00000  0.15916
      17     C     3.09247  3.09247  0.00000 -0.18494
      18     H     0.40831  0.40831  0.00000  0.18338
      19     H     0.40873  0.40873  0.00000  0.18254
      20     H     0.40862  0.40862  0.00000  0.18277

   Total alpha = 32.00000, Total beta = 32.00000, Total charge =  0.00000
