                              Psi4 1.0.54 Driver

  ==> Input File <==

--------------------------------------------------------------------------
set {
	reference rhf
	basis cc-pvtz
}

set_num_threads( 4 )
memory 2 gb

molecule MOL {
0 1

H	 0.078194	 -0.121313	 -0.435279
N	 -0.625934	 -0.663929	 -0.000707
C	 -1.978635	 -0.158664	 0.001017
C	 -0.266635	 -1.840960	 0.557937
H	 -2.519057	 -0.493535	 -0.876362
H	 -1.938890	 0.917202	 -0.004137
H	 -2.514266	 -0.485137	 0.884506
C	 1.204034	 -2.173857	 0.434920
O	 -1.040176	 -2.571774	 1.102567
H	 1.805653	 -1.413667	 0.919445
H	 1.386913	 -3.127740	 0.901534
H	 1.496354	 -2.219815	 -0.607700

	symmetry c1
}
set optking {
	frozen_dihedral = ("
		4 2 3 5
	")
}

ee,wfn = optimize('scf', return_wfn=True)
oeprop( wfn, 'DIPOLE', 'QUADRUPOLE', 'MULLIKEN_CHARGES')
f=open( 'psi4out.xyz', 'w' )
f.write( "12  " )
f.write( str(ee) + "\n" )
f.write( MOL.save_string_xyz() )
f.close()
--------------------------------------------------------------------------

    Molecular point group: c1
  Charge       = 0
  Multiplicity = 1
  Basis Set: CC-PVTZ
  Basis Set:
  @DF-RHF Final Energy:  -247.10084148434288
    Total Energy =                       -247.1008414843429364
    Molecular point group: c1
  Basis Set: CC-PVTZ
  Basis Set:
  Basis Set: CC-PVTZ
  Basis Set:
  @DF-RHF Final Energy:  -247.10101346202399
    Total Energy =                       -247.1010134620238432
  Basis Set: CC-PVTZ
  Basis Set:
  Basis Set: CC-PVTZ
  Basis Set:
  @DF-RHF Final Energy:  -247.10093090950318
    Total Energy =                       -247.1009309095031767
  Basis Set: CC-PVTZ
  Basis Set:
  Basis Set: CC-PVTZ
  Basis Set:
  @DF-RHF Final Energy:  -247.10111021187660
    Total Energy =                       -247.1011102118767440
  Basis Set: CC-PVTZ
  Basis Set:
  @DF-RHF Final Energy:  -247.10112511532452
    Total Energy =                       -247.1011251153244643
  @DF-RHF Final Energy:  -247.10114852388307
    Total Energy =                       -247.1011485238832392
  @DF-RHF Final Energy:  -247.10115177532589
    Total Energy =                       -247.1011517753259454
  @DF-RHF Final Energy:  -247.10115302273033
    Total Energy =                       -247.1011530227305002
  @DF-RHF Final Energy:  -247.10115585244742
    Total Energy =                       -247.1011558524475049
  @DF-RHF Final Energy:  -247.10114699106762
    Total Energy =                       -247.1011469910675942
  @DF-RHF Final Energy:  -247.10115792154397
    Total Energy =                       -247.1011579215439724
  @DF-RHF Final Energy:  -247.10119817199296
    Total Energy =                       -247.1011981719929054
  @DF-RHF Final Energy:  -247.10124079570707
    Total Energy =                       -247.1012407957070991
  @DF-RHF Final Energy:  -247.10125549270379
    Total Energy =                       -247.1012554927036717
  @DF-RHF Final Energy:  -247.10126271341687
    Total Energy =                       -247.1012627134168724
  @DF-RHF Final Energy:  -247.10126908223177
    Total Energy =                       -247.1012690822317381
  @DF-RHF Final Energy:  -247.10127522326792
    Total Energy =                       -247.1012752232680896
  @DF-RHF Final Energy:  -247.10128113944285
    Total Energy =                       -247.1012811394428468
  @DF-RHF Final Energy:  -247.10128675334707
    Total Energy =                       -247.1012867533469830
  @DF-RHF Final Energy:  -247.10129207243079
    Total Energy =                       -247.1012920724307378
  @DF-RHF Final Energy:  -247.10129707430974
    Total Energy =                       -247.1012970743097412
  @DF-RHF Final Energy:  -247.10130174281014
    Total Energy =                       -247.1013017428102785
  @DF-RHF Final Energy:  -247.10130606966140
    Total Energy =                       -247.1013060696614048
  @DF-RHF Final Energy:  -247.10130712019347
    Total Energy =                       -247.1013071201936100
  @DF-RHF Final Energy:  -247.10130812594235
    Total Energy =                       -247.1013081259423529
  @DF-RHF Final Energy:  -247.10131100077803
    Total Energy =                       -247.1013110007780824
  Basis Set: CC-PVTZ
  Basis Set:
  @DF-RHF Final Energy:  -247.10131368376031
    Total Energy =                       -247.1013136837601678
  Basis Set: CC-PVTZ
  Basis Set:
  Basis Set: CC-PVTZ
  Basis Set:
  @DF-RHF Final Energy:  -247.10131616503662
    Total Energy =                       -247.1013161650366783
  Basis Set: CC-PVTZ
  Basis Set:
  Basis Set: CC-PVTZ
  Basis Set:
  @DF-RHF Final Energy:  -247.10131844641600
    Total Energy =                       -247.1013184464158030
  Basis Set: CC-PVTZ
  Basis Set:
  Charge       = 0
  Multiplicity = 1
  Basis Set: CC-PVTZ
  Basis Set:

    Orbital Energies (a.u.)
    -----------------------

    Doubly Occupied:

       1A    -20.504942     2A    -15.576474     3A    -11.336224
       4A    -11.253359     5A    -11.228374     6A     -1.387802
       7A     -1.231647     8A     -1.016268     9A     -0.933877
      10A     -0.789381    11A     -0.690912    12A     -0.652063
      13A     -0.635499    14A     -0.586534    15A     -0.583070
      16A     -0.555144    17A     -0.547083    18A     -0.507786
      19A     -0.417057    20A     -0.390362

  @DF-RHF Final Energy:  -247.10131899307424

   => Energetics <=

    Nuclear Repulsion Energy =            181.7566852334672376
    One-Electron Energy =                -696.0682838118357267
    Two-Electron Energy =                 267.2102795852945292
    DFT Exchange-Correlation Energy =       0.0000000000000000
    Empirical Dispersion Energy =           0.0000000000000000
    PCM Polarization Energy =               0.0000000000000000
    EFP Energy =                            0.0000000000000000
    Total Energy =                       -247.1013189930739600
    Molecular point group: c1
  Basis Set: CC-PVTZ
  Basis Set:

  -Total Gradient:
     Atom            X                  Y                   Z
    ------   -----------------  -----------------  -----------------
       1        0.000000435517    -0.000001300524    -0.000002124969
       2        0.000001675314    -0.000061192168    -0.000413275513
       3       -0.000106358636    -0.000286921237     0.000240055862
       4        0.000013148148     0.000081026814     0.000233608935
       5        0.000089328829     0.000255899028    -0.000094779301
       6        0.000000078553    -0.000000314410     0.000000881020
       7       -0.000000921956    -0.000000482183    -0.000000497925
       8       -0.000002055447     0.000001276593     0.000003642474
       9        0.000003360966     0.000012138774     0.000035619188
      10        0.000001357885     0.000000636380     0.000024963447
      11       -0.000005090494    -0.000022063543    -0.000012677489
      12        0.000005041321     0.000021296478    -0.000015415729

  **** Optimization is complete! (in 30 steps) ****
    Final optimized geometry and variables:
    Molecular point group: c1

    Geometry (in Angstrom), charge = 0, multiplicity = 1:

    H            0.656684869363     1.449851863636    -0.665033410183
    N           -0.053147908804     0.871524817028    -0.291358851482
    C           -1.423431816693     1.320022638892    -0.377572347871
    C            0.283333819301    -0.367576779607     0.125490020774
    H           -1.858393933967     1.114203701538    -1.349466118515
    H           -1.465161698904     2.385868504531    -0.197465106117
    H           -2.007412377160     0.813099837003     0.372684861281
    C            1.756596993087    -0.700764728827     0.054041821136
    O           -0.520766755976    -1.162982721087     0.514046150081
    H            2.389172791414     0.176691941990     0.087535151242
    H            2.002509561353    -1.359154640575     0.872904301089
    H            1.945454851904    -1.229176647318    -0.873168801496

  Mulliken Charges: (a.u.)
   Center  Symbol    Alpha    Beta     Spin     Total
       1     H     0.41062  0.41062  0.00000  0.17875
       2     N     3.61646  3.61646  0.00000 -0.23292
       3     C     3.08123  3.08123  0.00000 -0.16245
       4     C     2.84066  2.84066  0.00000  0.31869
       5     H     0.45731  0.45731  0.00000  0.08538
       6     H     0.45523  0.45523  0.00000  0.08955
       7     H     0.43466  0.43466  0.00000  0.13068
       8     C     3.14643  3.14643  0.00000 -0.29286
       9     O     4.21915  4.21915  0.00000 -0.43830
      10     H     0.45783  0.45783  0.00000  0.08433
      11     H     0.43619  0.43619  0.00000  0.12761
      12     H     0.44423  0.44423  0.00000  0.11155

   Total alpha = 20.00000, Total beta = 20.00000, Total charge =  0.00000

*** Psi4 exiting successfully. Buy a developer a beer!
