  ==> Input File <==

--------------------------------------------------------------------------
set {
	reference rhf
	basis 6-31G*
}

set_num_threads( 4 )
memory 2 gb

molecule MOL {
0 1

O	 1.846825	 1.296220	 0.000415
C	 1.705091	 0.115954	 0.001797
C	 0.381791	 -0.609817	 0.001258
O	 2.721346	 -0.737485	 -0.000216
C	 -0.823008	 0.326187	 0.001381
H	 0.371250	 -1.265087	 -0.865474
H	 0.370908	 -1.265746	 0.867490
C	 -2.149452	 -0.435131	 -0.000098
H	 -0.770201	 0.977095	 -0.865636
H	 -0.771220	 0.975655	 0.869608
C	 -3.368779	 0.488503	 -0.000883
H	 -2.193746	 -1.087250	 -0.871175
H	 -2.195311	 -1.087803	 0.870418
C	 -4.320755	 0.218758	 -1.165456
H	 -3.035589	 1.523247	 -0.038709
H	 -3.905604	 0.375417	 0.938355
H	 -3.821778	 0.357687	 -2.120409
H	 -5.174541	 0.888657	 -1.138325
H	 -4.698371	 -0.799494	 -1.135822
C	 4.024888	 -0.184556	 -0.001949
H	 4.179030	 0.422472	 -0.882452
H	 4.701782	 -1.024608	 -0.003642
H	 4.181981	 0.421185	 0.878906

	symmetry c1
}
set optking {
	frozen_dihedral = ("
		15 11 8 12
	")
}

ee = optimize('scf')
oeprop('DIPOLE', 'QUADRUPOLE', 'MULLIKEN_CHARGES')
f=open( 'psi4out.xyz', 'w' )
f.write( "23  " )
f.write( str(ee) + "\n" )
f.write( MOL.save_string_xyz() )
f.close()
--------------------------------------------------------------------------

    Molecular point group: c1
  Charge       = 0
  Multiplicity = 1
  Basis Set: 6-31G*
  Basis Set:
  @DF-RHF Final Energy:  -422.97051052928271
    Total Energy =                       -422.9705105292824783
    Molecular point group: c1
  Basis Set: 6-31G*
  Basis Set:
  Basis Set: 6-31G*
  Basis Set:
  @DF-RHF Final Energy:  -422.97069875886109
    Total Energy =                       -422.9706987588610900
  Basis Set: 6-31G*
  Basis Set:
  Basis Set: 6-31G*
  Basis Set:
  @DF-RHF Final Energy:  -422.97054448455702
    Total Energy =                       -422.9705444845563989
  Basis Set: 6-31G*
  Basis Set:
  Basis Set: 6-31G*
  Basis Set:
  @DF-RHF Final Energy:  -422.97080651872369
    Total Energy =                       -422.9708065187231796
  Basis Set: 6-31G*
  Basis Set:
  Basis Set: 6-31G*
  Basis Set:
  @DF-RHF Final Energy:  -422.97081253935642
    Total Energy =                       -422.9708125393564160
  Basis Set: 6-31G*
  Basis Set:
  Charge       = 0
  Multiplicity = 1
  Basis Set: 6-31G*
  Basis Set:

    Orbital Energies (a.u.)
    -----------------------

    Doubly Occupied:

       1A    -20.603628     2A    -20.545427     3A    -11.372303
       4A    -11.280848     5A    -11.235341     6A    -11.219703
       7A    -11.217548     8A    -11.216076     9A    -11.209753
      10A     -1.469323    11A     -1.362770    12A     -1.091690
      13A     -1.041912    14A     -0.986840    15A     -0.931634
      16A     -0.845290    17A     -0.794468    18A     -0.767556
      19A     -0.696756    20A     -0.683465    21A     -0.671876
      22A     -0.644528    23A     -0.611936    24A     -0.598608
      25A     -0.578127    26A     -0.565468    27A     -0.543820
      28A     -0.525894    29A     -0.521864    30A     -0.503250
      31A     -0.492960    32A     -0.469323    33A     -0.460425
      34A     -0.459022    35A     -0.454158    36A     -0.435275

  @DF-RHF Final Energy:  -422.97081261021964

   => Energetics <=

    Nuclear Repulsion Energy =            452.9946454358409369
    One-Electron Energy =               -1473.7131873571047436
    Two-Electron Energy =                 597.7477293110437131
    DFT Exchange-Correlation Energy =       0.0000000000000000
    Empirical Dispersion Energy =           0.0000000000000000
    PCM Polarization Energy =               0.0000000000000000
    EFP Energy =                            0.0000000000000000
    Total Energy =                       -422.9708126102200367
    Molecular point group: c1
  Basis Set: 6-31G*
  Basis Set:

  -Total Gradient:
     Atom            X                  Y                   Z
    ------   -----------------  -----------------  -----------------
       1        0.000009070775    -0.000008768667    -0.000005028093
       2       -0.000004656324    -0.000005943693     0.000005874275
       3       -0.000006285534    -0.000002546821    -0.000010328073
       4        0.000011140425     0.000013378124    -0.000013035566
       5       -0.000005811909     0.000000425273     0.000015022008
       6        0.000002804394    -0.000000121829     0.000003942291
       7        0.000000521318     0.000001559847     0.000000045095
       8        0.000690885259     0.000975594796    -0.000482785260
       9       -0.000008659684     0.000000818568     0.000003618483
      10       -0.000003109309    -0.000002782127    -0.000001653322
      11       -0.000148536608    -0.000245107786    -0.001257287035
      12       -0.000571785850    -0.000760654147     0.000596315206
      13       -0.000001706298     0.000007215250     0.000007006029
      14       -0.000005801414    -0.000000209284    -0.000002336128
      15        0.000028895515     0.000034650099     0.001120377551
      16       -0.000001402062    -0.000008830037    -0.000000447975
      17        0.000004718851    -0.000003919586     0.000005753822
      18       -0.000001567700     0.000005722717     0.000000378459
      19        0.000002314849     0.000002976657     0.000004216208
      20        0.000003719997    -0.000005696494     0.000019568370
      21       -0.000003840347     0.000000180845    -0.000003504574
      22        0.000004082711     0.000001394793    -0.000002891378
      23        0.000005008935     0.000000663500    -0.000002820394

  **** Optimization is complete! (in 6 steps) ****
    Final optimized geometry and variables:
    Molecular point group: c1

    Geometry (in Angstrom), charge = 0, multiplicity = 1:

    O            1.809596202672     1.238523925131     0.134963571578
    C            1.667862297870     0.058274016448     0.135621995535
    C            0.344441148711    -0.667349830206     0.133160765724
    O            2.684096503488    -0.795185333021     0.138511571035
    C           -0.860074636325     0.268381737025     0.130971901394
    H            0.335187865892    -1.323037091536    -0.733358190153
    H            0.331974769043    -1.323073541302     0.999585162379
    C           -2.187601076987    -0.492079885256     0.126445485336
    H           -0.807376746921     0.919800506419    -0.735986879911
    H           -0.811312892472     0.918051380090     0.999295490942
    C           -3.424092066662     0.435053864981     0.127776552656
    H           -2.223258019911    -1.148251979106    -0.740827002374
    H           -2.222325747401    -1.151428845285     0.990610589724
    C           -4.390842200663     0.164597108242    -1.024960686383
    H           -3.102677392853     1.472513990680     0.088438559725
    H           -3.958162353612     0.331372031847     1.068033263307
    H           -3.901893674254     0.303297728802    -1.985285896486
    H           -5.245076086954     0.833660140595    -0.987836525483
    H           -4.765991612292    -0.854396980164    -0.990300672297
    C            3.987677352531    -0.242267948276     0.141058654338
    H            4.145176511381     0.363680337439    -0.739589811483
    H            4.664581303299    -1.082367829622     0.142844695833
    H            4.141482454614     0.364473416594     1.021809778026

  Mulliken Charges: (a.u.)
   Center  Symbol    Alpha    Beta     Spin     Total
       1     O     4.28610  4.28610  0.00000 -0.57221
       2     C     2.60517  2.60517  0.00000  0.78966
       3     C     3.20871  3.20871  0.00000 -0.41742
       4     O     4.30722  4.30722  0.00000 -0.61443
       5     C     3.15436  3.15436  0.00000 -0.30872
       6     H     0.40059  0.40059  0.00000  0.19883
       7     H     0.40066  0.40066  0.00000  0.19869
       8     C     3.15748  3.15748  0.00000 -0.31497
       9     H     0.41161  0.41161  0.00000  0.17679
      10     H     0.41120  0.41120  0.00000  0.17761
      11     C     3.15554  3.15554  0.00000 -0.31109
      12     H     0.42120  0.42120  0.00000  0.15761
      13     H     0.42134  0.42134  0.00000  0.15733
      14     C     3.23998  3.23998  0.00000 -0.47996
      15     H     0.41716  0.41716  0.00000  0.16567
      16     H     0.41971  0.41971  0.00000  0.16058
      17     H     0.42161  0.42161  0.00000  0.15678
      18     H     0.41970  0.41970  0.00000  0.16059
      19     H     0.42165  0.42165  0.00000  0.15670
      20     C     3.09243  3.09243  0.00000 -0.18486
      21     H     0.40908  0.40908  0.00000  0.18185
      22     H     0.40843  0.40843  0.00000  0.18314
      23     H     0.40908  0.40908  0.00000  0.18184

   Total alpha = 36.00000, Total beta = 36.00000, Total charge =  0.00000
