  ==> Input File <==

--------------------------------------------------------------------------
set {
	reference rhf
	basis cc-pvtz
}

set_num_threads( 4 )
memory 2 gb

molecule MOL {
0 1

O	 -0.694481	 1.313155	 -0.204815
C	 -0.862519	 0.151932	 -0.046791
C	 -2.171428	 -0.477048	 0.339095
O	 0.085519	 -0.757083	 -0.192238
H	 -2.467997	 -1.191667	 -0.417688
H	 -2.923379	 0.287970	 0.444097
H	 -2.053854	 -1.015120	 1.270901
C	 1.392036	 -0.330828	 -0.560749
C	 2.178034	 -1.443311	 -1.222933
H	 1.904397	 0.040499	 0.312989
H	 1.229660	 0.486610	 -1.247174
H	 3.139990	 -1.064053	 -1.548898
H	 2.350166	 -2.258349	 -0.533392
H	 1.649713	 -1.821542	 -2.089773

	symmetry c1
}
set optking {
	frozen_dihedral = ("
		10 8 4 2
	")
}

ee = optimize('scf')
oeprop('DIPOLE', 'QUADRUPOLE', 'MULLIKEN_CHARGES')
f=open( 'psi4out.xyz', 'w' )
f.write( "14  " )
f.write( str(ee) + "\n" )
f.write( MOL.save_string_xyz() )
f.close()
--------------------------------------------------------------------------

    Molecular point group: c1
  Charge       = 0
  Multiplicity = 1
  Basis Set: CC-PVTZ
  Basis Set:
  @DF-RHF Final Energy:  -305.98984745922604
    Total Energy =                       -305.9898474592259845
    Molecular point group: c1
  Basis Set: CC-PVTZ
  Basis Set:
  Basis Set: CC-PVTZ
  Basis Set:
  @DF-RHF Final Energy:  -305.99117637324548
    Total Energy =                       -305.9911763732458212
  Basis Set: CC-PVTZ
  Basis Set:
  Basis Set: CC-PVTZ
  Basis Set:
  @DF-RHF Final Energy:  -305.99127453071878
    Total Energy =                       -305.9912745307188970
  Basis Set: CC-PVTZ
  Basis Set:
  Basis Set: CC-PVTZ
  Basis Set:
  @DF-RHF Final Energy:  -305.99143717762371
    Total Energy =                       -305.9914371776236521
  Basis Set: CC-PVTZ
  Basis Set:
  Basis Set: CC-PVTZ
  Basis Set:
  @DF-RHF Final Energy:  -305.99152897989313
    Total Energy =                       -305.9915289798930758
  Basis Set: CC-PVTZ
  Basis Set:
  Charge       = 0
  Multiplicity = 1
  Basis Set: CC-PVTZ
  Basis Set:

    Orbital Energies (a.u.)
    -----------------------

    Doubly Occupied:

       1A    -20.594746     2A    -20.532914     3A    -11.367411
       4A    -11.283047     5A    -11.231653     6A    -11.220862
       7A     -1.470923     8A     -1.365911     9A     -1.058980
      10A     -1.000984    11A     -0.872864    12A     -0.781442
      13A     -0.695562    14A     -0.688894    15A     -0.668716
      16A     -0.612528    17A     -0.581730    18A     -0.564674
      19A     -0.555874    20A     -0.540316    21A     -0.511896
      22A     -0.502743    23A     -0.456565    24A     -0.442122

  @DF-RHF Final Energy:  -305.99153329295916

   => Energetics <=

    Nuclear Repulsion Energy =            246.0667115479702716
    One-Electron Energy =                -904.9097714954680214
    Two-Electron Energy =                 352.8515266545388727
    DFT Exchange-Correlation Energy =       0.0000000000000000
    Empirical Dispersion Energy =           0.0000000000000000
    PCM Polarization Energy =               0.0000000000000000
    EFP Energy =                            0.0000000000000000
    Total Energy =                       -305.9915332929588772
    Molecular point group: c1
  Basis Set: CC-PVTZ
  Basis Set:

  -Total Gradient:
     Atom            X                  Y                   Z
    ------   -----------------  -----------------  -----------------
       1        0.000053194988    -0.000021253799    -0.000004930044
       2       -0.000360943812    -0.000106955852    -0.001345527696
       3       -0.000004702414    -0.000027298545    -0.000001363455
       4        0.000747829578    -0.000153920418     0.001949148110
       5       -0.000002314533    -0.000009195709     0.000006531186
       6        0.000014257064     0.000004406802     0.000001521800
       7       -0.000005033988     0.000002220933     0.000003884962
       8       -0.000871645268     0.001719652854    -0.000899157241
       9       -0.000042311624    -0.000007906664     0.000050316544
      10        0.000550530938    -0.001451567852     0.000263611712
      11       -0.000023965122     0.000031763283    -0.000033429108
      12       -0.000051538619     0.000030751237     0.000030418177
      13        0.000014220575    -0.000014450090     0.000002425350
      14       -0.000017577765     0.000003753821    -0.000023450298

  **** Optimization is complete! (in 6 steps) ****
    Final optimized geometry and variables:
    Molecular point group: c1

    Geometry (in Angstrom), charge = 0, multiplicity = 1:

    O           -0.696878373003     1.573079550633     0.155314417940
    C           -0.850299678266     0.406072587112     0.278791514323
    C           -2.148265418155    -0.251431091634     0.653799949901
    O            0.110328892827    -0.484668935229     0.104971621825
    H           -2.441315231500    -0.946950675033    -0.121925112623
    H           -2.909018923595     0.500374892722     0.786709980944
    H           -2.017501944952    -0.815349597044     1.568385669353
    C            1.398026506509    -0.025879853895    -0.284805423483
    C            2.143763867683    -1.194571298675    -0.887347089186
    H            1.910675945620     0.345034792172     0.593153602180
    H            1.292516172396     0.786313350210    -0.986355442751
    H            3.141734910327    -0.882868813038    -1.172299054063
    H            2.228941942385    -2.007100759579    -0.176822505601
    H            1.634842709121    -1.562906500579    -1.769363110300

  Mulliken Charges: (a.u.)
   Center  Symbol    Alpha    Beta     Spin     Total
       1     O     4.19762  4.19762  0.00000 -0.39524
       2     C     2.80584  2.80584  0.00000  0.38832
       3     C     3.13872  3.13872  0.00000 -0.27743
       4     O     4.15331  4.15331  0.00000 -0.30662
       5     H     0.44617  0.44617  0.00000  0.10767
       6     H     0.43806  0.43806  0.00000  0.12388
       7     H     0.44559  0.44559  0.00000  0.10882
       8     C     2.97957  2.97957  0.00000  0.04086
       9     C     3.13254  3.13254  0.00000 -0.26508
      10     H     0.45641  0.45641  0.00000  0.08719
      11     H     0.44837  0.44837  0.00000  0.10326
      12     H     0.45458  0.45458  0.00000  0.09084
      13     H     0.45137  0.45137  0.00000  0.09725
      14     H     0.45186  0.45186  0.00000  0.09628

   Total alpha = 24.00000, Total beta = 24.00000, Total charge =  0.00000
